PSF EXT CMAP XPLOR AUTOG

         3 !NTITLE
* GENERATED BY CHARMM-GUI (HTTP://WWW.CHARMM-GUI.ORG) V3.7 ON AUG, 31. 2026. JOB
* INPUT GENERATION                                                              
*  DATE:     8/31/26     16: 1:34      CREATED BY USER: charmm-gui              

     46504 !NATOM
         1 MEMB     1        POPC     N        NTL     -0.600000       14.0070           0
         2 MEMB     1        POPC     C12      CTL2    -0.100000       12.0110           0
         3 MEMB     1        POPC     H12A     HL       0.250000       1.00800           0
         4 MEMB     1        POPC     H12B     HL       0.250000       1.00800           0
         5 MEMB     1        POPC     C13      CTL5    -0.350000       12.0110           0
         6 MEMB     1        POPC     H13A     HL       0.250000       1.00800           0
         7 MEMB     1        POPC     H13B     HL       0.250000       1.00800           0
         8 MEMB     1        POPC     H13C     HL       0.250000       1.00800           0
         9 MEMB     1        POPC     C14      CTL5    -0.350000       12.0110           0
        10 MEMB     1        POPC     H14A     HL       0.250000       1.00800           0
        11 MEMB     1        POPC     H14B     HL       0.250000       1.00800           0
        12 MEMB     1        POPC     H14C     HL       0.250000       1.00800           0
        13 MEMB     1        POPC     C15      CTL5    -0.350000       12.0110           0
        14 MEMB     1        POPC     H15A     HL       0.250000       1.00800           0
        15 MEMB     1        POPC     H15B     HL       0.250000       1.00800           0
        16 MEMB     1        POPC     H15C     HL       0.250000       1.00800           0
        17 MEMB     1        POPC     C11      CTL2    -0.800000E-01   12.0110           0
        18 MEMB     1        POPC     H11A     HAL2     0.900000E-01   1.00800           0
        19 MEMB     1        POPC     H11B     HAL2     0.900000E-01   1.00800           0
        20 MEMB     1        POPC     P        PL        1.50000       30.9740           0
        21 MEMB     1        POPC     O13      O2L     -0.780000       15.9994           0
        22 MEMB     1        POPC     O14      O2L     -0.780000       15.9994           0
        23 MEMB     1        POPC     O12      OSLP    -0.570000       15.9994           0
        24 MEMB     1        POPC     O11      OSLP    -0.570000       15.9994           0
        25 MEMB     1        POPC     C1       CTL2    -0.800000E-01   12.0110           0
        26 MEMB     1        POPC     HA       HAL2     0.900000E-01   1.00800           0
        27 MEMB     1        POPC     HB       HAL2     0.900000E-01   1.00800           0
        28 MEMB     1        POPC     C2       CTL1     0.170000       12.0110           0
        29 MEMB     1        POPC     HS       HAL1     0.900000E-01   1.00800           0
        30 MEMB     1        POPC     O21      OSL     -0.490000       15.9994           0
        31 MEMB     1        POPC     C21      CL       0.900000       12.0110           0
        32 MEMB     1        POPC     O22      OBL     -0.630000       15.9994           0
        33 MEMB     1        POPC     C22      CTL2    -0.220000       12.0110           0
        34 MEMB     1        POPC     H2R      HAL2     0.900000E-01   1.00800           0
        35 MEMB     1        POPC     H2S      HAL2     0.900000E-01   1.00800           0
        36 MEMB     1        POPC     C3       CTL2     0.800000E-01   12.0110           0
        37 MEMB     1        POPC     HX       HAL2     0.900000E-01   1.00800           0
        38 MEMB     1        POPC     HY       HAL2     0.900000E-01   1.00800           0
        39 MEMB     1        POPC     O31      OSL     -0.490000       15.9994           0
        40 MEMB     1        POPC     C31      CL       0.900000       12.0110           0
        41 MEMB     1        POPC     O32      OBL     -0.630000       15.9994           0
        42 MEMB     1        POPC     C32      CTL2    -0.220000       12.0110           0
        43 MEMB     1        POPC     H2X      HAL2     0.900000E-01   1.00800           0
        44 MEMB     1        POPC     H2Y      HAL2     0.900000E-01   1.00800           0
        45 MEMB     1        POPC     C23      CTL2    -0.180000       12.0110           0
        46 MEMB     1        POPC     H3R      HAL2     0.900000E-01   1.00800           0
        47 MEMB     1        POPC     H3S      HAL2     0.900000E-01   1.00800           0
        48 MEMB     1        POPC     C24      CTL2    -0.180000       12.0110           0
        49 MEMB     1        POPC     H4R      HAL2     0.900000E-01   1.00800           0
        50 MEMB     1        POPC     H4S      HAL2     0.900000E-01   1.00800           0
        51 MEMB     1        POPC     C25      CTL2    -0.180000       12.0110           0
        52 MEMB     1        POPC     H5R      HAL2     0.900000E-01   1.00800           0
        53 MEMB     1        POPC     H5S      HAL2     0.900000E-01   1.00800           0
        54 MEMB     1        POPC     C26      CTL2    -0.180000       12.0110           0
        55 MEMB     1        POPC     H6R      HAL2     0.900000E-01   1.00800           0
        56 MEMB     1        POPC     H6S      HAL2     0.900000E-01   1.00800           0
        57 MEMB     1        POPC     C27      CTL2    -0.180000       12.0110           0
        58 MEMB     1        POPC     H7R      HAL2     0.900000E-01   1.00800           0
        59 MEMB     1        POPC     H7S      HAL2     0.900000E-01   1.00800           0
        60 MEMB     1        POPC     C28      CTL2    -0.180000       12.0110           0
        61 MEMB     1        POPC     H8R      HAL2     0.900000E-01   1.00800           0
        62 MEMB     1        POPC     H8S      HAL2     0.900000E-01   1.00800           0
        63 MEMB     1        POPC     C29      CEL1    -0.150000       12.0110           0
        64 MEMB     1        POPC     H91      HEL1     0.150000       1.00800           0
        65 MEMB     1        POPC     C210     CEL1    -0.150000       12.0110           0
        66 MEMB     1        POPC     H101     HEL1     0.150000       1.00800           0
        67 MEMB     1        POPC     C211     CTL2    -0.180000       12.0110           0
        68 MEMB     1        POPC     H11R     HAL2     0.900000E-01   1.00800           0
        69 MEMB     1        POPC     H11S     HAL2     0.900000E-01   1.00800           0
        70 MEMB     1        POPC     C212     CTL2    -0.180000       12.0110           0
        71 MEMB     1        POPC     H12R     HAL2     0.900000E-01   1.00800           0
        72 MEMB     1        POPC     H12S     HAL2     0.900000E-01   1.00800           0
        73 MEMB     1        POPC     C213     CTL2    -0.180000       12.0110           0
        74 MEMB     1        POPC     H13R     HAL2     0.900000E-01   1.00800           0
        75 MEMB     1        POPC     H13S     HAL2     0.900000E-01   1.00800           0
        76 MEMB     1        POPC     C214     CTL2    -0.180000       12.0110           0
        77 MEMB     1        POPC     H14R     HAL2     0.900000E-01   1.00800           0
        78 MEMB     1        POPC     H14S     HAL2     0.900000E-01   1.00800           0
        79 MEMB     1        POPC     C215     CTL2    -0.180000       12.0110           0
        80 MEMB     1        POPC     H15R     HAL2     0.900000E-01   1.00800           0
        81 MEMB     1        POPC     H15S     HAL2     0.900000E-01   1.00800           0
        82 MEMB     1        POPC     C216     CTL2    -0.180000       12.0110           0
        83 MEMB     1        POPC     H16R     HAL2     0.900000E-01   1.00800           0
        84 MEMB     1        POPC     H16S     HAL2     0.900000E-01   1.00800           0
        85 MEMB     1        POPC     C217     CTL2    -0.180000       12.0110           0
        86 MEMB     1        POPC     H17R     HAL2     0.900000E-01   1.00800           0
        87 MEMB     1        POPC     H17S     HAL2     0.900000E-01   1.00800           0
        88 MEMB     1        POPC     C218     CTL3    -0.270000       12.0110           0
        89 MEMB     1        POPC     H18R     HAL3     0.900000E-01   1.00800           0
        90 MEMB     1        POPC     H18S     HAL3     0.900000E-01   1.00800           0
        91 MEMB     1        POPC     H18T     HAL3     0.900000E-01   1.00800           0
        92 MEMB     1        POPC     C33      CTL2    -0.180000       12.0110           0
        93 MEMB     1        POPC     H3X      HAL2     0.900000E-01   1.00800           0
        94 MEMB     1        POPC     H3Y      HAL2     0.900000E-01   1.00800           0
        95 MEMB     1        POPC     C34      CTL2    -0.180000       12.0110           0
        96 MEMB     1        POPC     H4X      HAL2     0.900000E-01   1.00800           0
        97 MEMB     1        POPC     H4Y      HAL2     0.900000E-01   1.00800           0
        98 MEMB     1        POPC     C35      CTL2    -0.180000       12.0110           0
        99 MEMB     1        POPC     H5X      HAL2     0.900000E-01   1.00800           0
       100 MEMB     1        POPC     H5Y      HAL2     0.900000E-01   1.00800           0
       101 MEMB     1        POPC     C36      CTL2    -0.180000       12.0110           0
       102 MEMB     1        POPC     H6X      HAL2     0.900000E-01   1.00800           0
       103 MEMB     1        POPC     H6Y      HAL2     0.900000E-01   1.00800           0
       104 MEMB     1        POPC     C37      CTL2    -0.180000       12.0110           0
       105 MEMB     1        POPC     H7X      HAL2     0.900000E-01   1.00800           0
       106 MEMB     1        POPC     H7Y      HAL2     0.900000E-01   1.00800           0
       107 MEMB     1        POPC     C38      CTL2    -0.180000       12.0110           0
       108 MEMB     1        POPC     H8X      HAL2     0.900000E-01   1.00800           0
       109 MEMB     1        POPC     H8Y      HAL2     0.900000E-01   1.00800           0
       110 MEMB     1        POPC     C39      CTL2    -0.180000       12.0110           0
       111 MEMB     1        POPC     H9X      HAL2     0.900000E-01   1.00800           0
       112 MEMB     1        POPC     H9Y      HAL2     0.900000E-01   1.00800           0
       113 MEMB     1        POPC     C310     CTL2    -0.180000       12.0110           0
       114 MEMB     1        POPC     H10X     HAL2     0.900000E-01   1.00800           0
       115 MEMB     1        POPC     H10Y     HAL2     0.900000E-01   1.00800           0
       116 MEMB     1        POPC     C311     CTL2    -0.180000       12.0110           0
       117 MEMB     1        POPC     H11X     HAL2     0.900000E-01   1.00800           0
       118 MEMB     1        POPC     H11Y     HAL2     0.900000E-01   1.00800           0
       119 MEMB     1        POPC     C312     CTL2    -0.180000       12.0110           0
       120 MEMB     1        POPC     H12X     HAL2     0.900000E-01   1.00800           0
       121 MEMB     1        POPC     H12Y     HAL2     0.900000E-01   1.00800           0
       122 MEMB     1        POPC     C313     CTL2    -0.180000       12.0110           0
       123 MEMB     1        POPC     H13X     HAL2     0.900000E-01   1.00800           0
       124 MEMB     1        POPC     H13Y     HAL2     0.900000E-01   1.00800           0
       125 MEMB     1        POPC     C314     CTL2    -0.180000       12.0110           0
       126 MEMB     1        POPC     H14X     HAL2     0.900000E-01   1.00800           0
       127 MEMB     1        POPC     H14Y     HAL2     0.900000E-01   1.00800           0
       128 MEMB     1        POPC     C315     CTL2    -0.180000       12.0110           0
       129 MEMB     1        POPC     H15X     HAL2     0.900000E-01   1.00800           0
       130 MEMB     1        POPC     H15Y     HAL2     0.900000E-01   1.00800           0
       131 MEMB     1        POPC     C316     CTL3    -0.270000       12.0110           0
       132 MEMB     1        POPC     H16X     HAL3     0.900000E-01   1.00800           0
       133 MEMB     1        POPC     H16Y     HAL3     0.900000E-01   1.00800           0
       134 MEMB     1        POPC     H16Z     HAL3     0.900000E-01   1.00800           0
       135 MEMB     2        POPS     N        NH3L    -0.300000       14.0070           0
       136 MEMB     2        POPS     HN1      HCL      0.330000       1.00800           0
       137 MEMB     2        POPS     HN2      HCL      0.330000       1.00800           0
       138 MEMB     2        POPS     HN3      HCL      0.330000       1.00800           0
       139 MEMB     2        POPS     C12      CTL1     0.210000       12.0110           0
       140 MEMB     2        POPS     H12A     HBL      0.100000       1.00800           0
       141 MEMB     2        POPS     C13      CCL      0.340000       12.0110           0
       142 MEMB     2        POPS     O13A     OCL     -0.670000       15.9994           0
       143 MEMB     2        POPS     O13B     OCL     -0.670000       15.9994           0
       144 MEMB     2        POPS     C11      CTL2    -0.800000E-01   12.0110           0
       145 MEMB     2        POPS     H11A     HAL2     0.900000E-01   1.00800           0
       146 MEMB     2        POPS     H11B     HAL2     0.900000E-01   1.00800           0
       147 MEMB     2        POPS     P        PL        1.50000       30.9740           0
       148 MEMB     2        POPS     O13      O2L     -0.780000       15.9994           0
       149 MEMB     2        POPS     O14      O2L     -0.780000       15.9994           0
       150 MEMB     2        POPS     O12      OSLP    -0.570000       15.9994           0
       151 MEMB     2        POPS     O11      OSLP    -0.570000       15.9994           0
       152 MEMB     2        POPS     C1       CTL2    -0.800000E-01   12.0110           0
       153 MEMB     2        POPS     HA       HAL2     0.900000E-01   1.00800           0
       154 MEMB     2        POPS     HB       HAL2     0.900000E-01   1.00800           0
       155 MEMB     2        POPS     C2       CTL1     0.170000       12.0110           0
       156 MEMB     2        POPS     HS       HAL1     0.900000E-01   1.00800           0
       157 MEMB     2        POPS     O21      OSL     -0.490000       15.9994           0
       158 MEMB     2        POPS     C21      CL       0.900000       12.0110           0
       159 MEMB     2        POPS     O22      OBL     -0.630000       15.9994           0
       160 MEMB     2        POPS     C22      CTL2    -0.220000       12.0110           0
       161 MEMB     2        POPS     H2R      HAL2     0.900000E-01   1.00800           0
       162 MEMB     2        POPS     H2S      HAL2     0.900000E-01   1.00800           0
       163 MEMB     2        POPS     C3       CTL2     0.800000E-01   12.0110           0
       164 MEMB     2        POPS     HX       HAL2     0.900000E-01   1.00800           0
       165 MEMB     2        POPS     HY       HAL2     0.900000E-01   1.00800           0
       166 MEMB     2        POPS     O31      OSL     -0.490000       15.9994           0
       167 MEMB     2        POPS     C31      CL       0.900000       12.0110           0
       168 MEMB     2        POPS     O32      OBL     -0.630000       15.9994           0
       169 MEMB     2        POPS     C32      CTL2    -0.220000       12.0110           0
       170 MEMB     2        POPS     H2X      HAL2     0.900000E-01   1.00800           0
       171 MEMB     2        POPS     H2Y      HAL2     0.900000E-01   1.00800           0
       172 MEMB     2        POPS     C23      CTL2    -0.180000       12.0110           0
       173 MEMB     2        POPS     H3R      HAL2     0.900000E-01   1.00800           0
       174 MEMB     2        POPS     H3S      HAL2     0.900000E-01   1.00800           0
       175 MEMB     2        POPS     C24      CTL2    -0.180000       12.0110           0
       176 MEMB     2        POPS     H4R      HAL2     0.900000E-01   1.00800           0
       177 MEMB     2        POPS     H4S      HAL2     0.900000E-01   1.00800           0
       178 MEMB     2        POPS     C25      CTL2    -0.180000       12.0110           0
       179 MEMB     2        POPS     H5R      HAL2     0.900000E-01   1.00800           0
       180 MEMB     2        POPS     H5S      HAL2     0.900000E-01   1.00800           0
       181 MEMB     2        POPS     C26      CTL2    -0.180000       12.0110           0
       182 MEMB     2        POPS     H6R      HAL2     0.900000E-01   1.00800           0
       183 MEMB     2        POPS     H6S      HAL2     0.900000E-01   1.00800           0
       184 MEMB     2        POPS     C27      CTL2    -0.180000       12.0110           0
       185 MEMB     2        POPS     H7R      HAL2     0.900000E-01   1.00800           0
       186 MEMB     2        POPS     H7S      HAL2     0.900000E-01   1.00800           0
       187 MEMB     2        POPS     C28      CTL2    -0.180000       12.0110           0
       188 MEMB     2        POPS     H8R      HAL2     0.900000E-01   1.00800           0
       189 MEMB     2        POPS     H8S      HAL2     0.900000E-01   1.00800           0
       190 MEMB     2        POPS     C29      CEL1    -0.150000       12.0110           0
       191 MEMB     2        POPS     H91      HEL1     0.150000       1.00800           0
       192 MEMB     2        POPS     C210     CEL1    -0.150000       12.0110           0
       193 MEMB     2        POPS     H101     HEL1     0.150000       1.00800           0
       194 MEMB     2        POPS     C211     CTL2    -0.180000       12.0110           0
       195 MEMB     2        POPS     H11R     HAL2     0.900000E-01   1.00800           0
       196 MEMB     2        POPS     H11S     HAL2     0.900000E-01   1.00800           0
       197 MEMB     2        POPS     C212     CTL2    -0.180000       12.0110           0
       198 MEMB     2        POPS     H12R     HAL2     0.900000E-01   1.00800           0
       199 MEMB     2        POPS     H12S     HAL2     0.900000E-01   1.00800           0
       200 MEMB     2        POPS     C213     CTL2    -0.180000       12.0110           0
       201 MEMB     2        POPS     H13R     HAL2     0.900000E-01   1.00800           0
       202 MEMB     2        POPS     H13S     HAL2     0.900000E-01   1.00800           0
       203 MEMB     2        POPS     C214     CTL2    -0.180000       12.0110           0
       204 MEMB     2        POPS     H14R     HAL2     0.900000E-01   1.00800           0
       205 MEMB     2        POPS     H14S     HAL2     0.900000E-01   1.00800           0
       206 MEMB     2        POPS     C215     CTL2    -0.180000       12.0110           0
       207 MEMB     2        POPS     H15R     HAL2     0.900000E-01   1.00800           0
       208 MEMB     2        POPS     H15S     HAL2     0.900000E-01   1.00800           0
       209 MEMB     2        POPS     C216     CTL2    -0.180000       12.0110           0
       210 MEMB     2        POPS     H16R     HAL2     0.900000E-01   1.00800           0
       211 MEMB     2        POPS     H16S     HAL2     0.900000E-01   1.00800           0
       212 MEMB     2        POPS     C217     CTL2    -0.180000       12.0110           0
       213 MEMB     2        POPS     H17R     HAL2     0.900000E-01   1.00800           0
       214 MEMB     2        POPS     H17S     HAL2     0.900000E-01   1.00800           0
       215 MEMB     2        POPS     C218     CTL3    -0.270000       12.0110           0
       216 MEMB     2        POPS     H18R     HAL3     0.900000E-01   1.00800           0
       217 MEMB     2        POPS     H18S     HAL3     0.900000E-01   1.00800           0
       218 MEMB     2        POPS     H18T     HAL3     0.900000E-01   1.00800           0
       219 MEMB     2        POPS     C33      CTL2    -0.180000       12.0110           0
       220 MEMB     2        POPS     H3X      HAL2     0.900000E-01   1.00800           0
       221 MEMB     2        POPS     H3Y      HAL2     0.900000E-01   1.00800           0
       222 MEMB     2        POPS     C34      CTL2    -0.180000       12.0110           0
       223 MEMB     2        POPS     H4X      HAL2     0.900000E-01   1.00800           0
       224 MEMB     2        POPS     H4Y      HAL2     0.900000E-01   1.00800           0
       225 MEMB     2        POPS     C35      CTL2    -0.180000       12.0110           0
       226 MEMB     2        POPS     H5X      HAL2     0.900000E-01   1.00800           0
       227 MEMB     2        POPS     H5Y      HAL2     0.900000E-01   1.00800           0
       228 MEMB     2        POPS     C36      CTL2    -0.180000       12.0110           0
       229 MEMB     2        POPS     H6X      HAL2     0.900000E-01   1.00800           0
       230 MEMB     2        POPS     H6Y      HAL2     0.900000E-01   1.00800           0
       231 MEMB     2        POPS     C37      CTL2    -0.180000       12.0110           0
       232 MEMB     2        POPS     H7X      HAL2     0.900000E-01   1.00800           0
       233 MEMB     2        POPS     H7Y      HAL2     0.900000E-01   1.00800           0
       234 MEMB     2        POPS     C38      CTL2    -0.180000       12.0110           0
       235 MEMB     2        POPS     H8X      HAL2     0.900000E-01   1.00800           0
       236 MEMB     2        POPS     H8Y      HAL2     0.900000E-01   1.00800           0
       237 MEMB     2        POPS     C39      CTL2    -0.180000       12.0110           0
       238 MEMB     2        POPS     H9X      HAL2     0.900000E-01   1.00800           0
       239 MEMB     2        POPS     H9Y      HAL2     0.900000E-01   1.00800           0
       240 MEMB     2        POPS     C310     CTL2    -0.180000       12.0110           0
       241 MEMB     2        POPS     H10X     HAL2     0.900000E-01   1.00800           0
       242 MEMB     2        POPS     H10Y     HAL2     0.900000E-01   1.00800           0
       243 MEMB     2        POPS     C311     CTL2    -0.180000       12.0110           0
       244 MEMB     2        POPS     H11X     HAL2     0.900000E-01   1.00800           0
       245 MEMB     2        POPS     H11Y     HAL2     0.900000E-01   1.00800           0
       246 MEMB     2        POPS     C312     CTL2    -0.180000       12.0110           0
       247 MEMB     2        POPS     H12X     HAL2     0.900000E-01   1.00800           0
       248 MEMB     2        POPS     H12Y     HAL2     0.900000E-01   1.00800           0
       249 MEMB     2        POPS     C313     CTL2    -0.180000       12.0110           0
       250 MEMB     2        POPS     H13X     HAL2     0.900000E-01   1.00800           0
       251 MEMB     2        POPS     H13Y     HAL2     0.900000E-01   1.00800           0
       252 MEMB     2        POPS     C314     CTL2    -0.180000       12.0110           0
       253 MEMB     2        POPS     H14X     HAL2     0.900000E-01   1.00800           0
       254 MEMB     2        POPS     H14Y     HAL2     0.900000E-01   1.00800           0
       255 MEMB     2        POPS     C315     CTL2    -0.180000       12.0110           0
       256 MEMB     2        POPS     H15X     HAL2     0.900000E-01   1.00800           0
       257 MEMB     2        POPS     H15Y     HAL2     0.900000E-01   1.00800           0
       258 MEMB     2        POPS     C316     CTL3    -0.270000       12.0110           0
       259 MEMB     2        POPS     H16X     HAL3     0.900000E-01   1.00800           0
       260 MEMB     2        POPS     H16Y     HAL3     0.900000E-01   1.00800           0
       261 MEMB     2        POPS     H16Z     HAL3     0.900000E-01   1.00800           0
       262 MEMB     3        POPC     N        NTL     -0.600000       14.0070           0
       263 MEMB     3        POPC     C12      CTL2    -0.100000       12.0110           0
       264 MEMB     3        POPC     H12A     HL       0.250000       1.00800           0
       265 MEMB     3        POPC     H12B     HL       0.250000       1.00800           0
       266 MEMB     3        POPC     C13      CTL5    -0.350000       12.0110           0
       267 MEMB     3        POPC     H13A     HL       0.250000       1.00800           0
       268 MEMB     3        POPC     H13B     HL       0.250000       1.00800           0
       269 MEMB     3        POPC     H13C     HL       0.250000       1.00800           0
       270 MEMB     3        POPC     C14      CTL5    -0.350000       12.0110           0
       271 MEMB     3        POPC     H14A     HL       0.250000       1.00800           0
       272 MEMB     3        POPC     H14B     HL       0.250000       1.00800           0
       273 MEMB     3        POPC     H14C     HL       0.250000       1.00800           0
       274 MEMB     3        POPC     C15      CTL5    -0.350000       12.0110           0
       275 MEMB     3        POPC     H15A     HL       0.250000       1.00800           0
       276 MEMB     3        POPC     H15B     HL       0.250000       1.00800           0
       277 MEMB     3        POPC     H15C     HL       0.250000       1.00800           0
       278 MEMB     3        POPC     C11      CTL2    -0.800000E-01   12.0110           0
       279 MEMB     3        POPC     H11A     HAL2     0.900000E-01   1.00800           0
       280 MEMB     3        POPC     H11B     HAL2     0.900000E-01   1.00800           0
       281 MEMB     3        POPC     P        PL        1.50000       30.9740           0
       282 MEMB     3        POPC     O13      O2L     -0.780000       15.9994           0
       283 MEMB     3        POPC     O14      O2L     -0.780000       15.9994           0
       284 MEMB     3        POPC     O12      OSLP    -0.570000       15.9994           0
       285 MEMB     3        POPC     O11      OSLP    -0.570000       15.9994           0
       286 MEMB     3        POPC     C1       CTL2    -0.800000E-01   12.0110           0
       287 MEMB     3        POPC     HA       HAL2     0.900000E-01   1.00800           0
       288 MEMB     3        POPC     HB       HAL2     0.900000E-01   1.00800           0
       289 MEMB     3        POPC     C2       CTL1     0.170000       12.0110           0
       290 MEMB     3        POPC     HS       HAL1     0.900000E-01   1.00800           0
       291 MEMB     3        POPC     O21      OSL     -0.490000       15.9994           0
       292 MEMB     3        POPC     C21      CL       0.900000       12.0110           0
       293 MEMB     3        POPC     O22      OBL     -0.630000       15.9994           0
       294 MEMB     3        POPC     C22      CTL2    -0.220000       12.0110           0
       295 MEMB     3        POPC     H2R      HAL2     0.900000E-01   1.00800           0
       296 MEMB     3        POPC     H2S      HAL2     0.900000E-01   1.00800           0
       297 MEMB     3        POPC     C3       CTL2     0.800000E-01   12.0110           0
       298 MEMB     3        POPC     HX       HAL2     0.900000E-01   1.00800           0
       299 MEMB     3        POPC     HY       HAL2     0.900000E-01   1.00800           0
       300 MEMB     3        POPC     O31      OSL     -0.490000       15.9994           0
       301 MEMB     3        POPC     C31      CL       0.900000       12.0110           0
       302 MEMB     3        POPC     O32      OBL     -0.630000       15.9994           0
       303 MEMB     3        POPC     C32      CTL2    -0.220000       12.0110           0
       304 MEMB     3        POPC     H2X      HAL2     0.900000E-01   1.00800           0
       305 MEMB     3        POPC     H2Y      HAL2     0.900000E-01   1.00800           0
       306 MEMB     3        POPC     C23      CTL2    -0.180000       12.0110           0
       307 MEMB     3        POPC     H3R      HAL2     0.900000E-01   1.00800           0
       308 MEMB     3        POPC     H3S      HAL2     0.900000E-01   1.00800           0
       309 MEMB     3        POPC     C24      CTL2    -0.180000       12.0110           0
       310 MEMB     3        POPC     H4R      HAL2     0.900000E-01   1.00800           0
       311 MEMB     3        POPC     H4S      HAL2     0.900000E-01   1.00800           0
       312 MEMB     3        POPC     C25      CTL2    -0.180000       12.0110           0
       313 MEMB     3        POPC     H5R      HAL2     0.900000E-01   1.00800           0
       314 MEMB     3        POPC     H5S      HAL2     0.900000E-01   1.00800           0
       315 MEMB     3        POPC     C26      CTL2    -0.180000       12.0110           0
       316 MEMB     3        POPC     H6R      HAL2     0.900000E-01   1.00800           0
       317 MEMB     3        POPC     H6S      HAL2     0.900000E-01   1.00800           0
       318 MEMB     3        POPC     C27      CTL2    -0.180000       12.0110           0
       319 MEMB     3        POPC     H7R      HAL2     0.900000E-01   1.00800           0
       320 MEMB     3        POPC     H7S      HAL2     0.900000E-01   1.00800           0
       321 MEMB     3        POPC     C28      CTL2    -0.180000       12.0110           0
       322 MEMB     3        POPC     H8R      HAL2     0.900000E-01   1.00800           0
       323 MEMB     3        POPC     H8S      HAL2     0.900000E-01   1.00800           0
       324 MEMB     3        POPC     C29      CEL1    -0.150000       12.0110           0
       325 MEMB     3        POPC     H91      HEL1     0.150000       1.00800           0
       326 MEMB     3        POPC     C210     CEL1    -0.150000       12.0110           0
       327 MEMB     3        POPC     H101     HEL1     0.150000       1.00800           0
       328 MEMB     3        POPC     C211     CTL2    -0.180000       12.0110           0
       329 MEMB     3        POPC     H11R     HAL2     0.900000E-01   1.00800           0
       330 MEMB     3        POPC     H11S     HAL2     0.900000E-01   1.00800           0
       331 MEMB     3        POPC     C212     CTL2    -0.180000       12.0110           0
       332 MEMB     3        POPC     H12R     HAL2     0.900000E-01   1.00800           0
       333 MEMB     3        POPC     H12S     HAL2     0.900000E-01   1.00800           0
       334 MEMB     3        POPC     C213     CTL2    -0.180000       12.0110           0
       335 MEMB     3        POPC     H13R     HAL2     0.900000E-01   1.00800           0
       336 MEMB     3        POPC     H13S     HAL2     0.900000E-01   1.00800           0
       337 MEMB     3        POPC     C214     CTL2    -0.180000       12.0110           0
       338 MEMB     3        POPC     H14R     HAL2     0.900000E-01   1.00800           0
       339 MEMB     3        POPC     H14S     HAL2     0.900000E-01   1.00800           0
       340 MEMB     3        POPC     C215     CTL2    -0.180000       12.0110           0
       341 MEMB     3        POPC     H15R     HAL2     0.900000E-01   1.00800           0
       342 MEMB     3        POPC     H15S     HAL2     0.900000E-01   1.00800           0
       343 MEMB     3        POPC     C216     CTL2    -0.180000       12.0110           0
       344 MEMB     3        POPC     H16R     HAL2     0.900000E-01   1.00800           0
       345 MEMB     3        POPC     H16S     HAL2     0.900000E-01   1.00800           0
       346 MEMB     3        POPC     C217     CTL2    -0.180000       12.0110           0
       347 MEMB     3        POPC     H17R     HAL2     0.900000E-01   1.00800           0
       348 MEMB     3        POPC     H17S     HAL2     0.900000E-01   1.00800           0
       349 MEMB     3        POPC     C218     CTL3    -0.270000       12.0110           0
       350 MEMB     3        POPC     H18R     HAL3     0.900000E-01   1.00800           0
       351 MEMB     3        POPC     H18S     HAL3     0.900000E-01   1.00800           0
       352 MEMB     3        POPC     H18T     HAL3     0.900000E-01   1.00800           0
       353 MEMB     3        POPC     C33      CTL2    -0.180000       12.0110           0
       354 MEMB     3        POPC     H3X      HAL2     0.900000E-01   1.00800           0
       355 MEMB     3        POPC     H3Y      HAL2     0.900000E-01   1.00800           0
       356 MEMB     3        POPC     C34      CTL2    -0.180000       12.0110           0
       357 MEMB     3        POPC     H4X      HAL2     0.900000E-01   1.00800           0
       358 MEMB     3        POPC     H4Y      HAL2     0.900000E-01   1.00800           0
       359 MEMB     3        POPC     C35      CTL2    -0.180000       12.0110           0
       360 MEMB     3        POPC     H5X      HAL2     0.900000E-01   1.00800           0
       361 MEMB     3        POPC     H5Y      HAL2     0.900000E-01   1.00800           0
       362 MEMB     3        POPC     C36      CTL2    -0.180000       12.0110           0
       363 MEMB     3        POPC     H6X      HAL2     0.900000E-01   1.00800           0
       364 MEMB     3        POPC     H6Y      HAL2     0.900000E-01   1.00800           0
       365 MEMB     3        POPC     C37      CTL2    -0.180000       12.0110           0
       366 MEMB     3        POPC     H7X      HAL2     0.900000E-01   1.00800           0
       367 MEMB     3        POPC     H7Y      HAL2     0.900000E-01   1.00800           0
       368 MEMB     3        POPC     C38      CTL2    -0.180000       12.0110           0
       369 MEMB     3        POPC     H8X      HAL2     0.900000E-01   1.00800           0
       370 MEMB     3        POPC     H8Y      HAL2     0.900000E-01   1.00800           0
       371 MEMB     3        POPC     C39      CTL2    -0.180000       12.0110           0
       372 MEMB     3        POPC     H9X      HAL2     0.900000E-01   1.00800           0
       373 MEMB     3        POPC     H9Y      HAL2     0.900000E-01   1.00800           0
       374 MEMB     3        POPC     C310     CTL2    -0.180000       12.0110           0
       375 MEMB     3        POPC     H10X     HAL2     0.900000E-01   1.00800           0
       376 MEMB     3        POPC     H10Y     HAL2     0.900000E-01   1.00800           0
       377 MEMB     3        POPC     C311     CTL2    -0.180000       12.0110           0
       378 MEMB     3        POPC     H11X     HAL2     0.900000E-01   1.00800           0
       379 MEMB     3        POPC     H11Y     HAL2     0.900000E-01   1.00800           0
       380 MEMB     3        POPC     C312     CTL2    -0.180000       12.0110           0
       381 MEMB     3        POPC     H12X     HAL2     0.900000E-01   1.00800           0
       382 MEMB     3        POPC     H12Y     HAL2     0.900000E-01   1.00800           0
       383 MEMB     3        POPC     C313     CTL2    -0.180000       12.0110           0
       384 MEMB     3        POPC     H13X     HAL2     0.900000E-01   1.00800           0
       385 MEMB     3        POPC     H13Y     HAL2     0.900000E-01   1.00800           0
       386 MEMB     3        POPC     C314     CTL2    -0.180000       12.0110           0
       387 MEMB     3        POPC     H14X     HAL2     0.900000E-01   1.00800           0
       388 MEMB     3        POPC     H14Y     HAL2     0.900000E-01   1.00800           0
       389 MEMB     3        POPC     C315     CTL2    -0.180000       12.0110           0
       390 MEMB     3        POPC     H15X     HAL2     0.900000E-01   1.00800           0
       391 MEMB     3        POPC     H15Y     HAL2     0.900000E-01   1.00800           0
       392 MEMB     3        POPC     C316     CTL3    -0.270000       12.0110           0
       393 MEMB     3        POPC     H16X     HAL3     0.900000E-01   1.00800           0
       394 MEMB     3        POPC     H16Y     HAL3     0.900000E-01   1.00800           0
       395 MEMB     3        POPC     H16Z     HAL3     0.900000E-01   1.00800           0
       396 MEMB     4        POPC     N        NTL     -0.600000       14.0070           0
       397 MEMB     4        POPC     C12      CTL2    -0.100000       12.0110           0
       398 MEMB     4        POPC     H12A     HL       0.250000       1.00800           0
       399 MEMB     4        POPC     H12B     HL       0.250000       1.00800           0
       400 MEMB     4        POPC     C13      CTL5    -0.350000       12.0110           0
       401 MEMB     4        POPC     H13A     HL       0.250000       1.00800           0
       402 MEMB     4        POPC     H13B     HL       0.250000       1.00800           0
       403 MEMB     4        POPC     H13C     HL       0.250000       1.00800           0
       404 MEMB     4        POPC     C14      CTL5    -0.350000       12.0110           0
       405 MEMB     4        POPC     H14A     HL       0.250000       1.00800           0
       406 MEMB     4        POPC     H14B     HL       0.250000       1.00800           0
       407 MEMB     4        POPC     H14C     HL       0.250000       1.00800           0
       408 MEMB     4        POPC     C15      CTL5    -0.350000       12.0110           0
       409 MEMB     4        POPC     H15A     HL       0.250000       1.00800           0
       410 MEMB     4        POPC     H15B     HL       0.250000       1.00800           0
       411 MEMB     4        POPC     H15C     HL       0.250000       1.00800           0
       412 MEMB     4        POPC     C11      CTL2    -0.800000E-01   12.0110           0
       413 MEMB     4        POPC     H11A     HAL2     0.900000E-01   1.00800           0
       414 MEMB     4        POPC     H11B     HAL2     0.900000E-01   1.00800           0
       415 MEMB     4        POPC     P        PL        1.50000       30.9740           0
       416 MEMB     4        POPC     O13      O2L     -0.780000       15.9994           0
       417 MEMB     4        POPC     O14      O2L     -0.780000       15.9994           0
       418 MEMB     4        POPC     O12      OSLP    -0.570000       15.9994           0
       419 MEMB     4        POPC     O11      OSLP    -0.570000       15.9994           0
       420 MEMB     4        POPC     C1       CTL2    -0.800000E-01   12.0110           0
       421 MEMB     4        POPC     HA       HAL2     0.900000E-01   1.00800           0
       422 MEMB     4        POPC     HB       HAL2     0.900000E-01   1.00800           0
       423 MEMB     4        POPC     C2       CTL1     0.170000       12.0110           0
       424 MEMB     4        POPC     HS       HAL1     0.900000E-01   1.00800           0
       425 MEMB     4        POPC     O21      OSL     -0.490000       15.9994           0
       426 MEMB     4        POPC     C21      CL       0.900000       12.0110           0
       427 MEMB     4        POPC     O22      OBL     -0.630000       15.9994           0
       428 MEMB     4        POPC     C22      CTL2    -0.220000       12.0110           0
       429 MEMB     4        POPC     H2R      HAL2     0.900000E-01   1.00800           0
       430 MEMB     4        POPC     H2S      HAL2     0.900000E-01   1.00800           0
       431 MEMB     4        POPC     C3       CTL2     0.800000E-01   12.0110           0
       432 MEMB     4        POPC     HX       HAL2     0.900000E-01   1.00800           0
       433 MEMB     4        POPC     HY       HAL2     0.900000E-01   1.00800           0
       434 MEMB     4        POPC     O31      OSL     -0.490000       15.9994           0
       435 MEMB     4        POPC     C31      CL       0.900000       12.0110           0
       436 MEMB     4        POPC     O32      OBL     -0.630000       15.9994           0
       437 MEMB     4        POPC     C32      CTL2    -0.220000       12.0110           0
       438 MEMB     4        POPC     H2X      HAL2     0.900000E-01   1.00800           0
       439 MEMB     4        POPC     H2Y      HAL2     0.900000E-01   1.00800           0
       440 MEMB     4        POPC     C23      CTL2    -0.180000       12.0110           0
       441 MEMB     4        POPC     H3R      HAL2     0.900000E-01   1.00800           0
       442 MEMB     4        POPC     H3S      HAL2     0.900000E-01   1.00800           0
       443 MEMB     4        POPC     C24      CTL2    -0.180000       12.0110           0
       444 MEMB     4        POPC     H4R      HAL2     0.900000E-01   1.00800           0
       445 MEMB     4        POPC     H4S      HAL2     0.900000E-01   1.00800           0
       446 MEMB     4        POPC     C25      CTL2    -0.180000       12.0110           0
       447 MEMB     4        POPC     H5R      HAL2     0.900000E-01   1.00800           0
       448 MEMB     4        POPC     H5S      HAL2     0.900000E-01   1.00800           0
       449 MEMB     4        POPC     C26      CTL2    -0.180000       12.0110           0
       450 MEMB     4        POPC     H6R      HAL2     0.900000E-01   1.00800           0
       451 MEMB     4        POPC     H6S      HAL2     0.900000E-01   1.00800           0
       452 MEMB     4        POPC     C27      CTL2    -0.180000       12.0110           0
       453 MEMB     4        POPC     H7R      HAL2     0.900000E-01   1.00800           0
       454 MEMB     4        POPC     H7S      HAL2     0.900000E-01   1.00800           0
       455 MEMB     4        POPC     C28      CTL2    -0.180000       12.0110           0
       456 MEMB     4        POPC     H8R      HAL2     0.900000E-01   1.00800           0
       457 MEMB     4        POPC     H8S      HAL2     0.900000E-01   1.00800           0
       458 MEMB     4        POPC     C29      CEL1    -0.150000       12.0110           0
       459 MEMB     4        POPC     H91      HEL1     0.150000       1.00800           0
       460 MEMB     4        POPC     C210     CEL1    -0.150000       12.0110           0
       461 MEMB     4        POPC     H101     HEL1     0.150000       1.00800           0
       462 MEMB     4        POPC     C211     CTL2    -0.180000       12.0110           0
       463 MEMB     4        POPC     H11R     HAL2     0.900000E-01   1.00800           0
       464 MEMB     4        POPC     H11S     HAL2     0.900000E-01   1.00800           0
       465 MEMB     4        POPC     C212     CTL2    -0.180000       12.0110           0
       466 MEMB     4        POPC     H12R     HAL2     0.900000E-01   1.00800           0
       467 MEMB     4        POPC     H12S     HAL2     0.900000E-01   1.00800           0
       468 MEMB     4        POPC     C213     CTL2    -0.180000       12.0110           0
       469 MEMB     4        POPC     H13R     HAL2     0.900000E-01   1.00800           0
       470 MEMB     4        POPC     H13S     HAL2     0.900000E-01   1.00800           0
       471 MEMB     4        POPC     C214     CTL2    -0.180000       12.0110           0
       472 MEMB     4        POPC     H14R     HAL2     0.900000E-01   1.00800           0
       473 MEMB     4        POPC     H14S     HAL2     0.900000E-01   1.00800           0
       474 MEMB     4        POPC     C215     CTL2    -0.180000       12.0110           0
       475 MEMB     4        POPC     H15R     HAL2     0.900000E-01   1.00800           0
       476 MEMB     4        POPC     H15S     HAL2     0.900000E-01   1.00800           0
       477 MEMB     4        POPC     C216     CTL2    -0.180000       12.0110           0
       478 MEMB     4        POPC     H16R     HAL2     0.900000E-01   1.00800           0
       479 MEMB     4        POPC     H16S     HAL2     0.900000E-01   1.00800           0
       480 MEMB     4        POPC     C217     CTL2    -0.180000       12.0110           0
       481 MEMB     4        POPC     H17R     HAL2     0.900000E-01   1.00800           0
       482 MEMB     4        POPC     H17S     HAL2     0.900000E-01   1.00800           0
       483 MEMB     4        POPC     C218     CTL3    -0.270000       12.0110           0
       484 MEMB     4        POPC     H18R     HAL3     0.900000E-01   1.00800           0
       485 MEMB     4        POPC     H18S     HAL3     0.900000E-01   1.00800           0
       486 MEMB     4        POPC     H18T     HAL3     0.900000E-01   1.00800           0
       487 MEMB     4        POPC     C33      CTL2    -0.180000       12.0110           0
       488 MEMB     4        POPC     H3X      HAL2     0.900000E-01   1.00800           0
       489 MEMB     4        POPC     H3Y      HAL2     0.900000E-01   1.00800           0
       490 MEMB     4        POPC     C34      CTL2    -0.180000       12.0110           0
       491 MEMB     4        POPC     H4X      HAL2     0.900000E-01   1.00800           0
       492 MEMB     4        POPC     H4Y      HAL2     0.900000E-01   1.00800           0
       493 MEMB     4        POPC     C35      CTL2    -0.180000       12.0110           0
       494 MEMB     4        POPC     H5X      HAL2     0.900000E-01   1.00800           0
       495 MEMB     4        POPC     H5Y      HAL2     0.900000E-01   1.00800           0
       496 MEMB     4        POPC     C36      CTL2    -0.180000       12.0110           0
       497 MEMB     4        POPC     H6X      HAL2     0.900000E-01   1.00800           0
       498 MEMB     4        POPC     H6Y      HAL2     0.900000E-01   1.00800           0
       499 MEMB     4        POPC     C37      CTL2    -0.180000       12.0110           0
       500 MEMB     4        POPC     H7X      HAL2     0.900000E-01   1.00800           0
       501 MEMB     4        POPC     H7Y      HAL2     0.900000E-01   1.00800           0
       502 MEMB     4        POPC     C38      CTL2    -0.180000       12.0110           0
       503 MEMB     4        POPC     H8X      HAL2     0.900000E-01   1.00800           0
       504 MEMB     4        POPC     H8Y      HAL2     0.900000E-01   1.00800           0
       505 MEMB     4        POPC     C39      CTL2    -0.180000       12.0110           0
       506 MEMB     4        POPC     H9X      HAL2     0.900000E-01   1.00800           0
       507 MEMB     4        POPC     H9Y      HAL2     0.900000E-01   1.00800           0
       508 MEMB     4        POPC     C310     CTL2    -0.180000       12.0110           0
       509 MEMB     4        POPC     H10X     HAL2     0.900000E-01   1.00800           0
       510 MEMB     4        POPC     H10Y     HAL2     0.900000E-01   1.00800           0
       511 MEMB     4        POPC     C311     CTL2    -0.180000       12.0110           0
       512 MEMB     4        POPC     H11X     HAL2     0.900000E-01   1.00800           0
       513 MEMB     4        POPC     H11Y     HAL2     0.900000E-01   1.00800           0
       514 MEMB     4        POPC     C312     CTL2    -0.180000       12.0110           0
       515 MEMB     4        POPC     H12X     HAL2     0.900000E-01   1.00800           0
       516 MEMB     4        POPC     H12Y     HAL2     0.900000E-01   1.00800           0
       517 MEMB     4        POPC     C313     CTL2    -0.180000       12.0110           0
       518 MEMB     4        POPC     H13X     HAL2     0.900000E-01   1.00800           0
       519 MEMB     4        POPC     H13Y     HAL2     0.900000E-01   1.00800           0
       520 MEMB     4        POPC     C314     CTL2    -0.180000       12.0110           0
       521 MEMB     4        POPC     H14X     HAL2     0.900000E-01   1.00800           0
       522 MEMB     4        POPC     H14Y     HAL2     0.900000E-01   1.00800           0
       523 MEMB     4        POPC     C315     CTL2    -0.180000       12.0110           0
       524 MEMB     4        POPC     H15X     HAL2     0.900000E-01   1.00800           0
       525 MEMB     4        POPC     H15Y     HAL2     0.900000E-01   1.00800           0
       526 MEMB     4        POPC     C316     CTL3    -0.270000       12.0110           0
       527 MEMB     4        POPC     H16X     HAL3     0.900000E-01   1.00800           0
       528 MEMB     4        POPC     H16Y     HAL3     0.900000E-01   1.00800           0
       529 MEMB     4        POPC     H16Z     HAL3     0.900000E-01   1.00800           0
       530 MEMB     5        POPC     N        NTL     -0.600000       14.0070           0
       531 MEMB     5        POPC     C12      CTL2    -0.100000       12.0110           0
       532 MEMB     5        POPC     H12A     HL       0.250000       1.00800           0
       533 MEMB     5        POPC     H12B     HL       0.250000       1.00800           0
       534 MEMB     5        POPC     C13      CTL5    -0.350000       12.0110           0
       535 MEMB     5        POPC     H13A     HL       0.250000       1.00800           0
       536 MEMB     5        POPC     H13B     HL       0.250000       1.00800           0
       537 MEMB     5        POPC     H13C     HL       0.250000       1.00800           0
       538 MEMB     5        POPC     C14      CTL5    -0.350000       12.0110           0
       539 MEMB     5        POPC     H14A     HL       0.250000       1.00800           0
       540 MEMB     5        POPC     H14B     HL       0.250000       1.00800           0
       541 MEMB     5        POPC     H14C     HL       0.250000       1.00800           0
       542 MEMB     5        POPC     C15      CTL5    -0.350000       12.0110           0
       543 MEMB     5        POPC     H15A     HL       0.250000       1.00800           0
       544 MEMB     5        POPC     H15B     HL       0.250000       1.00800           0
       545 MEMB     5        POPC     H15C     HL       0.250000       1.00800           0
       546 MEMB     5        POPC     C11      CTL2    -0.800000E-01   12.0110           0
       547 MEMB     5        POPC     H11A     HAL2     0.900000E-01   1.00800           0
       548 MEMB     5        POPC     H11B     HAL2     0.900000E-01   1.00800           0
       549 MEMB     5        POPC     P        PL        1.50000       30.9740           0
       550 MEMB     5        POPC     O13      O2L     -0.780000       15.9994           0
       551 MEMB     5        POPC     O14      O2L     -0.780000       15.9994           0
       552 MEMB     5        POPC     O12      OSLP    -0.570000       15.9994           0
       553 MEMB     5        POPC     O11      OSLP    -0.570000       15.9994           0
       554 MEMB     5        POPC     C1       CTL2    -0.800000E-01   12.0110           0
       555 MEMB     5        POPC     HA       HAL2     0.900000E-01   1.00800           0
       556 MEMB     5        POPC     HB       HAL2     0.900000E-01   1.00800           0
       557 MEMB     5        POPC     C2       CTL1     0.170000       12.0110           0
       558 MEMB     5        POPC     HS       HAL1     0.900000E-01   1.00800           0
       559 MEMB     5        POPC     O21      OSL     -0.490000       15.9994           0
       560 MEMB     5        POPC     C21      CL       0.900000       12.0110           0
       561 MEMB     5        POPC     O22      OBL     -0.630000       15.9994           0
       562 MEMB     5        POPC     C22      CTL2    -0.220000       12.0110           0
       563 MEMB     5        POPC     H2R      HAL2     0.900000E-01   1.00800           0
       564 MEMB     5        POPC     H2S      HAL2     0.900000E-01   1.00800           0
       565 MEMB     5        POPC     C3       CTL2     0.800000E-01   12.0110           0
       566 MEMB     5        POPC     HX       HAL2     0.900000E-01   1.00800           0
       567 MEMB     5        POPC     HY       HAL2     0.900000E-01   1.00800           0
       568 MEMB     5        POPC     O31      OSL     -0.490000       15.9994           0
       569 MEMB     5        POPC     C31      CL       0.900000       12.0110           0
       570 MEMB     5        POPC     O32      OBL     -0.630000       15.9994           0
       571 MEMB     5        POPC     C32      CTL2    -0.220000       12.0110           0
       572 MEMB     5        POPC     H2X      HAL2     0.900000E-01   1.00800           0
       573 MEMB     5        POPC     H2Y      HAL2     0.900000E-01   1.00800           0
       574 MEMB     5        POPC     C23      CTL2    -0.180000       12.0110           0
       575 MEMB     5        POPC     H3R      HAL2     0.900000E-01   1.00800           0
       576 MEMB     5        POPC     H3S      HAL2     0.900000E-01   1.00800           0
       577 MEMB     5        POPC     C24      CTL2    -0.180000       12.0110           0
       578 MEMB     5        POPC     H4R      HAL2     0.900000E-01   1.00800           0
       579 MEMB     5        POPC     H4S      HAL2     0.900000E-01   1.00800           0
       580 MEMB     5        POPC     C25      CTL2    -0.180000       12.0110           0
       581 MEMB     5        POPC     H5R      HAL2     0.900000E-01   1.00800           0
       582 MEMB     5        POPC     H5S      HAL2     0.900000E-01   1.00800           0
       583 MEMB     5        POPC     C26      CTL2    -0.180000       12.0110           0
       584 MEMB     5        POPC     H6R      HAL2     0.900000E-01   1.00800           0
       585 MEMB     5        POPC     H6S      HAL2     0.900000E-01   1.00800           0
       586 MEMB     5        POPC     C27      CTL2    -0.180000       12.0110           0
       587 MEMB     5        POPC     H7R      HAL2     0.900000E-01   1.00800           0
       588 MEMB     5        POPC     H7S      HAL2     0.900000E-01   1.00800           0
       589 MEMB     5        POPC     C28      CTL2    -0.180000       12.0110           0
       590 MEMB     5        POPC     H8R      HAL2     0.900000E-01   1.00800           0
       591 MEMB     5        POPC     H8S      HAL2     0.900000E-01   1.00800           0
       592 MEMB     5        POPC     C29      CEL1    -0.150000       12.0110           0
       593 MEMB     5        POPC     H91      HEL1     0.150000       1.00800           0
       594 MEMB     5        POPC     C210     CEL1    -0.150000       12.0110           0
       595 MEMB     5        POPC     H101     HEL1     0.150000       1.00800           0
       596 MEMB     5        POPC     C211     CTL2    -0.180000       12.0110           0
       597 MEMB     5        POPC     H11R     HAL2     0.900000E-01   1.00800           0
       598 MEMB     5        POPC     H11S     HAL2     0.900000E-01   1.00800           0
       599 MEMB     5        POPC     C212     CTL2    -0.180000       12.0110           0
       600 MEMB     5        POPC     H12R     HAL2     0.900000E-01   1.00800           0
       601 MEMB     5        POPC     H12S     HAL2     0.900000E-01   1.00800           0
       602 MEMB     5        POPC     C213     CTL2    -0.180000       12.0110           0
       603 MEMB     5        POPC     H13R     HAL2     0.900000E-01   1.00800           0
       604 MEMB     5        POPC     H13S     HAL2     0.900000E-01   1.00800           0
       605 MEMB     5        POPC     C214     CTL2    -0.180000       12.0110           0
       606 MEMB     5        POPC     H14R     HAL2     0.900000E-01   1.00800           0
       607 MEMB     5        POPC     H14S     HAL2     0.900000E-01   1.00800           0
       608 MEMB     5        POPC     C215     CTL2    -0.180000       12.0110           0
       609 MEMB     5        POPC     H15R     HAL2     0.900000E-01   1.00800           0
       610 MEMB     5        POPC     H15S     HAL2     0.900000E-01   1.00800           0
       611 MEMB     5        POPC     C216     CTL2    -0.180000       12.0110           0
       612 MEMB     5        POPC     H16R     HAL2     0.900000E-01   1.00800           0
       613 MEMB     5        POPC     H16S     HAL2     0.900000E-01   1.00800           0
       614 MEMB     5        POPC     C217     CTL2    -0.180000       12.0110           0
       615 MEMB     5        POPC     H17R     HAL2     0.900000E-01   1.00800           0
       616 MEMB     5        POPC     H17S     HAL2     0.900000E-01   1.00800           0
       617 MEMB     5        POPC     C218     CTL3    -0.270000       12.0110           0
       618 MEMB     5        POPC     H18R     HAL3     0.900000E-01   1.00800           0
       619 MEMB     5        POPC     H18S     HAL3     0.900000E-01   1.00800           0
       620 MEMB     5        POPC     H18T     HAL3     0.900000E-01   1.00800           0
       621 MEMB     5        POPC     C33      CTL2    -0.180000       12.0110           0
       622 MEMB     5        POPC     H3X      HAL2     0.900000E-01   1.00800           0
       623 MEMB     5        POPC     H3Y      HAL2     0.900000E-01   1.00800           0
       624 MEMB     5        POPC     C34      CTL2    -0.180000       12.0110           0
       625 MEMB     5        POPC     H4X      HAL2     0.900000E-01   1.00800           0
       626 MEMB     5        POPC     H4Y      HAL2     0.900000E-01   1.00800           0
       627 MEMB     5        POPC     C35      CTL2    -0.180000       12.0110           0
       628 MEMB     5        POPC     H5X      HAL2     0.900000E-01   1.00800           0
       629 MEMB     5        POPC     H5Y      HAL2     0.900000E-01   1.00800           0
       630 MEMB     5        POPC     C36      CTL2    -0.180000       12.0110           0
       631 MEMB     5        POPC     H6X      HAL2     0.900000E-01   1.00800           0
       632 MEMB     5        POPC     H6Y      HAL2     0.900000E-01   1.00800           0
       633 MEMB     5        POPC     C37      CTL2    -0.180000       12.0110           0
       634 MEMB     5        POPC     H7X      HAL2     0.900000E-01   1.00800           0
       635 MEMB     5        POPC     H7Y      HAL2     0.900000E-01   1.00800           0
       636 MEMB     5        POPC     C38      CTL2    -0.180000       12.0110           0
       637 MEMB     5        POPC     H8X      HAL2     0.900000E-01   1.00800           0
       638 MEMB     5        POPC     H8Y      HAL2     0.900000E-01   1.00800           0
       639 MEMB     5        POPC     C39      CTL2    -0.180000       12.0110           0
       640 MEMB     5        POPC     H9X      HAL2     0.900000E-01   1.00800           0
       641 MEMB     5        POPC     H9Y      HAL2     0.900000E-01   1.00800           0
       642 MEMB     5        POPC     C310     CTL2    -0.180000       12.0110           0
       643 MEMB     5        POPC     H10X     HAL2     0.900000E-01   1.00800           0
       644 MEMB     5        POPC     H10Y     HAL2     0.900000E-01   1.00800           0
       645 MEMB     5        POPC     C311     CTL2    -0.180000       12.0110           0
       646 MEMB     5        POPC     H11X     HAL2     0.900000E-01   1.00800           0
       647 MEMB     5        POPC     H11Y     HAL2     0.900000E-01   1.00800           0
       648 MEMB     5        POPC     C312     CTL2    -0.180000       12.0110           0
       649 MEMB     5        POPC     H12X     HAL2     0.900000E-01   1.00800           0
       650 MEMB     5        POPC     H12Y     HAL2     0.900000E-01   1.00800           0
       651 MEMB     5        POPC     C313     CTL2    -0.180000       12.0110           0
       652 MEMB     5        POPC     H13X     HAL2     0.900000E-01   1.00800           0
       653 MEMB     5        POPC     H13Y     HAL2     0.900000E-01   1.00800           0
       654 MEMB     5        POPC     C314     CTL2    -0.180000       12.0110           0
       655 MEMB     5        POPC     H14X     HAL2     0.900000E-01   1.00800           0
       656 MEMB     5        POPC     H14Y     HAL2     0.900000E-01   1.00800           0
       657 MEMB     5        POPC     C315     CTL2    -0.180000       12.0110           0
       658 MEMB     5        POPC     H15X     HAL2     0.900000E-01   1.00800           0
       659 MEMB     5        POPC     H15Y     HAL2     0.900000E-01   1.00800           0
       660 MEMB     5        POPC     C316     CTL3    -0.270000       12.0110           0
       661 MEMB     5        POPC     H16X     HAL3     0.900000E-01   1.00800           0
       662 MEMB     5        POPC     H16Y     HAL3     0.900000E-01   1.00800           0
       663 MEMB     5        POPC     H16Z     HAL3     0.900000E-01   1.00800           0
       664 MEMB     6        POPC     N        NTL     -0.600000       14.0070           0
       665 MEMB     6        POPC     C12      CTL2    -0.100000       12.0110           0
       666 MEMB     6        POPC     H12A     HL       0.250000       1.00800           0
       667 MEMB     6        POPC     H12B     HL       0.250000       1.00800           0
       668 MEMB     6        POPC     C13      CTL5    -0.350000       12.0110           0
       669 MEMB     6        POPC     H13A     HL       0.250000       1.00800           0
       670 MEMB     6        POPC     H13B     HL       0.250000       1.00800           0
       671 MEMB     6        POPC     H13C     HL       0.250000       1.00800           0
       672 MEMB     6        POPC     C14      CTL5    -0.350000       12.0110           0
       673 MEMB     6        POPC     H14A     HL       0.250000       1.00800           0
       674 MEMB     6        POPC     H14B     HL       0.250000       1.00800           0
       675 MEMB     6        POPC     H14C     HL       0.250000       1.00800           0
       676 MEMB     6        POPC     C15      CTL5    -0.350000       12.0110           0
       677 MEMB     6        POPC     H15A     HL       0.250000       1.00800           0
       678 MEMB     6        POPC     H15B     HL       0.250000       1.00800           0
       679 MEMB     6        POPC     H15C     HL       0.250000       1.00800           0
       680 MEMB     6        POPC     C11      CTL2    -0.800000E-01   12.0110           0
       681 MEMB     6        POPC     H11A     HAL2     0.900000E-01   1.00800           0
       682 MEMB     6        POPC     H11B     HAL2     0.900000E-01   1.00800           0
       683 MEMB     6        POPC     P        PL        1.50000       30.9740           0
       684 MEMB     6        POPC     O13      O2L     -0.780000       15.9994           0
       685 MEMB     6        POPC     O14      O2L     -0.780000       15.9994           0
       686 MEMB     6        POPC     O12      OSLP    -0.570000       15.9994           0
       687 MEMB     6        POPC     O11      OSLP    -0.570000       15.9994           0
       688 MEMB     6        POPC     C1       CTL2    -0.800000E-01   12.0110           0
       689 MEMB     6        POPC     HA       HAL2     0.900000E-01   1.00800           0
       690 MEMB     6        POPC     HB       HAL2     0.900000E-01   1.00800           0
       691 MEMB     6        POPC     C2       CTL1     0.170000       12.0110           0
       692 MEMB     6        POPC     HS       HAL1     0.900000E-01   1.00800           0
       693 MEMB     6        POPC     O21      OSL     -0.490000       15.9994           0
       694 MEMB     6        POPC     C21      CL       0.900000       12.0110           0
       695 MEMB     6        POPC     O22      OBL     -0.630000       15.9994           0
       696 MEMB     6        POPC     C22      CTL2    -0.220000       12.0110           0
       697 MEMB     6        POPC     H2R      HAL2     0.900000E-01   1.00800           0
       698 MEMB     6        POPC     H2S      HAL2     0.900000E-01   1.00800           0
       699 MEMB     6        POPC     C3       CTL2     0.800000E-01   12.0110           0
       700 MEMB     6        POPC     HX       HAL2     0.900000E-01   1.00800           0
       701 MEMB     6        POPC     HY       HAL2     0.900000E-01   1.00800           0
       702 MEMB     6        POPC     O31      OSL     -0.490000       15.9994           0
       703 MEMB     6        POPC     C31      CL       0.900000       12.0110           0
       704 MEMB     6        POPC     O32      OBL     -0.630000       15.9994           0
       705 MEMB     6        POPC     C32      CTL2    -0.220000       12.0110           0
       706 MEMB     6        POPC     H2X      HAL2     0.900000E-01   1.00800           0
       707 MEMB     6        POPC     H2Y      HAL2     0.900000E-01   1.00800           0
       708 MEMB     6        POPC     C23      CTL2    -0.180000       12.0110           0
       709 MEMB     6        POPC     H3R      HAL2     0.900000E-01   1.00800           0
       710 MEMB     6        POPC     H3S      HAL2     0.900000E-01   1.00800           0
       711 MEMB     6        POPC     C24      CTL2    -0.180000       12.0110           0
       712 MEMB     6        POPC     H4R      HAL2     0.900000E-01   1.00800           0
       713 MEMB     6        POPC     H4S      HAL2     0.900000E-01   1.00800           0
       714 MEMB     6        POPC     C25      CTL2    -0.180000       12.0110           0
       715 MEMB     6        POPC     H5R      HAL2     0.900000E-01   1.00800           0
       716 MEMB     6        POPC     H5S      HAL2     0.900000E-01   1.00800           0
       717 MEMB     6        POPC     C26      CTL2    -0.180000       12.0110           0
       718 MEMB     6        POPC     H6R      HAL2     0.900000E-01   1.00800           0
       719 MEMB     6        POPC     H6S      HAL2     0.900000E-01   1.00800           0
       720 MEMB     6        POPC     C27      CTL2    -0.180000       12.0110           0
       721 MEMB     6        POPC     H7R      HAL2     0.900000E-01   1.00800           0
       722 MEMB     6        POPC     H7S      HAL2     0.900000E-01   1.00800           0
       723 MEMB     6        POPC     C28      CTL2    -0.180000       12.0110           0
       724 MEMB     6        POPC     H8R      HAL2     0.900000E-01   1.00800           0
       725 MEMB     6        POPC     H8S      HAL2     0.900000E-01   1.00800           0
       726 MEMB     6        POPC     C29      CEL1    -0.150000       12.0110           0
       727 MEMB     6        POPC     H91      HEL1     0.150000       1.00800           0
       728 MEMB     6        POPC     C210     CEL1    -0.150000       12.0110           0
       729 MEMB     6        POPC     H101     HEL1     0.150000       1.00800           0
       730 MEMB     6        POPC     C211     CTL2    -0.180000       12.0110           0
       731 MEMB     6        POPC     H11R     HAL2     0.900000E-01   1.00800           0
       732 MEMB     6        POPC     H11S     HAL2     0.900000E-01   1.00800           0
       733 MEMB     6        POPC     C212     CTL2    -0.180000       12.0110           0
       734 MEMB     6        POPC     H12R     HAL2     0.900000E-01   1.00800           0
       735 MEMB     6        POPC     H12S     HAL2     0.900000E-01   1.00800           0
       736 MEMB     6        POPC     C213     CTL2    -0.180000       12.0110           0
       737 MEMB     6        POPC     H13R     HAL2     0.900000E-01   1.00800           0
       738 MEMB     6        POPC     H13S     HAL2     0.900000E-01   1.00800           0
       739 MEMB     6        POPC     C214     CTL2    -0.180000       12.0110           0
       740 MEMB     6        POPC     H14R     HAL2     0.900000E-01   1.00800           0
       741 MEMB     6        POPC     H14S     HAL2     0.900000E-01   1.00800           0
       742 MEMB     6        POPC     C215     CTL2    -0.180000       12.0110           0
       743 MEMB     6        POPC     H15R     HAL2     0.900000E-01   1.00800           0
       744 MEMB     6        POPC     H15S     HAL2     0.900000E-01   1.00800           0
       745 MEMB     6        POPC     C216     CTL2    -0.180000       12.0110           0
       746 MEMB     6        POPC     H16R     HAL2     0.900000E-01   1.00800           0
       747 MEMB     6        POPC     H16S     HAL2     0.900000E-01   1.00800           0
       748 MEMB     6        POPC     C217     CTL2    -0.180000       12.0110           0
       749 MEMB     6        POPC     H17R     HAL2     0.900000E-01   1.00800           0
       750 MEMB     6        POPC     H17S     HAL2     0.900000E-01   1.00800           0
       751 MEMB     6        POPC     C218     CTL3    -0.270000       12.0110           0
       752 MEMB     6        POPC     H18R     HAL3     0.900000E-01   1.00800           0
       753 MEMB     6        POPC     H18S     HAL3     0.900000E-01   1.00800           0
       754 MEMB     6        POPC     H18T     HAL3     0.900000E-01   1.00800           0
       755 MEMB     6        POPC     C33      CTL2    -0.180000       12.0110           0
       756 MEMB     6        POPC     H3X      HAL2     0.900000E-01   1.00800           0
       757 MEMB     6        POPC     H3Y      HAL2     0.900000E-01   1.00800           0
       758 MEMB     6        POPC     C34      CTL2    -0.180000       12.0110           0
       759 MEMB     6        POPC     H4X      HAL2     0.900000E-01   1.00800           0
       760 MEMB     6        POPC     H4Y      HAL2     0.900000E-01   1.00800           0
       761 MEMB     6        POPC     C35      CTL2    -0.180000       12.0110           0
       762 MEMB     6        POPC     H5X      HAL2     0.900000E-01   1.00800           0
       763 MEMB     6        POPC     H5Y      HAL2     0.900000E-01   1.00800           0
       764 MEMB     6        POPC     C36      CTL2    -0.180000       12.0110           0
       765 MEMB     6        POPC     H6X      HAL2     0.900000E-01   1.00800           0
       766 MEMB     6        POPC     H6Y      HAL2     0.900000E-01   1.00800           0
       767 MEMB     6        POPC     C37      CTL2    -0.180000       12.0110           0
       768 MEMB     6        POPC     H7X      HAL2     0.900000E-01   1.00800           0
       769 MEMB     6        POPC     H7Y      HAL2     0.900000E-01   1.00800           0
       770 MEMB     6        POPC     C38      CTL2    -0.180000       12.0110           0
       771 MEMB     6        POPC     H8X      HAL2     0.900000E-01   1.00800           0
       772 MEMB     6        POPC     H8Y      HAL2     0.900000E-01   1.00800           0
       773 MEMB     6        POPC     C39      CTL2    -0.180000       12.0110           0
       774 MEMB     6        POPC     H9X      HAL2     0.900000E-01   1.00800           0
       775 MEMB     6        POPC     H9Y      HAL2     0.900000E-01   1.00800           0
       776 MEMB     6        POPC     C310     CTL2    -0.180000       12.0110           0
       777 MEMB     6        POPC     H10X     HAL2     0.900000E-01   1.00800           0
       778 MEMB     6        POPC     H10Y     HAL2     0.900000E-01   1.00800           0
       779 MEMB     6        POPC     C311     CTL2    -0.180000       12.0110           0
       780 MEMB     6        POPC     H11X     HAL2     0.900000E-01   1.00800           0
       781 MEMB     6        POPC     H11Y     HAL2     0.900000E-01   1.00800           0
       782 MEMB     6        POPC     C312     CTL2    -0.180000       12.0110           0
       783 MEMB     6        POPC     H12X     HAL2     0.900000E-01   1.00800           0
       784 MEMB     6        POPC     H12Y     HAL2     0.900000E-01   1.00800           0
       785 MEMB     6        POPC     C313     CTL2    -0.180000       12.0110           0
       786 MEMB     6        POPC     H13X     HAL2     0.900000E-01   1.00800           0
       787 MEMB     6        POPC     H13Y     HAL2     0.900000E-01   1.00800           0
       788 MEMB     6        POPC     C314     CTL2    -0.180000       12.0110           0
       789 MEMB     6        POPC     H14X     HAL2     0.900000E-01   1.00800           0
       790 MEMB     6        POPC     H14Y     HAL2     0.900000E-01   1.00800           0
       791 MEMB     6        POPC     C315     CTL2    -0.180000       12.0110           0
       792 MEMB     6        POPC     H15X     HAL2     0.900000E-01   1.00800           0
       793 MEMB     6        POPC     H15Y     HAL2     0.900000E-01   1.00800           0
       794 MEMB     6        POPC     C316     CTL3    -0.270000       12.0110           0
       795 MEMB     6        POPC     H16X     HAL3     0.900000E-01   1.00800           0
       796 MEMB     6        POPC     H16Y     HAL3     0.900000E-01   1.00800           0
       797 MEMB     6        POPC     H16Z     HAL3     0.900000E-01   1.00800           0
       798 MEMB     7        POPC     N        NTL     -0.600000       14.0070           0
       799 MEMB     7        POPC     C12      CTL2    -0.100000       12.0110           0
       800 MEMB     7        POPC     H12A     HL       0.250000       1.00800           0
       801 MEMB     7        POPC     H12B     HL       0.250000       1.00800           0
       802 MEMB     7        POPC     C13      CTL5    -0.350000       12.0110           0
       803 MEMB     7        POPC     H13A     HL       0.250000       1.00800           0
       804 MEMB     7        POPC     H13B     HL       0.250000       1.00800           0
       805 MEMB     7        POPC     H13C     HL       0.250000       1.00800           0
       806 MEMB     7        POPC     C14      CTL5    -0.350000       12.0110           0
       807 MEMB     7        POPC     H14A     HL       0.250000       1.00800           0
       808 MEMB     7        POPC     H14B     HL       0.250000       1.00800           0
       809 MEMB     7        POPC     H14C     HL       0.250000       1.00800           0
       810 MEMB     7        POPC     C15      CTL5    -0.350000       12.0110           0
       811 MEMB     7        POPC     H15A     HL       0.250000       1.00800           0
       812 MEMB     7        POPC     H15B     HL       0.250000       1.00800           0
       813 MEMB     7        POPC     H15C     HL       0.250000       1.00800           0
       814 MEMB     7        POPC     C11      CTL2    -0.800000E-01   12.0110           0
       815 MEMB     7        POPC     H11A     HAL2     0.900000E-01   1.00800           0
       816 MEMB     7        POPC     H11B     HAL2     0.900000E-01   1.00800           0
       817 MEMB     7        POPC     P        PL        1.50000       30.9740           0
       818 MEMB     7        POPC     O13      O2L     -0.780000       15.9994           0
       819 MEMB     7        POPC     O14      O2L     -0.780000       15.9994           0
       820 MEMB     7        POPC     O12      OSLP    -0.570000       15.9994           0
       821 MEMB     7        POPC     O11      OSLP    -0.570000       15.9994           0
       822 MEMB     7        POPC     C1       CTL2    -0.800000E-01   12.0110           0
       823 MEMB     7        POPC     HA       HAL2     0.900000E-01   1.00800           0
       824 MEMB     7        POPC     HB       HAL2     0.900000E-01   1.00800           0
       825 MEMB     7        POPC     C2       CTL1     0.170000       12.0110           0
       826 MEMB     7        POPC     HS       HAL1     0.900000E-01   1.00800           0
       827 MEMB     7        POPC     O21      OSL     -0.490000       15.9994           0
       828 MEMB     7        POPC     C21      CL       0.900000       12.0110           0
       829 MEMB     7        POPC     O22      OBL     -0.630000       15.9994           0
       830 MEMB     7        POPC     C22      CTL2    -0.220000       12.0110           0
       831 MEMB     7        POPC     H2R      HAL2     0.900000E-01   1.00800           0
       832 MEMB     7        POPC     H2S      HAL2     0.900000E-01   1.00800           0
       833 MEMB     7        POPC     C3       CTL2     0.800000E-01   12.0110           0
       834 MEMB     7        POPC     HX       HAL2     0.900000E-01   1.00800           0
       835 MEMB     7        POPC     HY       HAL2     0.900000E-01   1.00800           0
       836 MEMB     7        POPC     O31      OSL     -0.490000       15.9994           0
       837 MEMB     7        POPC     C31      CL       0.900000       12.0110           0
       838 MEMB     7        POPC     O32      OBL     -0.630000       15.9994           0
       839 MEMB     7        POPC     C32      CTL2    -0.220000       12.0110           0
       840 MEMB     7        POPC     H2X      HAL2     0.900000E-01   1.00800           0
       841 MEMB     7        POPC     H2Y      HAL2     0.900000E-01   1.00800           0
       842 MEMB     7        POPC     C23      CTL2    -0.180000       12.0110           0
       843 MEMB     7        POPC     H3R      HAL2     0.900000E-01   1.00800           0
       844 MEMB     7        POPC     H3S      HAL2     0.900000E-01   1.00800           0
       845 MEMB     7        POPC     C24      CTL2    -0.180000       12.0110           0
       846 MEMB     7        POPC     H4R      HAL2     0.900000E-01   1.00800           0
       847 MEMB     7        POPC     H4S      HAL2     0.900000E-01   1.00800           0
       848 MEMB     7        POPC     C25      CTL2    -0.180000       12.0110           0
       849 MEMB     7        POPC     H5R      HAL2     0.900000E-01   1.00800           0
       850 MEMB     7        POPC     H5S      HAL2     0.900000E-01   1.00800           0
       851 MEMB     7        POPC     C26      CTL2    -0.180000       12.0110           0
       852 MEMB     7        POPC     H6R      HAL2     0.900000E-01   1.00800           0
       853 MEMB     7        POPC     H6S      HAL2     0.900000E-01   1.00800           0
       854 MEMB     7        POPC     C27      CTL2    -0.180000       12.0110           0
       855 MEMB     7        POPC     H7R      HAL2     0.900000E-01   1.00800           0
       856 MEMB     7        POPC     H7S      HAL2     0.900000E-01   1.00800           0
       857 MEMB     7        POPC     C28      CTL2    -0.180000       12.0110           0
       858 MEMB     7        POPC     H8R      HAL2     0.900000E-01   1.00800           0
       859 MEMB     7        POPC     H8S      HAL2     0.900000E-01   1.00800           0
       860 MEMB     7        POPC     C29      CEL1    -0.150000       12.0110           0
       861 MEMB     7        POPC     H91      HEL1     0.150000       1.00800           0
       862 MEMB     7        POPC     C210     CEL1    -0.150000       12.0110           0
       863 MEMB     7        POPC     H101     HEL1     0.150000       1.00800           0
       864 MEMB     7        POPC     C211     CTL2    -0.180000       12.0110           0
       865 MEMB     7        POPC     H11R     HAL2     0.900000E-01   1.00800           0
       866 MEMB     7        POPC     H11S     HAL2     0.900000E-01   1.00800           0
       867 MEMB     7        POPC     C212     CTL2    -0.180000       12.0110           0
       868 MEMB     7        POPC     H12R     HAL2     0.900000E-01   1.00800           0
       869 MEMB     7        POPC     H12S     HAL2     0.900000E-01   1.00800           0
       870 MEMB     7        POPC     C213     CTL2    -0.180000       12.0110           0
       871 MEMB     7        POPC     H13R     HAL2     0.900000E-01   1.00800           0
       872 MEMB     7        POPC     H13S     HAL2     0.900000E-01   1.00800           0
       873 MEMB     7        POPC     C214     CTL2    -0.180000       12.0110           0
       874 MEMB     7        POPC     H14R     HAL2     0.900000E-01   1.00800           0
       875 MEMB     7        POPC     H14S     HAL2     0.900000E-01   1.00800           0
       876 MEMB     7        POPC     C215     CTL2    -0.180000       12.0110           0
       877 MEMB     7        POPC     H15R     HAL2     0.900000E-01   1.00800           0
       878 MEMB     7        POPC     H15S     HAL2     0.900000E-01   1.00800           0
       879 MEMB     7        POPC     C216     CTL2    -0.180000       12.0110           0
       880 MEMB     7        POPC     H16R     HAL2     0.900000E-01   1.00800           0
       881 MEMB     7        POPC     H16S     HAL2     0.900000E-01   1.00800           0
       882 MEMB     7        POPC     C217     CTL2    -0.180000       12.0110           0
       883 MEMB     7        POPC     H17R     HAL2     0.900000E-01   1.00800           0
       884 MEMB     7        POPC     H17S     HAL2     0.900000E-01   1.00800           0
       885 MEMB     7        POPC     C218     CTL3    -0.270000       12.0110           0
       886 MEMB     7        POPC     H18R     HAL3     0.900000E-01   1.00800           0
       887 MEMB     7        POPC     H18S     HAL3     0.900000E-01   1.00800           0
       888 MEMB     7        POPC     H18T     HAL3     0.900000E-01   1.00800           0
       889 MEMB     7        POPC     C33      CTL2    -0.180000       12.0110           0
       890 MEMB     7        POPC     H3X      HAL2     0.900000E-01   1.00800           0
       891 MEMB     7        POPC     H3Y      HAL2     0.900000E-01   1.00800           0
       892 MEMB     7        POPC     C34      CTL2    -0.180000       12.0110           0
       893 MEMB     7        POPC     H4X      HAL2     0.900000E-01   1.00800           0
       894 MEMB     7        POPC     H4Y      HAL2     0.900000E-01   1.00800           0
       895 MEMB     7        POPC     C35      CTL2    -0.180000       12.0110           0
       896 MEMB     7        POPC     H5X      HAL2     0.900000E-01   1.00800           0
       897 MEMB     7        POPC     H5Y      HAL2     0.900000E-01   1.00800           0
       898 MEMB     7        POPC     C36      CTL2    -0.180000       12.0110           0
       899 MEMB     7        POPC     H6X      HAL2     0.900000E-01   1.00800           0
       900 MEMB     7        POPC     H6Y      HAL2     0.900000E-01   1.00800           0
       901 MEMB     7        POPC     C37      CTL2    -0.180000       12.0110           0
       902 MEMB     7        POPC     H7X      HAL2     0.900000E-01   1.00800           0
       903 MEMB     7        POPC     H7Y      HAL2     0.900000E-01   1.00800           0
       904 MEMB     7        POPC     C38      CTL2    -0.180000       12.0110           0
       905 MEMB     7        POPC     H8X      HAL2     0.900000E-01   1.00800           0
       906 MEMB     7        POPC     H8Y      HAL2     0.900000E-01   1.00800           0
       907 MEMB     7        POPC     C39      CTL2    -0.180000       12.0110           0
       908 MEMB     7        POPC     H9X      HAL2     0.900000E-01   1.00800           0
       909 MEMB     7        POPC     H9Y      HAL2     0.900000E-01   1.00800           0
       910 MEMB     7        POPC     C310     CTL2    -0.180000       12.0110           0
       911 MEMB     7        POPC     H10X     HAL2     0.900000E-01   1.00800           0
       912 MEMB     7        POPC     H10Y     HAL2     0.900000E-01   1.00800           0
       913 MEMB     7        POPC     C311     CTL2    -0.180000       12.0110           0
       914 MEMB     7        POPC     H11X     HAL2     0.900000E-01   1.00800           0
       915 MEMB     7        POPC     H11Y     HAL2     0.900000E-01   1.00800           0
       916 MEMB     7        POPC     C312     CTL2    -0.180000       12.0110           0
       917 MEMB     7        POPC     H12X     HAL2     0.900000E-01   1.00800           0
       918 MEMB     7        POPC     H12Y     HAL2     0.900000E-01   1.00800           0
       919 MEMB     7        POPC     C313     CTL2    -0.180000       12.0110           0
       920 MEMB     7        POPC     H13X     HAL2     0.900000E-01   1.00800           0
       921 MEMB     7        POPC     H13Y     HAL2     0.900000E-01   1.00800           0
       922 MEMB     7        POPC     C314     CTL2    -0.180000       12.0110           0
       923 MEMB     7        POPC     H14X     HAL2     0.900000E-01   1.00800           0
       924 MEMB     7        POPC     H14Y     HAL2     0.900000E-01   1.00800           0
       925 MEMB     7        POPC     C315     CTL2    -0.180000       12.0110           0
       926 MEMB     7        POPC     H15X     HAL2     0.900000E-01   1.00800           0
       927 MEMB     7        POPC     H15Y     HAL2     0.900000E-01   1.00800           0
       928 MEMB     7        POPC     C316     CTL3    -0.270000       12.0110           0
       929 MEMB     7        POPC     H16X     HAL3     0.900000E-01   1.00800           0
       930 MEMB     7        POPC     H16Y     HAL3     0.900000E-01   1.00800           0
       931 MEMB     7        POPC     H16Z     HAL3     0.900000E-01   1.00800           0
       932 MEMB     8        POPC     N        NTL     -0.600000       14.0070           0
       933 MEMB     8        POPC     C12      CTL2    -0.100000       12.0110           0
       934 MEMB     8        POPC     H12A     HL       0.250000       1.00800           0
       935 MEMB     8        POPC     H12B     HL       0.250000       1.00800           0
       936 MEMB     8        POPC     C13      CTL5    -0.350000       12.0110           0
       937 MEMB     8        POPC     H13A     HL       0.250000       1.00800           0
       938 MEMB     8        POPC     H13B     HL       0.250000       1.00800           0
       939 MEMB     8        POPC     H13C     HL       0.250000       1.00800           0
       940 MEMB     8        POPC     C14      CTL5    -0.350000       12.0110           0
       941 MEMB     8        POPC     H14A     HL       0.250000       1.00800           0
       942 MEMB     8        POPC     H14B     HL       0.250000       1.00800           0
       943 MEMB     8        POPC     H14C     HL       0.250000       1.00800           0
       944 MEMB     8        POPC     C15      CTL5    -0.350000       12.0110           0
       945 MEMB     8        POPC     H15A     HL       0.250000       1.00800           0
       946 MEMB     8        POPC     H15B     HL       0.250000       1.00800           0
       947 MEMB     8        POPC     H15C     HL       0.250000       1.00800           0
       948 MEMB     8        POPC     C11      CTL2    -0.800000E-01   12.0110           0
       949 MEMB     8        POPC     H11A     HAL2     0.900000E-01   1.00800           0
       950 MEMB     8        POPC     H11B     HAL2     0.900000E-01   1.00800           0
       951 MEMB     8        POPC     P        PL        1.50000       30.9740           0
       952 MEMB     8        POPC     O13      O2L     -0.780000       15.9994           0
       953 MEMB     8        POPC     O14      O2L     -0.780000       15.9994           0
       954 MEMB     8        POPC     O12      OSLP    -0.570000       15.9994           0
       955 MEMB     8        POPC     O11      OSLP    -0.570000       15.9994           0
       956 MEMB     8        POPC     C1       CTL2    -0.800000E-01   12.0110           0
       957 MEMB     8        POPC     HA       HAL2     0.900000E-01   1.00800           0
       958 MEMB     8        POPC     HB       HAL2     0.900000E-01   1.00800           0
       959 MEMB     8        POPC     C2       CTL1     0.170000       12.0110           0
       960 MEMB     8        POPC     HS       HAL1     0.900000E-01   1.00800           0
       961 MEMB     8        POPC     O21      OSL     -0.490000       15.9994           0
       962 MEMB     8        POPC     C21      CL       0.900000       12.0110           0
       963 MEMB     8        POPC     O22      OBL     -0.630000       15.9994           0
       964 MEMB     8        POPC     C22      CTL2    -0.220000       12.0110           0
       965 MEMB     8        POPC     H2R      HAL2     0.900000E-01   1.00800           0
       966 MEMB     8        POPC     H2S      HAL2     0.900000E-01   1.00800           0
       967 MEMB     8        POPC     C3       CTL2     0.800000E-01   12.0110           0
       968 MEMB     8        POPC     HX       HAL2     0.900000E-01   1.00800           0
       969 MEMB     8        POPC     HY       HAL2     0.900000E-01   1.00800           0
       970 MEMB     8        POPC     O31      OSL     -0.490000       15.9994           0
       971 MEMB     8        POPC     C31      CL       0.900000       12.0110           0
       972 MEMB     8        POPC     O32      OBL     -0.630000       15.9994           0
       973 MEMB     8        POPC     C32      CTL2    -0.220000       12.0110           0
       974 MEMB     8        POPC     H2X      HAL2     0.900000E-01   1.00800           0
       975 MEMB     8        POPC     H2Y      HAL2     0.900000E-01   1.00800           0
       976 MEMB     8        POPC     C23      CTL2    -0.180000       12.0110           0
       977 MEMB     8        POPC     H3R      HAL2     0.900000E-01   1.00800           0
       978 MEMB     8        POPC     H3S      HAL2     0.900000E-01   1.00800           0
       979 MEMB     8        POPC     C24      CTL2    -0.180000       12.0110           0
       980 MEMB     8        POPC     H4R      HAL2     0.900000E-01   1.00800           0
       981 MEMB     8        POPC     H4S      HAL2     0.900000E-01   1.00800           0
       982 MEMB     8        POPC     C25      CTL2    -0.180000       12.0110           0
       983 MEMB     8        POPC     H5R      HAL2     0.900000E-01   1.00800           0
       984 MEMB     8        POPC     H5S      HAL2     0.900000E-01   1.00800           0
       985 MEMB     8        POPC     C26      CTL2    -0.180000       12.0110           0
       986 MEMB     8        POPC     H6R      HAL2     0.900000E-01   1.00800           0
       987 MEMB     8        POPC     H6S      HAL2     0.900000E-01   1.00800           0
       988 MEMB     8        POPC     C27      CTL2    -0.180000       12.0110           0
       989 MEMB     8        POPC     H7R      HAL2     0.900000E-01   1.00800           0
       990 MEMB     8        POPC     H7S      HAL2     0.900000E-01   1.00800           0
       991 MEMB     8        POPC     C28      CTL2    -0.180000       12.0110           0
       992 MEMB     8        POPC     H8R      HAL2     0.900000E-01   1.00800           0
       993 MEMB     8        POPC     H8S      HAL2     0.900000E-01   1.00800           0
       994 MEMB     8        POPC     C29      CEL1    -0.150000       12.0110           0
       995 MEMB     8        POPC     H91      HEL1     0.150000       1.00800           0
       996 MEMB     8        POPC     C210     CEL1    -0.150000       12.0110           0
       997 MEMB     8        POPC     H101     HEL1     0.150000       1.00800           0
       998 MEMB     8        POPC     C211     CTL2    -0.180000       12.0110           0
       999 MEMB     8        POPC     H11R     HAL2     0.900000E-01   1.00800           0
      1000 MEMB     8        POPC     H11S     HAL2     0.900000E-01   1.00800           0
      1001 MEMB     8        POPC     C212     CTL2    -0.180000       12.0110           0
      1002 MEMB     8        POPC     H12R     HAL2     0.900000E-01   1.00800           0
      1003 MEMB     8        POPC     H12S     HAL2     0.900000E-01   1.00800           0
      1004 MEMB     8        POPC     C213     CTL2    -0.180000       12.0110           0
      1005 MEMB     8        POPC     H13R     HAL2     0.900000E-01   1.00800           0
      1006 MEMB     8        POPC     H13S     HAL2     0.900000E-01   1.00800           0
      1007 MEMB     8        POPC     C214     CTL2    -0.180000       12.0110           0
      1008 MEMB     8        POPC     H14R     HAL2     0.900000E-01   1.00800           0
      1009 MEMB     8        POPC     H14S     HAL2     0.900000E-01   1.00800           0
      1010 MEMB     8        POPC     C215     CTL2    -0.180000       12.0110           0
      1011 MEMB     8        POPC     H15R     HAL2     0.900000E-01   1.00800           0
      1012 MEMB     8        POPC     H15S     HAL2     0.900000E-01   1.00800           0
      1013 MEMB     8        POPC     C216     CTL2    -0.180000       12.0110           0
      1014 MEMB     8        POPC     H16R     HAL2     0.900000E-01   1.00800           0
      1015 MEMB     8        POPC     H16S     HAL2     0.900000E-01   1.00800           0
      1016 MEMB     8        POPC     C217     CTL2    -0.180000       12.0110           0
      1017 MEMB     8        POPC     H17R     HAL2     0.900000E-01   1.00800           0
      1018 MEMB     8        POPC     H17S     HAL2     0.900000E-01   1.00800           0
      1019 MEMB     8        POPC     C218     CTL3    -0.270000       12.0110           0
      1020 MEMB     8        POPC     H18R     HAL3     0.900000E-01   1.00800           0
      1021 MEMB     8        POPC     H18S     HAL3     0.900000E-01   1.00800           0
      1022 MEMB     8        POPC     H18T     HAL3     0.900000E-01   1.00800           0
      1023 MEMB     8        POPC     C33      CTL2    -0.180000       12.0110           0
      1024 MEMB     8        POPC     H3X      HAL2     0.900000E-01   1.00800           0
      1025 MEMB     8        POPC     H3Y      HAL2     0.900000E-01   1.00800           0
      1026 MEMB     8        POPC     C34      CTL2    -0.180000       12.0110           0
      1027 MEMB     8        POPC     H4X      HAL2     0.900000E-01   1.00800           0
      1028 MEMB     8        POPC     H4Y      HAL2     0.900000E-01   1.00800           0
      1029 MEMB     8        POPC     C35      CTL2    -0.180000       12.0110           0
      1030 MEMB     8        POPC     H5X      HAL2     0.900000E-01   1.00800           0
      1031 MEMB     8        POPC     H5Y      HAL2     0.900000E-01   1.00800           0
      1032 MEMB     8        POPC     C36      CTL2    -0.180000       12.0110           0
      1033 MEMB     8        POPC     H6X      HAL2     0.900000E-01   1.00800           0
      1034 MEMB     8        POPC     H6Y      HAL2     0.900000E-01   1.00800           0
      1035 MEMB     8        POPC     C37      CTL2    -0.180000       12.0110           0
      1036 MEMB     8        POPC     H7X      HAL2     0.900000E-01   1.00800           0
      1037 MEMB     8        POPC     H7Y      HAL2     0.900000E-01   1.00800           0
      1038 MEMB     8        POPC     C38      CTL2    -0.180000       12.0110           0
      1039 MEMB     8        POPC     H8X      HAL2     0.900000E-01   1.00800           0
      1040 MEMB     8        POPC     H8Y      HAL2     0.900000E-01   1.00800           0
      1041 MEMB     8        POPC     C39      CTL2    -0.180000       12.0110           0
      1042 MEMB     8        POPC     H9X      HAL2     0.900000E-01   1.00800           0
      1043 MEMB     8        POPC     H9Y      HAL2     0.900000E-01   1.00800           0
      1044 MEMB     8        POPC     C310     CTL2    -0.180000       12.0110           0
      1045 MEMB     8        POPC     H10X     HAL2     0.900000E-01   1.00800           0
      1046 MEMB     8        POPC     H10Y     HAL2     0.900000E-01   1.00800           0
      1047 MEMB     8        POPC     C311     CTL2    -0.180000       12.0110           0
      1048 MEMB     8        POPC     H11X     HAL2     0.900000E-01   1.00800           0
      1049 MEMB     8        POPC     H11Y     HAL2     0.900000E-01   1.00800           0
      1050 MEMB     8        POPC     C312     CTL2    -0.180000       12.0110           0
      1051 MEMB     8        POPC     H12X     HAL2     0.900000E-01   1.00800           0
      1052 MEMB     8        POPC     H12Y     HAL2     0.900000E-01   1.00800           0
      1053 MEMB     8        POPC     C313     CTL2    -0.180000       12.0110           0
      1054 MEMB     8        POPC     H13X     HAL2     0.900000E-01   1.00800           0
      1055 MEMB     8        POPC     H13Y     HAL2     0.900000E-01   1.00800           0
      1056 MEMB     8        POPC     C314     CTL2    -0.180000       12.0110           0
      1057 MEMB     8        POPC     H14X     HAL2     0.900000E-01   1.00800           0
      1058 MEMB     8        POPC     H14Y     HAL2     0.900000E-01   1.00800           0
      1059 MEMB     8        POPC     C315     CTL2    -0.180000       12.0110           0
      1060 MEMB     8        POPC     H15X     HAL2     0.900000E-01   1.00800           0
      1061 MEMB     8        POPC     H15Y     HAL2     0.900000E-01   1.00800           0
      1062 MEMB     8        POPC     C316     CTL3    -0.270000       12.0110           0
      1063 MEMB     8        POPC     H16X     HAL3     0.900000E-01   1.00800           0
      1064 MEMB     8        POPC     H16Y     HAL3     0.900000E-01   1.00800           0
      1065 MEMB     8        POPC     H16Z     HAL3     0.900000E-01   1.00800           0
      1066 MEMB     9        POPC     N        NTL     -0.600000       14.0070           0
      1067 MEMB     9        POPC     C12      CTL2    -0.100000       12.0110           0
      1068 MEMB     9        POPC     H12A     HL       0.250000       1.00800           0
      1069 MEMB     9        POPC     H12B     HL       0.250000       1.00800           0
      1070 MEMB     9        POPC     C13      CTL5    -0.350000       12.0110           0
      1071 MEMB     9        POPC     H13A     HL       0.250000       1.00800           0
      1072 MEMB     9        POPC     H13B     HL       0.250000       1.00800           0
      1073 MEMB     9        POPC     H13C     HL       0.250000       1.00800           0
      1074 MEMB     9        POPC     C14      CTL5    -0.350000       12.0110           0
      1075 MEMB     9        POPC     H14A     HL       0.250000       1.00800           0
      1076 MEMB     9        POPC     H14B     HL       0.250000       1.00800           0
      1077 MEMB     9        POPC     H14C     HL       0.250000       1.00800           0
      1078 MEMB     9        POPC     C15      CTL5    -0.350000       12.0110           0
      1079 MEMB     9        POPC     H15A     HL       0.250000       1.00800           0
      1080 MEMB     9        POPC     H15B     HL       0.250000       1.00800           0
      1081 MEMB     9        POPC     H15C     HL       0.250000       1.00800           0
      1082 MEMB     9        POPC     C11      CTL2    -0.800000E-01   12.0110           0
      1083 MEMB     9        POPC     H11A     HAL2     0.900000E-01   1.00800           0
      1084 MEMB     9        POPC     H11B     HAL2     0.900000E-01   1.00800           0
      1085 MEMB     9        POPC     P        PL        1.50000       30.9740           0
      1086 MEMB     9        POPC     O13      O2L     -0.780000       15.9994           0
      1087 MEMB     9        POPC     O14      O2L     -0.780000       15.9994           0
      1088 MEMB     9        POPC     O12      OSLP    -0.570000       15.9994           0
      1089 MEMB     9        POPC     O11      OSLP    -0.570000       15.9994           0
      1090 MEMB     9        POPC     C1       CTL2    -0.800000E-01   12.0110           0
      1091 MEMB     9        POPC     HA       HAL2     0.900000E-01   1.00800           0
      1092 MEMB     9        POPC     HB       HAL2     0.900000E-01   1.00800           0
      1093 MEMB     9        POPC     C2       CTL1     0.170000       12.0110           0
      1094 MEMB     9        POPC     HS       HAL1     0.900000E-01   1.00800           0
      1095 MEMB     9        POPC     O21      OSL     -0.490000       15.9994           0
      1096 MEMB     9        POPC     C21      CL       0.900000       12.0110           0
      1097 MEMB     9        POPC     O22      OBL     -0.630000       15.9994           0
      1098 MEMB     9        POPC     C22      CTL2    -0.220000       12.0110           0
      1099 MEMB     9        POPC     H2R      HAL2     0.900000E-01   1.00800           0
      1100 MEMB     9        POPC     H2S      HAL2     0.900000E-01   1.00800           0
      1101 MEMB     9        POPC     C3       CTL2     0.800000E-01   12.0110           0
      1102 MEMB     9        POPC     HX       HAL2     0.900000E-01   1.00800           0
      1103 MEMB     9        POPC     HY       HAL2     0.900000E-01   1.00800           0
      1104 MEMB     9        POPC     O31      OSL     -0.490000       15.9994           0
      1105 MEMB     9        POPC     C31      CL       0.900000       12.0110           0
      1106 MEMB     9        POPC     O32      OBL     -0.630000       15.9994           0
      1107 MEMB     9        POPC     C32      CTL2    -0.220000       12.0110           0
      1108 MEMB     9        POPC     H2X      HAL2     0.900000E-01   1.00800           0
      1109 MEMB     9        POPC     H2Y      HAL2     0.900000E-01   1.00800           0
      1110 MEMB     9        POPC     C23      CTL2    -0.180000       12.0110           0
      1111 MEMB     9        POPC     H3R      HAL2     0.900000E-01   1.00800           0
      1112 MEMB     9        POPC     H3S      HAL2     0.900000E-01   1.00800           0
      1113 MEMB     9        POPC     C24      CTL2    -0.180000       12.0110           0
      1114 MEMB     9        POPC     H4R      HAL2     0.900000E-01   1.00800           0
      1115 MEMB     9        POPC     H4S      HAL2     0.900000E-01   1.00800           0
      1116 MEMB     9        POPC     C25      CTL2    -0.180000       12.0110           0
      1117 MEMB     9        POPC     H5R      HAL2     0.900000E-01   1.00800           0
      1118 MEMB     9        POPC     H5S      HAL2     0.900000E-01   1.00800           0
      1119 MEMB     9        POPC     C26      CTL2    -0.180000       12.0110           0
      1120 MEMB     9        POPC     H6R      HAL2     0.900000E-01   1.00800           0
      1121 MEMB     9        POPC     H6S      HAL2     0.900000E-01   1.00800           0
      1122 MEMB     9        POPC     C27      CTL2    -0.180000       12.0110           0
      1123 MEMB     9        POPC     H7R      HAL2     0.900000E-01   1.00800           0
      1124 MEMB     9        POPC     H7S      HAL2     0.900000E-01   1.00800           0
      1125 MEMB     9        POPC     C28      CTL2    -0.180000       12.0110           0
      1126 MEMB     9        POPC     H8R      HAL2     0.900000E-01   1.00800           0
      1127 MEMB     9        POPC     H8S      HAL2     0.900000E-01   1.00800           0
      1128 MEMB     9        POPC     C29      CEL1    -0.150000       12.0110           0
      1129 MEMB     9        POPC     H91      HEL1     0.150000       1.00800           0
      1130 MEMB     9        POPC     C210     CEL1    -0.150000       12.0110           0
      1131 MEMB     9        POPC     H101     HEL1     0.150000       1.00800           0
      1132 MEMB     9        POPC     C211     CTL2    -0.180000       12.0110           0
      1133 MEMB     9        POPC     H11R     HAL2     0.900000E-01   1.00800           0
      1134 MEMB     9        POPC     H11S     HAL2     0.900000E-01   1.00800           0
      1135 MEMB     9        POPC     C212     CTL2    -0.180000       12.0110           0
      1136 MEMB     9        POPC     H12R     HAL2     0.900000E-01   1.00800           0
      1137 MEMB     9        POPC     H12S     HAL2     0.900000E-01   1.00800           0
      1138 MEMB     9        POPC     C213     CTL2    -0.180000       12.0110           0
      1139 MEMB     9        POPC     H13R     HAL2     0.900000E-01   1.00800           0
      1140 MEMB     9        POPC     H13S     HAL2     0.900000E-01   1.00800           0
      1141 MEMB     9        POPC     C214     CTL2    -0.180000       12.0110           0
      1142 MEMB     9        POPC     H14R     HAL2     0.900000E-01   1.00800           0
      1143 MEMB     9        POPC     H14S     HAL2     0.900000E-01   1.00800           0
      1144 MEMB     9        POPC     C215     CTL2    -0.180000       12.0110           0
      1145 MEMB     9        POPC     H15R     HAL2     0.900000E-01   1.00800           0
      1146 MEMB     9        POPC     H15S     HAL2     0.900000E-01   1.00800           0
      1147 MEMB     9        POPC     C216     CTL2    -0.180000       12.0110           0
      1148 MEMB     9        POPC     H16R     HAL2     0.900000E-01   1.00800           0
      1149 MEMB     9        POPC     H16S     HAL2     0.900000E-01   1.00800           0
      1150 MEMB     9        POPC     C217     CTL2    -0.180000       12.0110           0
      1151 MEMB     9        POPC     H17R     HAL2     0.900000E-01   1.00800           0
      1152 MEMB     9        POPC     H17S     HAL2     0.900000E-01   1.00800           0
      1153 MEMB     9        POPC     C218     CTL3    -0.270000       12.0110           0
      1154 MEMB     9        POPC     H18R     HAL3     0.900000E-01   1.00800           0
      1155 MEMB     9        POPC     H18S     HAL3     0.900000E-01   1.00800           0
      1156 MEMB     9        POPC     H18T     HAL3     0.900000E-01   1.00800           0
      1157 MEMB     9        POPC     C33      CTL2    -0.180000       12.0110           0
      1158 MEMB     9        POPC     H3X      HAL2     0.900000E-01   1.00800           0
      1159 MEMB     9        POPC     H3Y      HAL2     0.900000E-01   1.00800           0
      1160 MEMB     9        POPC     C34      CTL2    -0.180000       12.0110           0
      1161 MEMB     9        POPC     H4X      HAL2     0.900000E-01   1.00800           0
      1162 MEMB     9        POPC     H4Y      HAL2     0.900000E-01   1.00800           0
      1163 MEMB     9        POPC     C35      CTL2    -0.180000       12.0110           0
      1164 MEMB     9        POPC     H5X      HAL2     0.900000E-01   1.00800           0
      1165 MEMB     9        POPC     H5Y      HAL2     0.900000E-01   1.00800           0
      1166 MEMB     9        POPC     C36      CTL2    -0.180000       12.0110           0
      1167 MEMB     9        POPC     H6X      HAL2     0.900000E-01   1.00800           0
      1168 MEMB     9        POPC     H6Y      HAL2     0.900000E-01   1.00800           0
      1169 MEMB     9        POPC     C37      CTL2    -0.180000       12.0110           0
      1170 MEMB     9        POPC     H7X      HAL2     0.900000E-01   1.00800           0
      1171 MEMB     9        POPC     H7Y      HAL2     0.900000E-01   1.00800           0
      1172 MEMB     9        POPC     C38      CTL2    -0.180000       12.0110           0
      1173 MEMB     9        POPC     H8X      HAL2     0.900000E-01   1.00800           0
      1174 MEMB     9        POPC     H8Y      HAL2     0.900000E-01   1.00800           0
      1175 MEMB     9        POPC     C39      CTL2    -0.180000       12.0110           0
      1176 MEMB     9        POPC     H9X      HAL2     0.900000E-01   1.00800           0
      1177 MEMB     9        POPC     H9Y      HAL2     0.900000E-01   1.00800           0
      1178 MEMB     9        POPC     C310     CTL2    -0.180000       12.0110           0
      1179 MEMB     9        POPC     H10X     HAL2     0.900000E-01   1.00800           0
      1180 MEMB     9        POPC     H10Y     HAL2     0.900000E-01   1.00800           0
      1181 MEMB     9        POPC     C311     CTL2    -0.180000       12.0110           0
      1182 MEMB     9        POPC     H11X     HAL2     0.900000E-01   1.00800           0
      1183 MEMB     9        POPC     H11Y     HAL2     0.900000E-01   1.00800           0
      1184 MEMB     9        POPC     C312     CTL2    -0.180000       12.0110           0
      1185 MEMB     9        POPC     H12X     HAL2     0.900000E-01   1.00800           0
      1186 MEMB     9        POPC     H12Y     HAL2     0.900000E-01   1.00800           0
      1187 MEMB     9        POPC     C313     CTL2    -0.180000       12.0110           0
      1188 MEMB     9        POPC     H13X     HAL2     0.900000E-01   1.00800           0
      1189 MEMB     9        POPC     H13Y     HAL2     0.900000E-01   1.00800           0
      1190 MEMB     9        POPC     C314     CTL2    -0.180000       12.0110           0
      1191 MEMB     9        POPC     H14X     HAL2     0.900000E-01   1.00800           0
      1192 MEMB     9        POPC     H14Y     HAL2     0.900000E-01   1.00800           0
      1193 MEMB     9        POPC     C315     CTL2    -0.180000       12.0110           0
      1194 MEMB     9        POPC     H15X     HAL2     0.900000E-01   1.00800           0
      1195 MEMB     9        POPC     H15Y     HAL2     0.900000E-01   1.00800           0
      1196 MEMB     9        POPC     C316     CTL3    -0.270000       12.0110           0
      1197 MEMB     9        POPC     H16X     HAL3     0.900000E-01   1.00800           0
      1198 MEMB     9        POPC     H16Y     HAL3     0.900000E-01   1.00800           0
      1199 MEMB     9        POPC     H16Z     HAL3     0.900000E-01   1.00800           0
      1200 MEMB     10       POPC     N        NTL     -0.600000       14.0070           0
      1201 MEMB     10       POPC     C12      CTL2    -0.100000       12.0110           0
      1202 MEMB     10       POPC     H12A     HL       0.250000       1.00800           0
      1203 MEMB     10       POPC     H12B     HL       0.250000       1.00800           0
      1204 MEMB     10       POPC     C13      CTL5    -0.350000       12.0110           0
      1205 MEMB     10       POPC     H13A     HL       0.250000       1.00800           0
      1206 MEMB     10       POPC     H13B     HL       0.250000       1.00800           0
      1207 MEMB     10       POPC     H13C     HL       0.250000       1.00800           0
      1208 MEMB     10       POPC     C14      CTL5    -0.350000       12.0110           0
      1209 MEMB     10       POPC     H14A     HL       0.250000       1.00800           0
      1210 MEMB     10       POPC     H14B     HL       0.250000       1.00800           0
      1211 MEMB     10       POPC     H14C     HL       0.250000       1.00800           0
      1212 MEMB     10       POPC     C15      CTL5    -0.350000       12.0110           0
      1213 MEMB     10       POPC     H15A     HL       0.250000       1.00800           0
      1214 MEMB     10       POPC     H15B     HL       0.250000       1.00800           0
      1215 MEMB     10       POPC     H15C     HL       0.250000       1.00800           0
      1216 MEMB     10       POPC     C11      CTL2    -0.800000E-01   12.0110           0
      1217 MEMB     10       POPC     H11A     HAL2     0.900000E-01   1.00800           0
      1218 MEMB     10       POPC     H11B     HAL2     0.900000E-01   1.00800           0
      1219 MEMB     10       POPC     P        PL        1.50000       30.9740           0
      1220 MEMB     10       POPC     O13      O2L     -0.780000       15.9994           0
      1221 MEMB     10       POPC     O14      O2L     -0.780000       15.9994           0
      1222 MEMB     10       POPC     O12      OSLP    -0.570000       15.9994           0
      1223 MEMB     10       POPC     O11      OSLP    -0.570000       15.9994           0
      1224 MEMB     10       POPC     C1       CTL2    -0.800000E-01   12.0110           0
      1225 MEMB     10       POPC     HA       HAL2     0.900000E-01   1.00800           0
      1226 MEMB     10       POPC     HB       HAL2     0.900000E-01   1.00800           0
      1227 MEMB     10       POPC     C2       CTL1     0.170000       12.0110           0
      1228 MEMB     10       POPC     HS       HAL1     0.900000E-01   1.00800           0
      1229 MEMB     10       POPC     O21      OSL     -0.490000       15.9994           0
      1230 MEMB     10       POPC     C21      CL       0.900000       12.0110           0
      1231 MEMB     10       POPC     O22      OBL     -0.630000       15.9994           0
      1232 MEMB     10       POPC     C22      CTL2    -0.220000       12.0110           0
      1233 MEMB     10       POPC     H2R      HAL2     0.900000E-01   1.00800           0
      1234 MEMB     10       POPC     H2S      HAL2     0.900000E-01   1.00800           0
      1235 MEMB     10       POPC     C3       CTL2     0.800000E-01   12.0110           0
      1236 MEMB     10       POPC     HX       HAL2     0.900000E-01   1.00800           0
      1237 MEMB     10       POPC     HY       HAL2     0.900000E-01   1.00800           0
      1238 MEMB     10       POPC     O31      OSL     -0.490000       15.9994           0
      1239 MEMB     10       POPC     C31      CL       0.900000       12.0110           0
      1240 MEMB     10       POPC     O32      OBL     -0.630000       15.9994           0
      1241 MEMB     10       POPC     C32      CTL2    -0.220000       12.0110           0
      1242 MEMB     10       POPC     H2X      HAL2     0.900000E-01   1.00800           0
      1243 MEMB     10       POPC     H2Y      HAL2     0.900000E-01   1.00800           0
      1244 MEMB     10       POPC     C23      CTL2    -0.180000       12.0110           0
      1245 MEMB     10       POPC     H3R      HAL2     0.900000E-01   1.00800           0
      1246 MEMB     10       POPC     H3S      HAL2     0.900000E-01   1.00800           0
      1247 MEMB     10       POPC     C24      CTL2    -0.180000       12.0110           0
      1248 MEMB     10       POPC     H4R      HAL2     0.900000E-01   1.00800           0
      1249 MEMB     10       POPC     H4S      HAL2     0.900000E-01   1.00800           0
      1250 MEMB     10       POPC     C25      CTL2    -0.180000       12.0110           0
      1251 MEMB     10       POPC     H5R      HAL2     0.900000E-01   1.00800           0
      1252 MEMB     10       POPC     H5S      HAL2     0.900000E-01   1.00800           0
      1253 MEMB     10       POPC     C26      CTL2    -0.180000       12.0110           0
      1254 MEMB     10       POPC     H6R      HAL2     0.900000E-01   1.00800           0
      1255 MEMB     10       POPC     H6S      HAL2     0.900000E-01   1.00800           0
      1256 MEMB     10       POPC     C27      CTL2    -0.180000       12.0110           0
      1257 MEMB     10       POPC     H7R      HAL2     0.900000E-01   1.00800           0
      1258 MEMB     10       POPC     H7S      HAL2     0.900000E-01   1.00800           0
      1259 MEMB     10       POPC     C28      CTL2    -0.180000       12.0110           0
      1260 MEMB     10       POPC     H8R      HAL2     0.900000E-01   1.00800           0
      1261 MEMB     10       POPC     H8S      HAL2     0.900000E-01   1.00800           0
      1262 MEMB     10       POPC     C29      CEL1    -0.150000       12.0110           0
      1263 MEMB     10       POPC     H91      HEL1     0.150000       1.00800           0
      1264 MEMB     10       POPC     C210     CEL1    -0.150000       12.0110           0
      1265 MEMB     10       POPC     H101     HEL1     0.150000       1.00800           0
      1266 MEMB     10       POPC     C211     CTL2    -0.180000       12.0110           0
      1267 MEMB     10       POPC     H11R     HAL2     0.900000E-01   1.00800           0
      1268 MEMB     10       POPC     H11S     HAL2     0.900000E-01   1.00800           0
      1269 MEMB     10       POPC     C212     CTL2    -0.180000       12.0110           0
      1270 MEMB     10       POPC     H12R     HAL2     0.900000E-01   1.00800           0
      1271 MEMB     10       POPC     H12S     HAL2     0.900000E-01   1.00800           0
      1272 MEMB     10       POPC     C213     CTL2    -0.180000       12.0110           0
      1273 MEMB     10       POPC     H13R     HAL2     0.900000E-01   1.00800           0
      1274 MEMB     10       POPC     H13S     HAL2     0.900000E-01   1.00800           0
      1275 MEMB     10       POPC     C214     CTL2    -0.180000       12.0110           0
      1276 MEMB     10       POPC     H14R     HAL2     0.900000E-01   1.00800           0
      1277 MEMB     10       POPC     H14S     HAL2     0.900000E-01   1.00800           0
      1278 MEMB     10       POPC     C215     CTL2    -0.180000       12.0110           0
      1279 MEMB     10       POPC     H15R     HAL2     0.900000E-01   1.00800           0
      1280 MEMB     10       POPC     H15S     HAL2     0.900000E-01   1.00800           0
      1281 MEMB     10       POPC     C216     CTL2    -0.180000       12.0110           0
      1282 MEMB     10       POPC     H16R     HAL2     0.900000E-01   1.00800           0
      1283 MEMB     10       POPC     H16S     HAL2     0.900000E-01   1.00800           0
      1284 MEMB     10       POPC     C217     CTL2    -0.180000       12.0110           0
      1285 MEMB     10       POPC     H17R     HAL2     0.900000E-01   1.00800           0
      1286 MEMB     10       POPC     H17S     HAL2     0.900000E-01   1.00800           0
      1287 MEMB     10       POPC     C218     CTL3    -0.270000       12.0110           0
      1288 MEMB     10       POPC     H18R     HAL3     0.900000E-01   1.00800           0
      1289 MEMB     10       POPC     H18S     HAL3     0.900000E-01   1.00800           0
      1290 MEMB     10       POPC     H18T     HAL3     0.900000E-01   1.00800           0
      1291 MEMB     10       POPC     C33      CTL2    -0.180000       12.0110           0
      1292 MEMB     10       POPC     H3X      HAL2     0.900000E-01   1.00800           0
      1293 MEMB     10       POPC     H3Y      HAL2     0.900000E-01   1.00800           0
      1294 MEMB     10       POPC     C34      CTL2    -0.180000       12.0110           0
      1295 MEMB     10       POPC     H4X      HAL2     0.900000E-01   1.00800           0
      1296 MEMB     10       POPC     H4Y      HAL2     0.900000E-01   1.00800           0
      1297 MEMB     10       POPC     C35      CTL2    -0.180000       12.0110           0
      1298 MEMB     10       POPC     H5X      HAL2     0.900000E-01   1.00800           0
      1299 MEMB     10       POPC     H5Y      HAL2     0.900000E-01   1.00800           0
      1300 MEMB     10       POPC     C36      CTL2    -0.180000       12.0110           0
      1301 MEMB     10       POPC     H6X      HAL2     0.900000E-01   1.00800           0
      1302 MEMB     10       POPC     H6Y      HAL2     0.900000E-01   1.00800           0
      1303 MEMB     10       POPC     C37      CTL2    -0.180000       12.0110           0
      1304 MEMB     10       POPC     H7X      HAL2     0.900000E-01   1.00800           0
      1305 MEMB     10       POPC     H7Y      HAL2     0.900000E-01   1.00800           0
      1306 MEMB     10       POPC     C38      CTL2    -0.180000       12.0110           0
      1307 MEMB     10       POPC     H8X      HAL2     0.900000E-01   1.00800           0
      1308 MEMB     10       POPC     H8Y      HAL2     0.900000E-01   1.00800           0
      1309 MEMB     10       POPC     C39      CTL2    -0.180000       12.0110           0
      1310 MEMB     10       POPC     H9X      HAL2     0.900000E-01   1.00800           0
      1311 MEMB     10       POPC     H9Y      HAL2     0.900000E-01   1.00800           0
      1312 MEMB     10       POPC     C310     CTL2    -0.180000       12.0110           0
      1313 MEMB     10       POPC     H10X     HAL2     0.900000E-01   1.00800           0
      1314 MEMB     10       POPC     H10Y     HAL2     0.900000E-01   1.00800           0
      1315 MEMB     10       POPC     C311     CTL2    -0.180000       12.0110           0
      1316 MEMB     10       POPC     H11X     HAL2     0.900000E-01   1.00800           0
      1317 MEMB     10       POPC     H11Y     HAL2     0.900000E-01   1.00800           0
      1318 MEMB     10       POPC     C312     CTL2    -0.180000       12.0110           0
      1319 MEMB     10       POPC     H12X     HAL2     0.900000E-01   1.00800           0
      1320 MEMB     10       POPC     H12Y     HAL2     0.900000E-01   1.00800           0
      1321 MEMB     10       POPC     C313     CTL2    -0.180000       12.0110           0
      1322 MEMB     10       POPC     H13X     HAL2     0.900000E-01   1.00800           0
      1323 MEMB     10       POPC     H13Y     HAL2     0.900000E-01   1.00800           0
      1324 MEMB     10       POPC     C314     CTL2    -0.180000       12.0110           0
      1325 MEMB     10       POPC     H14X     HAL2     0.900000E-01   1.00800           0
      1326 MEMB     10       POPC     H14Y     HAL2     0.900000E-01   1.00800           0
      1327 MEMB     10       POPC     C315     CTL2    -0.180000       12.0110           0
      1328 MEMB     10       POPC     H15X     HAL2     0.900000E-01   1.00800           0
      1329 MEMB     10       POPC     H15Y     HAL2     0.900000E-01   1.00800           0
      1330 MEMB     10       POPC     C316     CTL3    -0.270000       12.0110           0
      1331 MEMB     10       POPC     H16X     HAL3     0.900000E-01   1.00800           0
      1332 MEMB     10       POPC     H16Y     HAL3     0.900000E-01   1.00800           0
      1333 MEMB     10       POPC     H16Z     HAL3     0.900000E-01   1.00800           0
      1334 MEMB     11       POPC     N        NTL     -0.600000       14.0070           0
      1335 MEMB     11       POPC     C12      CTL2    -0.100000       12.0110           0
      1336 MEMB     11       POPC     H12A     HL       0.250000       1.00800           0
      1337 MEMB     11       POPC     H12B     HL       0.250000       1.00800           0
      1338 MEMB     11       POPC     C13      CTL5    -0.350000       12.0110           0
      1339 MEMB     11       POPC     H13A     HL       0.250000       1.00800           0
      1340 MEMB     11       POPC     H13B     HL       0.250000       1.00800           0
      1341 MEMB     11       POPC     H13C     HL       0.250000       1.00800           0
      1342 MEMB     11       POPC     C14      CTL5    -0.350000       12.0110           0
      1343 MEMB     11       POPC     H14A     HL       0.250000       1.00800           0
      1344 MEMB     11       POPC     H14B     HL       0.250000       1.00800           0
      1345 MEMB     11       POPC     H14C     HL       0.250000       1.00800           0
      1346 MEMB     11       POPC     C15      CTL5    -0.350000       12.0110           0
      1347 MEMB     11       POPC     H15A     HL       0.250000       1.00800           0
      1348 MEMB     11       POPC     H15B     HL       0.250000       1.00800           0
      1349 MEMB     11       POPC     H15C     HL       0.250000       1.00800           0
      1350 MEMB     11       POPC     C11      CTL2    -0.800000E-01   12.0110           0
      1351 MEMB     11       POPC     H11A     HAL2     0.900000E-01   1.00800           0
      1352 MEMB     11       POPC     H11B     HAL2     0.900000E-01   1.00800           0
      1353 MEMB     11       POPC     P        PL        1.50000       30.9740           0
      1354 MEMB     11       POPC     O13      O2L     -0.780000       15.9994           0
      1355 MEMB     11       POPC     O14      O2L     -0.780000       15.9994           0
      1356 MEMB     11       POPC     O12      OSLP    -0.570000       15.9994           0
      1357 MEMB     11       POPC     O11      OSLP    -0.570000       15.9994           0
      1358 MEMB     11       POPC     C1       CTL2    -0.800000E-01   12.0110           0
      1359 MEMB     11       POPC     HA       HAL2     0.900000E-01   1.00800           0
      1360 MEMB     11       POPC     HB       HAL2     0.900000E-01   1.00800           0
      1361 MEMB     11       POPC     C2       CTL1     0.170000       12.0110           0
      1362 MEMB     11       POPC     HS       HAL1     0.900000E-01   1.00800           0
      1363 MEMB     11       POPC     O21      OSL     -0.490000       15.9994           0
      1364 MEMB     11       POPC     C21      CL       0.900000       12.0110           0
      1365 MEMB     11       POPC     O22      OBL     -0.630000       15.9994           0
      1366 MEMB     11       POPC     C22      CTL2    -0.220000       12.0110           0
      1367 MEMB     11       POPC     H2R      HAL2     0.900000E-01   1.00800           0
      1368 MEMB     11       POPC     H2S      HAL2     0.900000E-01   1.00800           0
      1369 MEMB     11       POPC     C3       CTL2     0.800000E-01   12.0110           0
      1370 MEMB     11       POPC     HX       HAL2     0.900000E-01   1.00800           0
      1371 MEMB     11       POPC     HY       HAL2     0.900000E-01   1.00800           0
      1372 MEMB     11       POPC     O31      OSL     -0.490000       15.9994           0
      1373 MEMB     11       POPC     C31      CL       0.900000       12.0110           0
      1374 MEMB     11       POPC     O32      OBL     -0.630000       15.9994           0
      1375 MEMB     11       POPC     C32      CTL2    -0.220000       12.0110           0
      1376 MEMB     11       POPC     H2X      HAL2     0.900000E-01   1.00800           0
      1377 MEMB     11       POPC     H2Y      HAL2     0.900000E-01   1.00800           0
      1378 MEMB     11       POPC     C23      CTL2    -0.180000       12.0110           0
      1379 MEMB     11       POPC     H3R      HAL2     0.900000E-01   1.00800           0
      1380 MEMB     11       POPC     H3S      HAL2     0.900000E-01   1.00800           0
      1381 MEMB     11       POPC     C24      CTL2    -0.180000       12.0110           0
      1382 MEMB     11       POPC     H4R      HAL2     0.900000E-01   1.00800           0
      1383 MEMB     11       POPC     H4S      HAL2     0.900000E-01   1.00800           0
      1384 MEMB     11       POPC     C25      CTL2    -0.180000       12.0110           0
      1385 MEMB     11       POPC     H5R      HAL2     0.900000E-01   1.00800           0
      1386 MEMB     11       POPC     H5S      HAL2     0.900000E-01   1.00800           0
      1387 MEMB     11       POPC     C26      CTL2    -0.180000       12.0110           0
      1388 MEMB     11       POPC     H6R      HAL2     0.900000E-01   1.00800           0
      1389 MEMB     11       POPC     H6S      HAL2     0.900000E-01   1.00800           0
      1390 MEMB     11       POPC     C27      CTL2    -0.180000       12.0110           0
      1391 MEMB     11       POPC     H7R      HAL2     0.900000E-01   1.00800           0
      1392 MEMB     11       POPC     H7S      HAL2     0.900000E-01   1.00800           0
      1393 MEMB     11       POPC     C28      CTL2    -0.180000       12.0110           0
      1394 MEMB     11       POPC     H8R      HAL2     0.900000E-01   1.00800           0
      1395 MEMB     11       POPC     H8S      HAL2     0.900000E-01   1.00800           0
      1396 MEMB     11       POPC     C29      CEL1    -0.150000       12.0110           0
      1397 MEMB     11       POPC     H91      HEL1     0.150000       1.00800           0
      1398 MEMB     11       POPC     C210     CEL1    -0.150000       12.0110           0
      1399 MEMB     11       POPC     H101     HEL1     0.150000       1.00800           0
      1400 MEMB     11       POPC     C211     CTL2    -0.180000       12.0110           0
      1401 MEMB     11       POPC     H11R     HAL2     0.900000E-01   1.00800           0
      1402 MEMB     11       POPC     H11S     HAL2     0.900000E-01   1.00800           0
      1403 MEMB     11       POPC     C212     CTL2    -0.180000       12.0110           0
      1404 MEMB     11       POPC     H12R     HAL2     0.900000E-01   1.00800           0
      1405 MEMB     11       POPC     H12S     HAL2     0.900000E-01   1.00800           0
      1406 MEMB     11       POPC     C213     CTL2    -0.180000       12.0110           0
      1407 MEMB     11       POPC     H13R     HAL2     0.900000E-01   1.00800           0
      1408 MEMB     11       POPC     H13S     HAL2     0.900000E-01   1.00800           0
      1409 MEMB     11       POPC     C214     CTL2    -0.180000       12.0110           0
      1410 MEMB     11       POPC     H14R     HAL2     0.900000E-01   1.00800           0
      1411 MEMB     11       POPC     H14S     HAL2     0.900000E-01   1.00800           0
      1412 MEMB     11       POPC     C215     CTL2    -0.180000       12.0110           0
      1413 MEMB     11       POPC     H15R     HAL2     0.900000E-01   1.00800           0
      1414 MEMB     11       POPC     H15S     HAL2     0.900000E-01   1.00800           0
      1415 MEMB     11       POPC     C216     CTL2    -0.180000       12.0110           0
      1416 MEMB     11       POPC     H16R     HAL2     0.900000E-01   1.00800           0
      1417 MEMB     11       POPC     H16S     HAL2     0.900000E-01   1.00800           0
      1418 MEMB     11       POPC     C217     CTL2    -0.180000       12.0110           0
      1419 MEMB     11       POPC     H17R     HAL2     0.900000E-01   1.00800           0
      1420 MEMB     11       POPC     H17S     HAL2     0.900000E-01   1.00800           0
      1421 MEMB     11       POPC     C218     CTL3    -0.270000       12.0110           0
      1422 MEMB     11       POPC     H18R     HAL3     0.900000E-01   1.00800           0
      1423 MEMB     11       POPC     H18S     HAL3     0.900000E-01   1.00800           0
      1424 MEMB     11       POPC     H18T     HAL3     0.900000E-01   1.00800           0
      1425 MEMB     11       POPC     C33      CTL2    -0.180000       12.0110           0
      1426 MEMB     11       POPC     H3X      HAL2     0.900000E-01   1.00800           0
      1427 MEMB     11       POPC     H3Y      HAL2     0.900000E-01   1.00800           0
      1428 MEMB     11       POPC     C34      CTL2    -0.180000       12.0110           0
      1429 MEMB     11       POPC     H4X      HAL2     0.900000E-01   1.00800           0
      1430 MEMB     11       POPC     H4Y      HAL2     0.900000E-01   1.00800           0
      1431 MEMB     11       POPC     C35      CTL2    -0.180000       12.0110           0
      1432 MEMB     11       POPC     H5X      HAL2     0.900000E-01   1.00800           0
      1433 MEMB     11       POPC     H5Y      HAL2     0.900000E-01   1.00800           0
      1434 MEMB     11       POPC     C36      CTL2    -0.180000       12.0110           0
      1435 MEMB     11       POPC     H6X      HAL2     0.900000E-01   1.00800           0
      1436 MEMB     11       POPC     H6Y      HAL2     0.900000E-01   1.00800           0
      1437 MEMB     11       POPC     C37      CTL2    -0.180000       12.0110           0
      1438 MEMB     11       POPC     H7X      HAL2     0.900000E-01   1.00800           0
      1439 MEMB     11       POPC     H7Y      HAL2     0.900000E-01   1.00800           0
      1440 MEMB     11       POPC     C38      CTL2    -0.180000       12.0110           0
      1441 MEMB     11       POPC     H8X      HAL2     0.900000E-01   1.00800           0
      1442 MEMB     11       POPC     H8Y      HAL2     0.900000E-01   1.00800           0
      1443 MEMB     11       POPC     C39      CTL2    -0.180000       12.0110           0
      1444 MEMB     11       POPC     H9X      HAL2     0.900000E-01   1.00800           0
      1445 MEMB     11       POPC     H9Y      HAL2     0.900000E-01   1.00800           0
      1446 MEMB     11       POPC     C310     CTL2    -0.180000       12.0110           0
      1447 MEMB     11       POPC     H10X     HAL2     0.900000E-01   1.00800           0
      1448 MEMB     11       POPC     H10Y     HAL2     0.900000E-01   1.00800           0
      1449 MEMB     11       POPC     C311     CTL2    -0.180000       12.0110           0
      1450 MEMB     11       POPC     H11X     HAL2     0.900000E-01   1.00800           0
      1451 MEMB     11       POPC     H11Y     HAL2     0.900000E-01   1.00800           0
      1452 MEMB     11       POPC     C312     CTL2    -0.180000       12.0110           0
      1453 MEMB     11       POPC     H12X     HAL2     0.900000E-01   1.00800           0
      1454 MEMB     11       POPC     H12Y     HAL2     0.900000E-01   1.00800           0
      1455 MEMB     11       POPC     C313     CTL2    -0.180000       12.0110           0
      1456 MEMB     11       POPC     H13X     HAL2     0.900000E-01   1.00800           0
      1457 MEMB     11       POPC     H13Y     HAL2     0.900000E-01   1.00800           0
      1458 MEMB     11       POPC     C314     CTL2    -0.180000       12.0110           0
      1459 MEMB     11       POPC     H14X     HAL2     0.900000E-01   1.00800           0
      1460 MEMB     11       POPC     H14Y     HAL2     0.900000E-01   1.00800           0
      1461 MEMB     11       POPC     C315     CTL2    -0.180000       12.0110           0
      1462 MEMB     11       POPC     H15X     HAL2     0.900000E-01   1.00800           0
      1463 MEMB     11       POPC     H15Y     HAL2     0.900000E-01   1.00800           0
      1464 MEMB     11       POPC     C316     CTL3    -0.270000       12.0110           0
      1465 MEMB     11       POPC     H16X     HAL3     0.900000E-01   1.00800           0
      1466 MEMB     11       POPC     H16Y     HAL3     0.900000E-01   1.00800           0
      1467 MEMB     11       POPC     H16Z     HAL3     0.900000E-01   1.00800           0
      1468 MEMB     12       POPC     N        NTL     -0.600000       14.0070           0
      1469 MEMB     12       POPC     C12      CTL2    -0.100000       12.0110           0
      1470 MEMB     12       POPC     H12A     HL       0.250000       1.00800           0
      1471 MEMB     12       POPC     H12B     HL       0.250000       1.00800           0
      1472 MEMB     12       POPC     C13      CTL5    -0.350000       12.0110           0
      1473 MEMB     12       POPC     H13A     HL       0.250000       1.00800           0
      1474 MEMB     12       POPC     H13B     HL       0.250000       1.00800           0
      1475 MEMB     12       POPC     H13C     HL       0.250000       1.00800           0
      1476 MEMB     12       POPC     C14      CTL5    -0.350000       12.0110           0
      1477 MEMB     12       POPC     H14A     HL       0.250000       1.00800           0
      1478 MEMB     12       POPC     H14B     HL       0.250000       1.00800           0
      1479 MEMB     12       POPC     H14C     HL       0.250000       1.00800           0
      1480 MEMB     12       POPC     C15      CTL5    -0.350000       12.0110           0
      1481 MEMB     12       POPC     H15A     HL       0.250000       1.00800           0
      1482 MEMB     12       POPC     H15B     HL       0.250000       1.00800           0
      1483 MEMB     12       POPC     H15C     HL       0.250000       1.00800           0
      1484 MEMB     12       POPC     C11      CTL2    -0.800000E-01   12.0110           0
      1485 MEMB     12       POPC     H11A     HAL2     0.900000E-01   1.00800           0
      1486 MEMB     12       POPC     H11B     HAL2     0.900000E-01   1.00800           0
      1487 MEMB     12       POPC     P        PL        1.50000       30.9740           0
      1488 MEMB     12       POPC     O13      O2L     -0.780000       15.9994           0
      1489 MEMB     12       POPC     O14      O2L     -0.780000       15.9994           0
      1490 MEMB     12       POPC     O12      OSLP    -0.570000       15.9994           0
      1491 MEMB     12       POPC     O11      OSLP    -0.570000       15.9994           0
      1492 MEMB     12       POPC     C1       CTL2    -0.800000E-01   12.0110           0
      1493 MEMB     12       POPC     HA       HAL2     0.900000E-01   1.00800           0
      1494 MEMB     12       POPC     HB       HAL2     0.900000E-01   1.00800           0
      1495 MEMB     12       POPC     C2       CTL1     0.170000       12.0110           0
      1496 MEMB     12       POPC     HS       HAL1     0.900000E-01   1.00800           0
      1497 MEMB     12       POPC     O21      OSL     -0.490000       15.9994           0
      1498 MEMB     12       POPC     C21      CL       0.900000       12.0110           0
      1499 MEMB     12       POPC     O22      OBL     -0.630000       15.9994           0
      1500 MEMB     12       POPC     C22      CTL2    -0.220000       12.0110           0
      1501 MEMB     12       POPC     H2R      HAL2     0.900000E-01   1.00800           0
      1502 MEMB     12       POPC     H2S      HAL2     0.900000E-01   1.00800           0
      1503 MEMB     12       POPC     C3       CTL2     0.800000E-01   12.0110           0
      1504 MEMB     12       POPC     HX       HAL2     0.900000E-01   1.00800           0
      1505 MEMB     12       POPC     HY       HAL2     0.900000E-01   1.00800           0
      1506 MEMB     12       POPC     O31      OSL     -0.490000       15.9994           0
      1507 MEMB     12       POPC     C31      CL       0.900000       12.0110           0
      1508 MEMB     12       POPC     O32      OBL     -0.630000       15.9994           0
      1509 MEMB     12       POPC     C32      CTL2    -0.220000       12.0110           0
      1510 MEMB     12       POPC     H2X      HAL2     0.900000E-01   1.00800           0
      1511 MEMB     12       POPC     H2Y      HAL2     0.900000E-01   1.00800           0
      1512 MEMB     12       POPC     C23      CTL2    -0.180000       12.0110           0
      1513 MEMB     12       POPC     H3R      HAL2     0.900000E-01   1.00800           0
      1514 MEMB     12       POPC     H3S      HAL2     0.900000E-01   1.00800           0
      1515 MEMB     12       POPC     C24      CTL2    -0.180000       12.0110           0
      1516 MEMB     12       POPC     H4R      HAL2     0.900000E-01   1.00800           0
      1517 MEMB     12       POPC     H4S      HAL2     0.900000E-01   1.00800           0
      1518 MEMB     12       POPC     C25      CTL2    -0.180000       12.0110           0
      1519 MEMB     12       POPC     H5R      HAL2     0.900000E-01   1.00800           0
      1520 MEMB     12       POPC     H5S      HAL2     0.900000E-01   1.00800           0
      1521 MEMB     12       POPC     C26      CTL2    -0.180000       12.0110           0
      1522 MEMB     12       POPC     H6R      HAL2     0.900000E-01   1.00800           0
      1523 MEMB     12       POPC     H6S      HAL2     0.900000E-01   1.00800           0
      1524 MEMB     12       POPC     C27      CTL2    -0.180000       12.0110           0
      1525 MEMB     12       POPC     H7R      HAL2     0.900000E-01   1.00800           0
      1526 MEMB     12       POPC     H7S      HAL2     0.900000E-01   1.00800           0
      1527 MEMB     12       POPC     C28      CTL2    -0.180000       12.0110           0
      1528 MEMB     12       POPC     H8R      HAL2     0.900000E-01   1.00800           0
      1529 MEMB     12       POPC     H8S      HAL2     0.900000E-01   1.00800           0
      1530 MEMB     12       POPC     C29      CEL1    -0.150000       12.0110           0
      1531 MEMB     12       POPC     H91      HEL1     0.150000       1.00800           0
      1532 MEMB     12       POPC     C210     CEL1    -0.150000       12.0110           0
      1533 MEMB     12       POPC     H101     HEL1     0.150000       1.00800           0
      1534 MEMB     12       POPC     C211     CTL2    -0.180000       12.0110           0
      1535 MEMB     12       POPC     H11R     HAL2     0.900000E-01   1.00800           0
      1536 MEMB     12       POPC     H11S     HAL2     0.900000E-01   1.00800           0
      1537 MEMB     12       POPC     C212     CTL2    -0.180000       12.0110           0
      1538 MEMB     12       POPC     H12R     HAL2     0.900000E-01   1.00800           0
      1539 MEMB     12       POPC     H12S     HAL2     0.900000E-01   1.00800           0
      1540 MEMB     12       POPC     C213     CTL2    -0.180000       12.0110           0
      1541 MEMB     12       POPC     H13R     HAL2     0.900000E-01   1.00800           0
      1542 MEMB     12       POPC     H13S     HAL2     0.900000E-01   1.00800           0
      1543 MEMB     12       POPC     C214     CTL2    -0.180000       12.0110           0
      1544 MEMB     12       POPC     H14R     HAL2     0.900000E-01   1.00800           0
      1545 MEMB     12       POPC     H14S     HAL2     0.900000E-01   1.00800           0
      1546 MEMB     12       POPC     C215     CTL2    -0.180000       12.0110           0
      1547 MEMB     12       POPC     H15R     HAL2     0.900000E-01   1.00800           0
      1548 MEMB     12       POPC     H15S     HAL2     0.900000E-01   1.00800           0
      1549 MEMB     12       POPC     C216     CTL2    -0.180000       12.0110           0
      1550 MEMB     12       POPC     H16R     HAL2     0.900000E-01   1.00800           0
      1551 MEMB     12       POPC     H16S     HAL2     0.900000E-01   1.00800           0
      1552 MEMB     12       POPC     C217     CTL2    -0.180000       12.0110           0
      1553 MEMB     12       POPC     H17R     HAL2     0.900000E-01   1.00800           0
      1554 MEMB     12       POPC     H17S     HAL2     0.900000E-01   1.00800           0
      1555 MEMB     12       POPC     C218     CTL3    -0.270000       12.0110           0
      1556 MEMB     12       POPC     H18R     HAL3     0.900000E-01   1.00800           0
      1557 MEMB     12       POPC     H18S     HAL3     0.900000E-01   1.00800           0
      1558 MEMB     12       POPC     H18T     HAL3     0.900000E-01   1.00800           0
      1559 MEMB     12       POPC     C33      CTL2    -0.180000       12.0110           0
      1560 MEMB     12       POPC     H3X      HAL2     0.900000E-01   1.00800           0
      1561 MEMB     12       POPC     H3Y      HAL2     0.900000E-01   1.00800           0
      1562 MEMB     12       POPC     C34      CTL2    -0.180000       12.0110           0
      1563 MEMB     12       POPC     H4X      HAL2     0.900000E-01   1.00800           0
      1564 MEMB     12       POPC     H4Y      HAL2     0.900000E-01   1.00800           0
      1565 MEMB     12       POPC     C35      CTL2    -0.180000       12.0110           0
      1566 MEMB     12       POPC     H5X      HAL2     0.900000E-01   1.00800           0
      1567 MEMB     12       POPC     H5Y      HAL2     0.900000E-01   1.00800           0
      1568 MEMB     12       POPC     C36      CTL2    -0.180000       12.0110           0
      1569 MEMB     12       POPC     H6X      HAL2     0.900000E-01   1.00800           0
      1570 MEMB     12       POPC     H6Y      HAL2     0.900000E-01   1.00800           0
      1571 MEMB     12       POPC     C37      CTL2    -0.180000       12.0110           0
      1572 MEMB     12       POPC     H7X      HAL2     0.900000E-01   1.00800           0
      1573 MEMB     12       POPC     H7Y      HAL2     0.900000E-01   1.00800           0
      1574 MEMB     12       POPC     C38      CTL2    -0.180000       12.0110           0
      1575 MEMB     12       POPC     H8X      HAL2     0.900000E-01   1.00800           0
      1576 MEMB     12       POPC     H8Y      HAL2     0.900000E-01   1.00800           0
      1577 MEMB     12       POPC     C39      CTL2    -0.180000       12.0110           0
      1578 MEMB     12       POPC     H9X      HAL2     0.900000E-01   1.00800           0
      1579 MEMB     12       POPC     H9Y      HAL2     0.900000E-01   1.00800           0
      1580 MEMB     12       POPC     C310     CTL2    -0.180000       12.0110           0
      1581 MEMB     12       POPC     H10X     HAL2     0.900000E-01   1.00800           0
      1582 MEMB     12       POPC     H10Y     HAL2     0.900000E-01   1.00800           0
      1583 MEMB     12       POPC     C311     CTL2    -0.180000       12.0110           0
      1584 MEMB     12       POPC     H11X     HAL2     0.900000E-01   1.00800           0
      1585 MEMB     12       POPC     H11Y     HAL2     0.900000E-01   1.00800           0
      1586 MEMB     12       POPC     C312     CTL2    -0.180000       12.0110           0
      1587 MEMB     12       POPC     H12X     HAL2     0.900000E-01   1.00800           0
      1588 MEMB     12       POPC     H12Y     HAL2     0.900000E-01   1.00800           0
      1589 MEMB     12       POPC     C313     CTL2    -0.180000       12.0110           0
      1590 MEMB     12       POPC     H13X     HAL2     0.900000E-01   1.00800           0
      1591 MEMB     12       POPC     H13Y     HAL2     0.900000E-01   1.00800           0
      1592 MEMB     12       POPC     C314     CTL2    -0.180000       12.0110           0
      1593 MEMB     12       POPC     H14X     HAL2     0.900000E-01   1.00800           0
      1594 MEMB     12       POPC     H14Y     HAL2     0.900000E-01   1.00800           0
      1595 MEMB     12       POPC     C315     CTL2    -0.180000       12.0110           0
      1596 MEMB     12       POPC     H15X     HAL2     0.900000E-01   1.00800           0
      1597 MEMB     12       POPC     H15Y     HAL2     0.900000E-01   1.00800           0
      1598 MEMB     12       POPC     C316     CTL3    -0.270000       12.0110           0
      1599 MEMB     12       POPC     H16X     HAL3     0.900000E-01   1.00800           0
      1600 MEMB     12       POPC     H16Y     HAL3     0.900000E-01   1.00800           0
      1601 MEMB     12       POPC     H16Z     HAL3     0.900000E-01   1.00800           0
      1602 MEMB     13       POPC     N        NTL     -0.600000       14.0070           0
      1603 MEMB     13       POPC     C12      CTL2    -0.100000       12.0110           0
      1604 MEMB     13       POPC     H12A     HL       0.250000       1.00800           0
      1605 MEMB     13       POPC     H12B     HL       0.250000       1.00800           0
      1606 MEMB     13       POPC     C13      CTL5    -0.350000       12.0110           0
      1607 MEMB     13       POPC     H13A     HL       0.250000       1.00800           0
      1608 MEMB     13       POPC     H13B     HL       0.250000       1.00800           0
      1609 MEMB     13       POPC     H13C     HL       0.250000       1.00800           0
      1610 MEMB     13       POPC     C14      CTL5    -0.350000       12.0110           0
      1611 MEMB     13       POPC     H14A     HL       0.250000       1.00800           0
      1612 MEMB     13       POPC     H14B     HL       0.250000       1.00800           0
      1613 MEMB     13       POPC     H14C     HL       0.250000       1.00800           0
      1614 MEMB     13       POPC     C15      CTL5    -0.350000       12.0110           0
      1615 MEMB     13       POPC     H15A     HL       0.250000       1.00800           0
      1616 MEMB     13       POPC     H15B     HL       0.250000       1.00800           0
      1617 MEMB     13       POPC     H15C     HL       0.250000       1.00800           0
      1618 MEMB     13       POPC     C11      CTL2    -0.800000E-01   12.0110           0
      1619 MEMB     13       POPC     H11A     HAL2     0.900000E-01   1.00800           0
      1620 MEMB     13       POPC     H11B     HAL2     0.900000E-01   1.00800           0
      1621 MEMB     13       POPC     P        PL        1.50000       30.9740           0
      1622 MEMB     13       POPC     O13      O2L     -0.780000       15.9994           0
      1623 MEMB     13       POPC     O14      O2L     -0.780000       15.9994           0
      1624 MEMB     13       POPC     O12      OSLP    -0.570000       15.9994           0
      1625 MEMB     13       POPC     O11      OSLP    -0.570000       15.9994           0
      1626 MEMB     13       POPC     C1       CTL2    -0.800000E-01   12.0110           0
      1627 MEMB     13       POPC     HA       HAL2     0.900000E-01   1.00800           0
      1628 MEMB     13       POPC     HB       HAL2     0.900000E-01   1.00800           0
      1629 MEMB     13       POPC     C2       CTL1     0.170000       12.0110           0
      1630 MEMB     13       POPC     HS       HAL1     0.900000E-01   1.00800           0
      1631 MEMB     13       POPC     O21      OSL     -0.490000       15.9994           0
      1632 MEMB     13       POPC     C21      CL       0.900000       12.0110           0
      1633 MEMB     13       POPC     O22      OBL     -0.630000       15.9994           0
      1634 MEMB     13       POPC     C22      CTL2    -0.220000       12.0110           0
      1635 MEMB     13       POPC     H2R      HAL2     0.900000E-01   1.00800           0
      1636 MEMB     13       POPC     H2S      HAL2     0.900000E-01   1.00800           0
      1637 MEMB     13       POPC     C3       CTL2     0.800000E-01   12.0110           0
      1638 MEMB     13       POPC     HX       HAL2     0.900000E-01   1.00800           0
      1639 MEMB     13       POPC     HY       HAL2     0.900000E-01   1.00800           0
      1640 MEMB     13       POPC     O31      OSL     -0.490000       15.9994           0
      1641 MEMB     13       POPC     C31      CL       0.900000       12.0110           0
      1642 MEMB     13       POPC     O32      OBL     -0.630000       15.9994           0
      1643 MEMB     13       POPC     C32      CTL2    -0.220000       12.0110           0
      1644 MEMB     13       POPC     H2X      HAL2     0.900000E-01   1.00800           0
      1645 MEMB     13       POPC     H2Y      HAL2     0.900000E-01   1.00800           0
      1646 MEMB     13       POPC     C23      CTL2    -0.180000       12.0110           0
      1647 MEMB     13       POPC     H3R      HAL2     0.900000E-01   1.00800           0
      1648 MEMB     13       POPC     H3S      HAL2     0.900000E-01   1.00800           0
      1649 MEMB     13       POPC     C24      CTL2    -0.180000       12.0110           0
      1650 MEMB     13       POPC     H4R      HAL2     0.900000E-01   1.00800           0
      1651 MEMB     13       POPC     H4S      HAL2     0.900000E-01   1.00800           0
      1652 MEMB     13       POPC     C25      CTL2    -0.180000       12.0110           0
      1653 MEMB     13       POPC     H5R      HAL2     0.900000E-01   1.00800           0
      1654 MEMB     13       POPC     H5S      HAL2     0.900000E-01   1.00800           0
      1655 MEMB     13       POPC     C26      CTL2    -0.180000       12.0110           0
      1656 MEMB     13       POPC     H6R      HAL2     0.900000E-01   1.00800           0
      1657 MEMB     13       POPC     H6S      HAL2     0.900000E-01   1.00800           0
      1658 MEMB     13       POPC     C27      CTL2    -0.180000       12.0110           0
      1659 MEMB     13       POPC     H7R      HAL2     0.900000E-01   1.00800           0
      1660 MEMB     13       POPC     H7S      HAL2     0.900000E-01   1.00800           0
      1661 MEMB     13       POPC     C28      CTL2    -0.180000       12.0110           0
      1662 MEMB     13       POPC     H8R      HAL2     0.900000E-01   1.00800           0
      1663 MEMB     13       POPC     H8S      HAL2     0.900000E-01   1.00800           0
      1664 MEMB     13       POPC     C29      CEL1    -0.150000       12.0110           0
      1665 MEMB     13       POPC     H91      HEL1     0.150000       1.00800           0
      1666 MEMB     13       POPC     C210     CEL1    -0.150000       12.0110           0
      1667 MEMB     13       POPC     H101     HEL1     0.150000       1.00800           0
      1668 MEMB     13       POPC     C211     CTL2    -0.180000       12.0110           0
      1669 MEMB     13       POPC     H11R     HAL2     0.900000E-01   1.00800           0
      1670 MEMB     13       POPC     H11S     HAL2     0.900000E-01   1.00800           0
      1671 MEMB     13       POPC     C212     CTL2    -0.180000       12.0110           0
      1672 MEMB     13       POPC     H12R     HAL2     0.900000E-01   1.00800           0
      1673 MEMB     13       POPC     H12S     HAL2     0.900000E-01   1.00800           0
      1674 MEMB     13       POPC     C213     CTL2    -0.180000       12.0110           0
      1675 MEMB     13       POPC     H13R     HAL2     0.900000E-01   1.00800           0
      1676 MEMB     13       POPC     H13S     HAL2     0.900000E-01   1.00800           0
      1677 MEMB     13       POPC     C214     CTL2    -0.180000       12.0110           0
      1678 MEMB     13       POPC     H14R     HAL2     0.900000E-01   1.00800           0
      1679 MEMB     13       POPC     H14S     HAL2     0.900000E-01   1.00800           0
      1680 MEMB     13       POPC     C215     CTL2    -0.180000       12.0110           0
      1681 MEMB     13       POPC     H15R     HAL2     0.900000E-01   1.00800           0
      1682 MEMB     13       POPC     H15S     HAL2     0.900000E-01   1.00800           0
      1683 MEMB     13       POPC     C216     CTL2    -0.180000       12.0110           0
      1684 MEMB     13       POPC     H16R     HAL2     0.900000E-01   1.00800           0
      1685 MEMB     13       POPC     H16S     HAL2     0.900000E-01   1.00800           0
      1686 MEMB     13       POPC     C217     CTL2    -0.180000       12.0110           0
      1687 MEMB     13       POPC     H17R     HAL2     0.900000E-01   1.00800           0
      1688 MEMB     13       POPC     H17S     HAL2     0.900000E-01   1.00800           0
      1689 MEMB     13       POPC     C218     CTL3    -0.270000       12.0110           0
      1690 MEMB     13       POPC     H18R     HAL3     0.900000E-01   1.00800           0
      1691 MEMB     13       POPC     H18S     HAL3     0.900000E-01   1.00800           0
      1692 MEMB     13       POPC     H18T     HAL3     0.900000E-01   1.00800           0
      1693 MEMB     13       POPC     C33      CTL2    -0.180000       12.0110           0
      1694 MEMB     13       POPC     H3X      HAL2     0.900000E-01   1.00800           0
      1695 MEMB     13       POPC     H3Y      HAL2     0.900000E-01   1.00800           0
      1696 MEMB     13       POPC     C34      CTL2    -0.180000       12.0110           0
      1697 MEMB     13       POPC     H4X      HAL2     0.900000E-01   1.00800           0
      1698 MEMB     13       POPC     H4Y      HAL2     0.900000E-01   1.00800           0
      1699 MEMB     13       POPC     C35      CTL2    -0.180000       12.0110           0
      1700 MEMB     13       POPC     H5X      HAL2     0.900000E-01   1.00800           0
      1701 MEMB     13       POPC     H5Y      HAL2     0.900000E-01   1.00800           0
      1702 MEMB     13       POPC     C36      CTL2    -0.180000       12.0110           0
      1703 MEMB     13       POPC     H6X      HAL2     0.900000E-01   1.00800           0
      1704 MEMB     13       POPC     H6Y      HAL2     0.900000E-01   1.00800           0
      1705 MEMB     13       POPC     C37      CTL2    -0.180000       12.0110           0
      1706 MEMB     13       POPC     H7X      HAL2     0.900000E-01   1.00800           0
      1707 MEMB     13       POPC     H7Y      HAL2     0.900000E-01   1.00800           0
      1708 MEMB     13       POPC     C38      CTL2    -0.180000       12.0110           0
      1709 MEMB     13       POPC     H8X      HAL2     0.900000E-01   1.00800           0
      1710 MEMB     13       POPC     H8Y      HAL2     0.900000E-01   1.00800           0
      1711 MEMB     13       POPC     C39      CTL2    -0.180000       12.0110           0
      1712 MEMB     13       POPC     H9X      HAL2     0.900000E-01   1.00800           0
      1713 MEMB     13       POPC     H9Y      HAL2     0.900000E-01   1.00800           0
      1714 MEMB     13       POPC     C310     CTL2    -0.180000       12.0110           0
      1715 MEMB     13       POPC     H10X     HAL2     0.900000E-01   1.00800           0
      1716 MEMB     13       POPC     H10Y     HAL2     0.900000E-01   1.00800           0
      1717 MEMB     13       POPC     C311     CTL2    -0.180000       12.0110           0
      1718 MEMB     13       POPC     H11X     HAL2     0.900000E-01   1.00800           0
      1719 MEMB     13       POPC     H11Y     HAL2     0.900000E-01   1.00800           0
      1720 MEMB     13       POPC     C312     CTL2    -0.180000       12.0110           0
      1721 MEMB     13       POPC     H12X     HAL2     0.900000E-01   1.00800           0
      1722 MEMB     13       POPC     H12Y     HAL2     0.900000E-01   1.00800           0
      1723 MEMB     13       POPC     C313     CTL2    -0.180000       12.0110           0
      1724 MEMB     13       POPC     H13X     HAL2     0.900000E-01   1.00800           0
      1725 MEMB     13       POPC     H13Y     HAL2     0.900000E-01   1.00800           0
      1726 MEMB     13       POPC     C314     CTL2    -0.180000       12.0110           0
      1727 MEMB     13       POPC     H14X     HAL2     0.900000E-01   1.00800           0
      1728 MEMB     13       POPC     H14Y     HAL2     0.900000E-01   1.00800           0
      1729 MEMB     13       POPC     C315     CTL2    -0.180000       12.0110           0
      1730 MEMB     13       POPC     H15X     HAL2     0.900000E-01   1.00800           0
      1731 MEMB     13       POPC     H15Y     HAL2     0.900000E-01   1.00800           0
      1732 MEMB     13       POPC     C316     CTL3    -0.270000       12.0110           0
      1733 MEMB     13       POPC     H16X     HAL3     0.900000E-01   1.00800           0
      1734 MEMB     13       POPC     H16Y     HAL3     0.900000E-01   1.00800           0
      1735 MEMB     13       POPC     H16Z     HAL3     0.900000E-01   1.00800           0
      1736 MEMB     14       POPC     N        NTL     -0.600000       14.0070           0
      1737 MEMB     14       POPC     C12      CTL2    -0.100000       12.0110           0
      1738 MEMB     14       POPC     H12A     HL       0.250000       1.00800           0
      1739 MEMB     14       POPC     H12B     HL       0.250000       1.00800           0
      1740 MEMB     14       POPC     C13      CTL5    -0.350000       12.0110           0
      1741 MEMB     14       POPC     H13A     HL       0.250000       1.00800           0
      1742 MEMB     14       POPC     H13B     HL       0.250000       1.00800           0
      1743 MEMB     14       POPC     H13C     HL       0.250000       1.00800           0
      1744 MEMB     14       POPC     C14      CTL5    -0.350000       12.0110           0
      1745 MEMB     14       POPC     H14A     HL       0.250000       1.00800           0
      1746 MEMB     14       POPC     H14B     HL       0.250000       1.00800           0
      1747 MEMB     14       POPC     H14C     HL       0.250000       1.00800           0
      1748 MEMB     14       POPC     C15      CTL5    -0.350000       12.0110           0
      1749 MEMB     14       POPC     H15A     HL       0.250000       1.00800           0
      1750 MEMB     14       POPC     H15B     HL       0.250000       1.00800           0
      1751 MEMB     14       POPC     H15C     HL       0.250000       1.00800           0
      1752 MEMB     14       POPC     C11      CTL2    -0.800000E-01   12.0110           0
      1753 MEMB     14       POPC     H11A     HAL2     0.900000E-01   1.00800           0
      1754 MEMB     14       POPC     H11B     HAL2     0.900000E-01   1.00800           0
      1755 MEMB     14       POPC     P        PL        1.50000       30.9740           0
      1756 MEMB     14       POPC     O13      O2L     -0.780000       15.9994           0
      1757 MEMB     14       POPC     O14      O2L     -0.780000       15.9994           0
      1758 MEMB     14       POPC     O12      OSLP    -0.570000       15.9994           0
      1759 MEMB     14       POPC     O11      OSLP    -0.570000       15.9994           0
      1760 MEMB     14       POPC     C1       CTL2    -0.800000E-01   12.0110           0
      1761 MEMB     14       POPC     HA       HAL2     0.900000E-01   1.00800           0
      1762 MEMB     14       POPC     HB       HAL2     0.900000E-01   1.00800           0
      1763 MEMB     14       POPC     C2       CTL1     0.170000       12.0110           0
      1764 MEMB     14       POPC     HS       HAL1     0.900000E-01   1.00800           0
      1765 MEMB     14       POPC     O21      OSL     -0.490000       15.9994           0
      1766 MEMB     14       POPC     C21      CL       0.900000       12.0110           0
      1767 MEMB     14       POPC     O22      OBL     -0.630000       15.9994           0
      1768 MEMB     14       POPC     C22      CTL2    -0.220000       12.0110           0
      1769 MEMB     14       POPC     H2R      HAL2     0.900000E-01   1.00800           0
      1770 MEMB     14       POPC     H2S      HAL2     0.900000E-01   1.00800           0
      1771 MEMB     14       POPC     C3       CTL2     0.800000E-01   12.0110           0
      1772 MEMB     14       POPC     HX       HAL2     0.900000E-01   1.00800           0
      1773 MEMB     14       POPC     HY       HAL2     0.900000E-01   1.00800           0
      1774 MEMB     14       POPC     O31      OSL     -0.490000       15.9994           0
      1775 MEMB     14       POPC     C31      CL       0.900000       12.0110           0
      1776 MEMB     14       POPC     O32      OBL     -0.630000       15.9994           0
      1777 MEMB     14       POPC     C32      CTL2    -0.220000       12.0110           0
      1778 MEMB     14       POPC     H2X      HAL2     0.900000E-01   1.00800           0
      1779 MEMB     14       POPC     H2Y      HAL2     0.900000E-01   1.00800           0
      1780 MEMB     14       POPC     C23      CTL2    -0.180000       12.0110           0
      1781 MEMB     14       POPC     H3R      HAL2     0.900000E-01   1.00800           0
      1782 MEMB     14       POPC     H3S      HAL2     0.900000E-01   1.00800           0
      1783 MEMB     14       POPC     C24      CTL2    -0.180000       12.0110           0
      1784 MEMB     14       POPC     H4R      HAL2     0.900000E-01   1.00800           0
      1785 MEMB     14       POPC     H4S      HAL2     0.900000E-01   1.00800           0
      1786 MEMB     14       POPC     C25      CTL2    -0.180000       12.0110           0
      1787 MEMB     14       POPC     H5R      HAL2     0.900000E-01   1.00800           0
      1788 MEMB     14       POPC     H5S      HAL2     0.900000E-01   1.00800           0
      1789 MEMB     14       POPC     C26      CTL2    -0.180000       12.0110           0
      1790 MEMB     14       POPC     H6R      HAL2     0.900000E-01   1.00800           0
      1791 MEMB     14       POPC     H6S      HAL2     0.900000E-01   1.00800           0
      1792 MEMB     14       POPC     C27      CTL2    -0.180000       12.0110           0
      1793 MEMB     14       POPC     H7R      HAL2     0.900000E-01   1.00800           0
      1794 MEMB     14       POPC     H7S      HAL2     0.900000E-01   1.00800           0
      1795 MEMB     14       POPC     C28      CTL2    -0.180000       12.0110           0
      1796 MEMB     14       POPC     H8R      HAL2     0.900000E-01   1.00800           0
      1797 MEMB     14       POPC     H8S      HAL2     0.900000E-01   1.00800           0
      1798 MEMB     14       POPC     C29      CEL1    -0.150000       12.0110           0
      1799 MEMB     14       POPC     H91      HEL1     0.150000       1.00800           0
      1800 MEMB     14       POPC     C210     CEL1    -0.150000       12.0110           0
      1801 MEMB     14       POPC     H101     HEL1     0.150000       1.00800           0
      1802 MEMB     14       POPC     C211     CTL2    -0.180000       12.0110           0
      1803 MEMB     14       POPC     H11R     HAL2     0.900000E-01   1.00800           0
      1804 MEMB     14       POPC     H11S     HAL2     0.900000E-01   1.00800           0
      1805 MEMB     14       POPC     C212     CTL2    -0.180000       12.0110           0
      1806 MEMB     14       POPC     H12R     HAL2     0.900000E-01   1.00800           0
      1807 MEMB     14       POPC     H12S     HAL2     0.900000E-01   1.00800           0
      1808 MEMB     14       POPC     C213     CTL2    -0.180000       12.0110           0
      1809 MEMB     14       POPC     H13R     HAL2     0.900000E-01   1.00800           0
      1810 MEMB     14       POPC     H13S     HAL2     0.900000E-01   1.00800           0
      1811 MEMB     14       POPC     C214     CTL2    -0.180000       12.0110           0
      1812 MEMB     14       POPC     H14R     HAL2     0.900000E-01   1.00800           0
      1813 MEMB     14       POPC     H14S     HAL2     0.900000E-01   1.00800           0
      1814 MEMB     14       POPC     C215     CTL2    -0.180000       12.0110           0
      1815 MEMB     14       POPC     H15R     HAL2     0.900000E-01   1.00800           0
      1816 MEMB     14       POPC     H15S     HAL2     0.900000E-01   1.00800           0
      1817 MEMB     14       POPC     C216     CTL2    -0.180000       12.0110           0
      1818 MEMB     14       POPC     H16R     HAL2     0.900000E-01   1.00800           0
      1819 MEMB     14       POPC     H16S     HAL2     0.900000E-01   1.00800           0
      1820 MEMB     14       POPC     C217     CTL2    -0.180000       12.0110           0
      1821 MEMB     14       POPC     H17R     HAL2     0.900000E-01   1.00800           0
      1822 MEMB     14       POPC     H17S     HAL2     0.900000E-01   1.00800           0
      1823 MEMB     14       POPC     C218     CTL3    -0.270000       12.0110           0
      1824 MEMB     14       POPC     H18R     HAL3     0.900000E-01   1.00800           0
      1825 MEMB     14       POPC     H18S     HAL3     0.900000E-01   1.00800           0
      1826 MEMB     14       POPC     H18T     HAL3     0.900000E-01   1.00800           0
      1827 MEMB     14       POPC     C33      CTL2    -0.180000       12.0110           0
      1828 MEMB     14       POPC     H3X      HAL2     0.900000E-01   1.00800           0
      1829 MEMB     14       POPC     H3Y      HAL2     0.900000E-01   1.00800           0
      1830 MEMB     14       POPC     C34      CTL2    -0.180000       12.0110           0
      1831 MEMB     14       POPC     H4X      HAL2     0.900000E-01   1.00800           0
      1832 MEMB     14       POPC     H4Y      HAL2     0.900000E-01   1.00800           0
      1833 MEMB     14       POPC     C35      CTL2    -0.180000       12.0110           0
      1834 MEMB     14       POPC     H5X      HAL2     0.900000E-01   1.00800           0
      1835 MEMB     14       POPC     H5Y      HAL2     0.900000E-01   1.00800           0
      1836 MEMB     14       POPC     C36      CTL2    -0.180000       12.0110           0
      1837 MEMB     14       POPC     H6X      HAL2     0.900000E-01   1.00800           0
      1838 MEMB     14       POPC     H6Y      HAL2     0.900000E-01   1.00800           0
      1839 MEMB     14       POPC     C37      CTL2    -0.180000       12.0110           0
      1840 MEMB     14       POPC     H7X      HAL2     0.900000E-01   1.00800           0
      1841 MEMB     14       POPC     H7Y      HAL2     0.900000E-01   1.00800           0
      1842 MEMB     14       POPC     C38      CTL2    -0.180000       12.0110           0
      1843 MEMB     14       POPC     H8X      HAL2     0.900000E-01   1.00800           0
      1844 MEMB     14       POPC     H8Y      HAL2     0.900000E-01   1.00800           0
      1845 MEMB     14       POPC     C39      CTL2    -0.180000       12.0110           0
      1846 MEMB     14       POPC     H9X      HAL2     0.900000E-01   1.00800           0
      1847 MEMB     14       POPC     H9Y      HAL2     0.900000E-01   1.00800           0
      1848 MEMB     14       POPC     C310     CTL2    -0.180000       12.0110           0
      1849 MEMB     14       POPC     H10X     HAL2     0.900000E-01   1.00800           0
      1850 MEMB     14       POPC     H10Y     HAL2     0.900000E-01   1.00800           0
      1851 MEMB     14       POPC     C311     CTL2    -0.180000       12.0110           0
      1852 MEMB     14       POPC     H11X     HAL2     0.900000E-01   1.00800           0
      1853 MEMB     14       POPC     H11Y     HAL2     0.900000E-01   1.00800           0
      1854 MEMB     14       POPC     C312     CTL2    -0.180000       12.0110           0
      1855 MEMB     14       POPC     H12X     HAL2     0.900000E-01   1.00800           0
      1856 MEMB     14       POPC     H12Y     HAL2     0.900000E-01   1.00800           0
      1857 MEMB     14       POPC     C313     CTL2    -0.180000       12.0110           0
      1858 MEMB     14       POPC     H13X     HAL2     0.900000E-01   1.00800           0
      1859 MEMB     14       POPC     H13Y     HAL2     0.900000E-01   1.00800           0
      1860 MEMB     14       POPC     C314     CTL2    -0.180000       12.0110           0
      1861 MEMB     14       POPC     H14X     HAL2     0.900000E-01   1.00800           0
      1862 MEMB     14       POPC     H14Y     HAL2     0.900000E-01   1.00800           0
      1863 MEMB     14       POPC     C315     CTL2    -0.180000       12.0110           0
      1864 MEMB     14       POPC     H15X     HAL2     0.900000E-01   1.00800           0
      1865 MEMB     14       POPC     H15Y     HAL2     0.900000E-01   1.00800           0
      1866 MEMB     14       POPC     C316     CTL3    -0.270000       12.0110           0
      1867 MEMB     14       POPC     H16X     HAL3     0.900000E-01   1.00800           0
      1868 MEMB     14       POPC     H16Y     HAL3     0.900000E-01   1.00800           0
      1869 MEMB     14       POPC     H16Z     HAL3     0.900000E-01   1.00800           0
      1870 MEMB     15       POPS     N        NH3L    -0.300000       14.0070           0
      1871 MEMB     15       POPS     HN1      HCL      0.330000       1.00800           0
      1872 MEMB     15       POPS     HN2      HCL      0.330000       1.00800           0
      1873 MEMB     15       POPS     HN3      HCL      0.330000       1.00800           0
      1874 MEMB     15       POPS     C12      CTL1     0.210000       12.0110           0
      1875 MEMB     15       POPS     H12A     HBL      0.100000       1.00800           0
      1876 MEMB     15       POPS     C13      CCL      0.340000       12.0110           0
      1877 MEMB     15       POPS     O13A     OCL     -0.670000       15.9994           0
      1878 MEMB     15       POPS     O13B     OCL     -0.670000       15.9994           0
      1879 MEMB     15       POPS     C11      CTL2    -0.800000E-01   12.0110           0
      1880 MEMB     15       POPS     H11A     HAL2     0.900000E-01   1.00800           0
      1881 MEMB     15       POPS     H11B     HAL2     0.900000E-01   1.00800           0
      1882 MEMB     15       POPS     P        PL        1.50000       30.9740           0
      1883 MEMB     15       POPS     O13      O2L     -0.780000       15.9994           0
      1884 MEMB     15       POPS     O14      O2L     -0.780000       15.9994           0
      1885 MEMB     15       POPS     O12      OSLP    -0.570000       15.9994           0
      1886 MEMB     15       POPS     O11      OSLP    -0.570000       15.9994           0
      1887 MEMB     15       POPS     C1       CTL2    -0.800000E-01   12.0110           0
      1888 MEMB     15       POPS     HA       HAL2     0.900000E-01   1.00800           0
      1889 MEMB     15       POPS     HB       HAL2     0.900000E-01   1.00800           0
      1890 MEMB     15       POPS     C2       CTL1     0.170000       12.0110           0
      1891 MEMB     15       POPS     HS       HAL1     0.900000E-01   1.00800           0
      1892 MEMB     15       POPS     O21      OSL     -0.490000       15.9994           0
      1893 MEMB     15       POPS     C21      CL       0.900000       12.0110           0
      1894 MEMB     15       POPS     O22      OBL     -0.630000       15.9994           0
      1895 MEMB     15       POPS     C22      CTL2    -0.220000       12.0110           0
      1896 MEMB     15       POPS     H2R      HAL2     0.900000E-01   1.00800           0
      1897 MEMB     15       POPS     H2S      HAL2     0.900000E-01   1.00800           0
      1898 MEMB     15       POPS     C3       CTL2     0.800000E-01   12.0110           0
      1899 MEMB     15       POPS     HX       HAL2     0.900000E-01   1.00800           0
      1900 MEMB     15       POPS     HY       HAL2     0.900000E-01   1.00800           0
      1901 MEMB     15       POPS     O31      OSL     -0.490000       15.9994           0
      1902 MEMB     15       POPS     C31      CL       0.900000       12.0110           0
      1903 MEMB     15       POPS     O32      OBL     -0.630000       15.9994           0
      1904 MEMB     15       POPS     C32      CTL2    -0.220000       12.0110           0
      1905 MEMB     15       POPS     H2X      HAL2     0.900000E-01   1.00800           0
      1906 MEMB     15       POPS     H2Y      HAL2     0.900000E-01   1.00800           0
      1907 MEMB     15       POPS     C23      CTL2    -0.180000       12.0110           0
      1908 MEMB     15       POPS     H3R      HAL2     0.900000E-01   1.00800           0
      1909 MEMB     15       POPS     H3S      HAL2     0.900000E-01   1.00800           0
      1910 MEMB     15       POPS     C24      CTL2    -0.180000       12.0110           0
      1911 MEMB     15       POPS     H4R      HAL2     0.900000E-01   1.00800           0
      1912 MEMB     15       POPS     H4S      HAL2     0.900000E-01   1.00800           0
      1913 MEMB     15       POPS     C25      CTL2    -0.180000       12.0110           0
      1914 MEMB     15       POPS     H5R      HAL2     0.900000E-01   1.00800           0
      1915 MEMB     15       POPS     H5S      HAL2     0.900000E-01   1.00800           0
      1916 MEMB     15       POPS     C26      CTL2    -0.180000       12.0110           0
      1917 MEMB     15       POPS     H6R      HAL2     0.900000E-01   1.00800           0
      1918 MEMB     15       POPS     H6S      HAL2     0.900000E-01   1.00800           0
      1919 MEMB     15       POPS     C27      CTL2    -0.180000       12.0110           0
      1920 MEMB     15       POPS     H7R      HAL2     0.900000E-01   1.00800           0
      1921 MEMB     15       POPS     H7S      HAL2     0.900000E-01   1.00800           0
      1922 MEMB     15       POPS     C28      CTL2    -0.180000       12.0110           0
      1923 MEMB     15       POPS     H8R      HAL2     0.900000E-01   1.00800           0
      1924 MEMB     15       POPS     H8S      HAL2     0.900000E-01   1.00800           0
      1925 MEMB     15       POPS     C29      CEL1    -0.150000       12.0110           0
      1926 MEMB     15       POPS     H91      HEL1     0.150000       1.00800           0
      1927 MEMB     15       POPS     C210     CEL1    -0.150000       12.0110           0
      1928 MEMB     15       POPS     H101     HEL1     0.150000       1.00800           0
      1929 MEMB     15       POPS     C211     CTL2    -0.180000       12.0110           0
      1930 MEMB     15       POPS     H11R     HAL2     0.900000E-01   1.00800           0
      1931 MEMB     15       POPS     H11S     HAL2     0.900000E-01   1.00800           0
      1932 MEMB     15       POPS     C212     CTL2    -0.180000       12.0110           0
      1933 MEMB     15       POPS     H12R     HAL2     0.900000E-01   1.00800           0
      1934 MEMB     15       POPS     H12S     HAL2     0.900000E-01   1.00800           0
      1935 MEMB     15       POPS     C213     CTL2    -0.180000       12.0110           0
      1936 MEMB     15       POPS     H13R     HAL2     0.900000E-01   1.00800           0
      1937 MEMB     15       POPS     H13S     HAL2     0.900000E-01   1.00800           0
      1938 MEMB     15       POPS     C214     CTL2    -0.180000       12.0110           0
      1939 MEMB     15       POPS     H14R     HAL2     0.900000E-01   1.00800           0
      1940 MEMB     15       POPS     H14S     HAL2     0.900000E-01   1.00800           0
      1941 MEMB     15       POPS     C215     CTL2    -0.180000       12.0110           0
      1942 MEMB     15       POPS     H15R     HAL2     0.900000E-01   1.00800           0
      1943 MEMB     15       POPS     H15S     HAL2     0.900000E-01   1.00800           0
      1944 MEMB     15       POPS     C216     CTL2    -0.180000       12.0110           0
      1945 MEMB     15       POPS     H16R     HAL2     0.900000E-01   1.00800           0
      1946 MEMB     15       POPS     H16S     HAL2     0.900000E-01   1.00800           0
      1947 MEMB     15       POPS     C217     CTL2    -0.180000       12.0110           0
      1948 MEMB     15       POPS     H17R     HAL2     0.900000E-01   1.00800           0
      1949 MEMB     15       POPS     H17S     HAL2     0.900000E-01   1.00800           0
      1950 MEMB     15       POPS     C218     CTL3    -0.270000       12.0110           0
      1951 MEMB     15       POPS     H18R     HAL3     0.900000E-01   1.00800           0
      1952 MEMB     15       POPS     H18S     HAL3     0.900000E-01   1.00800           0
      1953 MEMB     15       POPS     H18T     HAL3     0.900000E-01   1.00800           0
      1954 MEMB     15       POPS     C33      CTL2    -0.180000       12.0110           0
      1955 MEMB     15       POPS     H3X      HAL2     0.900000E-01   1.00800           0
      1956 MEMB     15       POPS     H3Y      HAL2     0.900000E-01   1.00800           0
      1957 MEMB     15       POPS     C34      CTL2    -0.180000       12.0110           0
      1958 MEMB     15       POPS     H4X      HAL2     0.900000E-01   1.00800           0
      1959 MEMB     15       POPS     H4Y      HAL2     0.900000E-01   1.00800           0
      1960 MEMB     15       POPS     C35      CTL2    -0.180000       12.0110           0
      1961 MEMB     15       POPS     H5X      HAL2     0.900000E-01   1.00800           0
      1962 MEMB     15       POPS     H5Y      HAL2     0.900000E-01   1.00800           0
      1963 MEMB     15       POPS     C36      CTL2    -0.180000       12.0110           0
      1964 MEMB     15       POPS     H6X      HAL2     0.900000E-01   1.00800           0
      1965 MEMB     15       POPS     H6Y      HAL2     0.900000E-01   1.00800           0
      1966 MEMB     15       POPS     C37      CTL2    -0.180000       12.0110           0
      1967 MEMB     15       POPS     H7X      HAL2     0.900000E-01   1.00800           0
      1968 MEMB     15       POPS     H7Y      HAL2     0.900000E-01   1.00800           0
      1969 MEMB     15       POPS     C38      CTL2    -0.180000       12.0110           0
      1970 MEMB     15       POPS     H8X      HAL2     0.900000E-01   1.00800           0
      1971 MEMB     15       POPS     H8Y      HAL2     0.900000E-01   1.00800           0
      1972 MEMB     15       POPS     C39      CTL2    -0.180000       12.0110           0
      1973 MEMB     15       POPS     H9X      HAL2     0.900000E-01   1.00800           0
      1974 MEMB     15       POPS     H9Y      HAL2     0.900000E-01   1.00800           0
      1975 MEMB     15       POPS     C310     CTL2    -0.180000       12.0110           0
      1976 MEMB     15       POPS     H10X     HAL2     0.900000E-01   1.00800           0
      1977 MEMB     15       POPS     H10Y     HAL2     0.900000E-01   1.00800           0
      1978 MEMB     15       POPS     C311     CTL2    -0.180000       12.0110           0
      1979 MEMB     15       POPS     H11X     HAL2     0.900000E-01   1.00800           0
      1980 MEMB     15       POPS     H11Y     HAL2     0.900000E-01   1.00800           0
      1981 MEMB     15       POPS     C312     CTL2    -0.180000       12.0110           0
      1982 MEMB     15       POPS     H12X     HAL2     0.900000E-01   1.00800           0
      1983 MEMB     15       POPS     H12Y     HAL2     0.900000E-01   1.00800           0
      1984 MEMB     15       POPS     C313     CTL2    -0.180000       12.0110           0
      1985 MEMB     15       POPS     H13X     HAL2     0.900000E-01   1.00800           0
      1986 MEMB     15       POPS     H13Y     HAL2     0.900000E-01   1.00800           0
      1987 MEMB     15       POPS     C314     CTL2    -0.180000       12.0110           0
      1988 MEMB     15       POPS     H14X     HAL2     0.900000E-01   1.00800           0
      1989 MEMB     15       POPS     H14Y     HAL2     0.900000E-01   1.00800           0
      1990 MEMB     15       POPS     C315     CTL2    -0.180000       12.0110           0
      1991 MEMB     15       POPS     H15X     HAL2     0.900000E-01   1.00800           0
      1992 MEMB     15       POPS     H15Y     HAL2     0.900000E-01   1.00800           0
      1993 MEMB     15       POPS     C316     CTL3    -0.270000       12.0110           0
      1994 MEMB     15       POPS     H16X     HAL3     0.900000E-01   1.00800           0
      1995 MEMB     15       POPS     H16Y     HAL3     0.900000E-01   1.00800           0
      1996 MEMB     15       POPS     H16Z     HAL3     0.900000E-01   1.00800           0
      1997 MEMB     16       POPC     N        NTL     -0.600000       14.0070           0
      1998 MEMB     16       POPC     C12      CTL2    -0.100000       12.0110           0
      1999 MEMB     16       POPC     H12A     HL       0.250000       1.00800           0
      2000 MEMB     16       POPC     H12B     HL       0.250000       1.00800           0
      2001 MEMB     16       POPC     C13      CTL5    -0.350000       12.0110           0
      2002 MEMB     16       POPC     H13A     HL       0.250000       1.00800           0
      2003 MEMB     16       POPC     H13B     HL       0.250000       1.00800           0
      2004 MEMB     16       POPC     H13C     HL       0.250000       1.00800           0
      2005 MEMB     16       POPC     C14      CTL5    -0.350000       12.0110           0
      2006 MEMB     16       POPC     H14A     HL       0.250000       1.00800           0
      2007 MEMB     16       POPC     H14B     HL       0.250000       1.00800           0
      2008 MEMB     16       POPC     H14C     HL       0.250000       1.00800           0
      2009 MEMB     16       POPC     C15      CTL5    -0.350000       12.0110           0
      2010 MEMB     16       POPC     H15A     HL       0.250000       1.00800           0
      2011 MEMB     16       POPC     H15B     HL       0.250000       1.00800           0
      2012 MEMB     16       POPC     H15C     HL       0.250000       1.00800           0
      2013 MEMB     16       POPC     C11      CTL2    -0.800000E-01   12.0110           0
      2014 MEMB     16       POPC     H11A     HAL2     0.900000E-01   1.00800           0
      2015 MEMB     16       POPC     H11B     HAL2     0.900000E-01   1.00800           0
      2016 MEMB     16       POPC     P        PL        1.50000       30.9740           0
      2017 MEMB     16       POPC     O13      O2L     -0.780000       15.9994           0
      2018 MEMB     16       POPC     O14      O2L     -0.780000       15.9994           0
      2019 MEMB     16       POPC     O12      OSLP    -0.570000       15.9994           0
      2020 MEMB     16       POPC     O11      OSLP    -0.570000       15.9994           0
      2021 MEMB     16       POPC     C1       CTL2    -0.800000E-01   12.0110           0
      2022 MEMB     16       POPC     HA       HAL2     0.900000E-01   1.00800           0
      2023 MEMB     16       POPC     HB       HAL2     0.900000E-01   1.00800           0
      2024 MEMB     16       POPC     C2       CTL1     0.170000       12.0110           0
      2025 MEMB     16       POPC     HS       HAL1     0.900000E-01   1.00800           0
      2026 MEMB     16       POPC     O21      OSL     -0.490000       15.9994           0
      2027 MEMB     16       POPC     C21      CL       0.900000       12.0110           0
      2028 MEMB     16       POPC     O22      OBL     -0.630000       15.9994           0
      2029 MEMB     16       POPC     C22      CTL2    -0.220000       12.0110           0
      2030 MEMB     16       POPC     H2R      HAL2     0.900000E-01   1.00800           0
      2031 MEMB     16       POPC     H2S      HAL2     0.900000E-01   1.00800           0
      2032 MEMB     16       POPC     C3       CTL2     0.800000E-01   12.0110           0
      2033 MEMB     16       POPC     HX       HAL2     0.900000E-01   1.00800           0
      2034 MEMB     16       POPC     HY       HAL2     0.900000E-01   1.00800           0
      2035 MEMB     16       POPC     O31      OSL     -0.490000       15.9994           0
      2036 MEMB     16       POPC     C31      CL       0.900000       12.0110           0
      2037 MEMB     16       POPC     O32      OBL     -0.630000       15.9994           0
      2038 MEMB     16       POPC     C32      CTL2    -0.220000       12.0110           0
      2039 MEMB     16       POPC     H2X      HAL2     0.900000E-01   1.00800           0
      2040 MEMB     16       POPC     H2Y      HAL2     0.900000E-01   1.00800           0
      2041 MEMB     16       POPC     C23      CTL2    -0.180000       12.0110           0
      2042 MEMB     16       POPC     H3R      HAL2     0.900000E-01   1.00800           0
      2043 MEMB     16       POPC     H3S      HAL2     0.900000E-01   1.00800           0
      2044 MEMB     16       POPC     C24      CTL2    -0.180000       12.0110           0
      2045 MEMB     16       POPC     H4R      HAL2     0.900000E-01   1.00800           0
      2046 MEMB     16       POPC     H4S      HAL2     0.900000E-01   1.00800           0
      2047 MEMB     16       POPC     C25      CTL2    -0.180000       12.0110           0
      2048 MEMB     16       POPC     H5R      HAL2     0.900000E-01   1.00800           0
      2049 MEMB     16       POPC     H5S      HAL2     0.900000E-01   1.00800           0
      2050 MEMB     16       POPC     C26      CTL2    -0.180000       12.0110           0
      2051 MEMB     16       POPC     H6R      HAL2     0.900000E-01   1.00800           0
      2052 MEMB     16       POPC     H6S      HAL2     0.900000E-01   1.00800           0
      2053 MEMB     16       POPC     C27      CTL2    -0.180000       12.0110           0
      2054 MEMB     16       POPC     H7R      HAL2     0.900000E-01   1.00800           0
      2055 MEMB     16       POPC     H7S      HAL2     0.900000E-01   1.00800           0
      2056 MEMB     16       POPC     C28      CTL2    -0.180000       12.0110           0
      2057 MEMB     16       POPC     H8R      HAL2     0.900000E-01   1.00800           0
      2058 MEMB     16       POPC     H8S      HAL2     0.900000E-01   1.00800           0
      2059 MEMB     16       POPC     C29      CEL1    -0.150000       12.0110           0
      2060 MEMB     16       POPC     H91      HEL1     0.150000       1.00800           0
      2061 MEMB     16       POPC     C210     CEL1    -0.150000       12.0110           0
      2062 MEMB     16       POPC     H101     HEL1     0.150000       1.00800           0
      2063 MEMB     16       POPC     C211     CTL2    -0.180000       12.0110           0
      2064 MEMB     16       POPC     H11R     HAL2     0.900000E-01   1.00800           0
      2065 MEMB     16       POPC     H11S     HAL2     0.900000E-01   1.00800           0
      2066 MEMB     16       POPC     C212     CTL2    -0.180000       12.0110           0
      2067 MEMB     16       POPC     H12R     HAL2     0.900000E-01   1.00800           0
      2068 MEMB     16       POPC     H12S     HAL2     0.900000E-01   1.00800           0
      2069 MEMB     16       POPC     C213     CTL2    -0.180000       12.0110           0
      2070 MEMB     16       POPC     H13R     HAL2     0.900000E-01   1.00800           0
      2071 MEMB     16       POPC     H13S     HAL2     0.900000E-01   1.00800           0
      2072 MEMB     16       POPC     C214     CTL2    -0.180000       12.0110           0
      2073 MEMB     16       POPC     H14R     HAL2     0.900000E-01   1.00800           0
      2074 MEMB     16       POPC     H14S     HAL2     0.900000E-01   1.00800           0
      2075 MEMB     16       POPC     C215     CTL2    -0.180000       12.0110           0
      2076 MEMB     16       POPC     H15R     HAL2     0.900000E-01   1.00800           0
      2077 MEMB     16       POPC     H15S     HAL2     0.900000E-01   1.00800           0
      2078 MEMB     16       POPC     C216     CTL2    -0.180000       12.0110           0
      2079 MEMB     16       POPC     H16R     HAL2     0.900000E-01   1.00800           0
      2080 MEMB     16       POPC     H16S     HAL2     0.900000E-01   1.00800           0
      2081 MEMB     16       POPC     C217     CTL2    -0.180000       12.0110           0
      2082 MEMB     16       POPC     H17R     HAL2     0.900000E-01   1.00800           0
      2083 MEMB     16       POPC     H17S     HAL2     0.900000E-01   1.00800           0
      2084 MEMB     16       POPC     C218     CTL3    -0.270000       12.0110           0
      2085 MEMB     16       POPC     H18R     HAL3     0.900000E-01   1.00800           0
      2086 MEMB     16       POPC     H18S     HAL3     0.900000E-01   1.00800           0
      2087 MEMB     16       POPC     H18T     HAL3     0.900000E-01   1.00800           0
      2088 MEMB     16       POPC     C33      CTL2    -0.180000       12.0110           0
      2089 MEMB     16       POPC     H3X      HAL2     0.900000E-01   1.00800           0
      2090 MEMB     16       POPC     H3Y      HAL2     0.900000E-01   1.00800           0
      2091 MEMB     16       POPC     C34      CTL2    -0.180000       12.0110           0
      2092 MEMB     16       POPC     H4X      HAL2     0.900000E-01   1.00800           0
      2093 MEMB     16       POPC     H4Y      HAL2     0.900000E-01   1.00800           0
      2094 MEMB     16       POPC     C35      CTL2    -0.180000       12.0110           0
      2095 MEMB     16       POPC     H5X      HAL2     0.900000E-01   1.00800           0
      2096 MEMB     16       POPC     H5Y      HAL2     0.900000E-01   1.00800           0
      2097 MEMB     16       POPC     C36      CTL2    -0.180000       12.0110           0
      2098 MEMB     16       POPC     H6X      HAL2     0.900000E-01   1.00800           0
      2099 MEMB     16       POPC     H6Y      HAL2     0.900000E-01   1.00800           0
      2100 MEMB     16       POPC     C37      CTL2    -0.180000       12.0110           0
      2101 MEMB     16       POPC     H7X      HAL2     0.900000E-01   1.00800           0
      2102 MEMB     16       POPC     H7Y      HAL2     0.900000E-01   1.00800           0
      2103 MEMB     16       POPC     C38      CTL2    -0.180000       12.0110           0
      2104 MEMB     16       POPC     H8X      HAL2     0.900000E-01   1.00800           0
      2105 MEMB     16       POPC     H8Y      HAL2     0.900000E-01   1.00800           0
      2106 MEMB     16       POPC     C39      CTL2    -0.180000       12.0110           0
      2107 MEMB     16       POPC     H9X      HAL2     0.900000E-01   1.00800           0
      2108 MEMB     16       POPC     H9Y      HAL2     0.900000E-01   1.00800           0
      2109 MEMB     16       POPC     C310     CTL2    -0.180000       12.0110           0
      2110 MEMB     16       POPC     H10X     HAL2     0.900000E-01   1.00800           0
      2111 MEMB     16       POPC     H10Y     HAL2     0.900000E-01   1.00800           0
      2112 MEMB     16       POPC     C311     CTL2    -0.180000       12.0110           0
      2113 MEMB     16       POPC     H11X     HAL2     0.900000E-01   1.00800           0
      2114 MEMB     16       POPC     H11Y     HAL2     0.900000E-01   1.00800           0
      2115 MEMB     16       POPC     C312     CTL2    -0.180000       12.0110           0
      2116 MEMB     16       POPC     H12X     HAL2     0.900000E-01   1.00800           0
      2117 MEMB     16       POPC     H12Y     HAL2     0.900000E-01   1.00800           0
      2118 MEMB     16       POPC     C313     CTL2    -0.180000       12.0110           0
      2119 MEMB     16       POPC     H13X     HAL2     0.900000E-01   1.00800           0
      2120 MEMB     16       POPC     H13Y     HAL2     0.900000E-01   1.00800           0
      2121 MEMB     16       POPC     C314     CTL2    -0.180000       12.0110           0
      2122 MEMB     16       POPC     H14X     HAL2     0.900000E-01   1.00800           0
      2123 MEMB     16       POPC     H14Y     HAL2     0.900000E-01   1.00800           0
      2124 MEMB     16       POPC     C315     CTL2    -0.180000       12.0110           0
      2125 MEMB     16       POPC     H15X     HAL2     0.900000E-01   1.00800           0
      2126 MEMB     16       POPC     H15Y     HAL2     0.900000E-01   1.00800           0
      2127 MEMB     16       POPC     C316     CTL3    -0.270000       12.0110           0
      2128 MEMB     16       POPC     H16X     HAL3     0.900000E-01   1.00800           0
      2129 MEMB     16       POPC     H16Y     HAL3     0.900000E-01   1.00800           0
      2130 MEMB     16       POPC     H16Z     HAL3     0.900000E-01   1.00800           0
      2131 MEMB     17       POPC     N        NTL     -0.600000       14.0070           0
      2132 MEMB     17       POPC     C12      CTL2    -0.100000       12.0110           0
      2133 MEMB     17       POPC     H12A     HL       0.250000       1.00800           0
      2134 MEMB     17       POPC     H12B     HL       0.250000       1.00800           0
      2135 MEMB     17       POPC     C13      CTL5    -0.350000       12.0110           0
      2136 MEMB     17       POPC     H13A     HL       0.250000       1.00800           0
      2137 MEMB     17       POPC     H13B     HL       0.250000       1.00800           0
      2138 MEMB     17       POPC     H13C     HL       0.250000       1.00800           0
      2139 MEMB     17       POPC     C14      CTL5    -0.350000       12.0110           0
      2140 MEMB     17       POPC     H14A     HL       0.250000       1.00800           0
      2141 MEMB     17       POPC     H14B     HL       0.250000       1.00800           0
      2142 MEMB     17       POPC     H14C     HL       0.250000       1.00800           0
      2143 MEMB     17       POPC     C15      CTL5    -0.350000       12.0110           0
      2144 MEMB     17       POPC     H15A     HL       0.250000       1.00800           0
      2145 MEMB     17       POPC     H15B     HL       0.250000       1.00800           0
      2146 MEMB     17       POPC     H15C     HL       0.250000       1.00800           0
      2147 MEMB     17       POPC     C11      CTL2    -0.800000E-01   12.0110           0
      2148 MEMB     17       POPC     H11A     HAL2     0.900000E-01   1.00800           0
      2149 MEMB     17       POPC     H11B     HAL2     0.900000E-01   1.00800           0
      2150 MEMB     17       POPC     P        PL        1.50000       30.9740           0
      2151 MEMB     17       POPC     O13      O2L     -0.780000       15.9994           0
      2152 MEMB     17       POPC     O14      O2L     -0.780000       15.9994           0
      2153 MEMB     17       POPC     O12      OSLP    -0.570000       15.9994           0
      2154 MEMB     17       POPC     O11      OSLP    -0.570000       15.9994           0
      2155 MEMB     17       POPC     C1       CTL2    -0.800000E-01   12.0110           0
      2156 MEMB     17       POPC     HA       HAL2     0.900000E-01   1.00800           0
      2157 MEMB     17       POPC     HB       HAL2     0.900000E-01   1.00800           0
      2158 MEMB     17       POPC     C2       CTL1     0.170000       12.0110           0
      2159 MEMB     17       POPC     HS       HAL1     0.900000E-01   1.00800           0
      2160 MEMB     17       POPC     O21      OSL     -0.490000       15.9994           0
      2161 MEMB     17       POPC     C21      CL       0.900000       12.0110           0
      2162 MEMB     17       POPC     O22      OBL     -0.630000       15.9994           0
      2163 MEMB     17       POPC     C22      CTL2    -0.220000       12.0110           0
      2164 MEMB     17       POPC     H2R      HAL2     0.900000E-01   1.00800           0
      2165 MEMB     17       POPC     H2S      HAL2     0.900000E-01   1.00800           0
      2166 MEMB     17       POPC     C3       CTL2     0.800000E-01   12.0110           0
      2167 MEMB     17       POPC     HX       HAL2     0.900000E-01   1.00800           0
      2168 MEMB     17       POPC     HY       HAL2     0.900000E-01   1.00800           0
      2169 MEMB     17       POPC     O31      OSL     -0.490000       15.9994           0
      2170 MEMB     17       POPC     C31      CL       0.900000       12.0110           0
      2171 MEMB     17       POPC     O32      OBL     -0.630000       15.9994           0
      2172 MEMB     17       POPC     C32      CTL2    -0.220000       12.0110           0
      2173 MEMB     17       POPC     H2X      HAL2     0.900000E-01   1.00800           0
      2174 MEMB     17       POPC     H2Y      HAL2     0.900000E-01   1.00800           0
      2175 MEMB     17       POPC     C23      CTL2    -0.180000       12.0110           0
      2176 MEMB     17       POPC     H3R      HAL2     0.900000E-01   1.00800           0
      2177 MEMB     17       POPC     H3S      HAL2     0.900000E-01   1.00800           0
      2178 MEMB     17       POPC     C24      CTL2    -0.180000       12.0110           0
      2179 MEMB     17       POPC     H4R      HAL2     0.900000E-01   1.00800           0
      2180 MEMB     17       POPC     H4S      HAL2     0.900000E-01   1.00800           0
      2181 MEMB     17       POPC     C25      CTL2    -0.180000       12.0110           0
      2182 MEMB     17       POPC     H5R      HAL2     0.900000E-01   1.00800           0
      2183 MEMB     17       POPC     H5S      HAL2     0.900000E-01   1.00800           0
      2184 MEMB     17       POPC     C26      CTL2    -0.180000       12.0110           0
      2185 MEMB     17       POPC     H6R      HAL2     0.900000E-01   1.00800           0
      2186 MEMB     17       POPC     H6S      HAL2     0.900000E-01   1.00800           0
      2187 MEMB     17       POPC     C27      CTL2    -0.180000       12.0110           0
      2188 MEMB     17       POPC     H7R      HAL2     0.900000E-01   1.00800           0
      2189 MEMB     17       POPC     H7S      HAL2     0.900000E-01   1.00800           0
      2190 MEMB     17       POPC     C28      CTL2    -0.180000       12.0110           0
      2191 MEMB     17       POPC     H8R      HAL2     0.900000E-01   1.00800           0
      2192 MEMB     17       POPC     H8S      HAL2     0.900000E-01   1.00800           0
      2193 MEMB     17       POPC     C29      CEL1    -0.150000       12.0110           0
      2194 MEMB     17       POPC     H91      HEL1     0.150000       1.00800           0
      2195 MEMB     17       POPC     C210     CEL1    -0.150000       12.0110           0
      2196 MEMB     17       POPC     H101     HEL1     0.150000       1.00800           0
      2197 MEMB     17       POPC     C211     CTL2    -0.180000       12.0110           0
      2198 MEMB     17       POPC     H11R     HAL2     0.900000E-01   1.00800           0
      2199 MEMB     17       POPC     H11S     HAL2     0.900000E-01   1.00800           0
      2200 MEMB     17       POPC     C212     CTL2    -0.180000       12.0110           0
      2201 MEMB     17       POPC     H12R     HAL2     0.900000E-01   1.00800           0
      2202 MEMB     17       POPC     H12S     HAL2     0.900000E-01   1.00800           0
      2203 MEMB     17       POPC     C213     CTL2    -0.180000       12.0110           0
      2204 MEMB     17       POPC     H13R     HAL2     0.900000E-01   1.00800           0
      2205 MEMB     17       POPC     H13S     HAL2     0.900000E-01   1.00800           0
      2206 MEMB     17       POPC     C214     CTL2    -0.180000       12.0110           0
      2207 MEMB     17       POPC     H14R     HAL2     0.900000E-01   1.00800           0
      2208 MEMB     17       POPC     H14S     HAL2     0.900000E-01   1.00800           0
      2209 MEMB     17       POPC     C215     CTL2    -0.180000       12.0110           0
      2210 MEMB     17       POPC     H15R     HAL2     0.900000E-01   1.00800           0
      2211 MEMB     17       POPC     H15S     HAL2     0.900000E-01   1.00800           0
      2212 MEMB     17       POPC     C216     CTL2    -0.180000       12.0110           0
      2213 MEMB     17       POPC     H16R     HAL2     0.900000E-01   1.00800           0
      2214 MEMB     17       POPC     H16S     HAL2     0.900000E-01   1.00800           0
      2215 MEMB     17       POPC     C217     CTL2    -0.180000       12.0110           0
      2216 MEMB     17       POPC     H17R     HAL2     0.900000E-01   1.00800           0
      2217 MEMB     17       POPC     H17S     HAL2     0.900000E-01   1.00800           0
      2218 MEMB     17       POPC     C218     CTL3    -0.270000       12.0110           0
      2219 MEMB     17       POPC     H18R     HAL3     0.900000E-01   1.00800           0
      2220 MEMB     17       POPC     H18S     HAL3     0.900000E-01   1.00800           0
      2221 MEMB     17       POPC     H18T     HAL3     0.900000E-01   1.00800           0
      2222 MEMB     17       POPC     C33      CTL2    -0.180000       12.0110           0
      2223 MEMB     17       POPC     H3X      HAL2     0.900000E-01   1.00800           0
      2224 MEMB     17       POPC     H3Y      HAL2     0.900000E-01   1.00800           0
      2225 MEMB     17       POPC     C34      CTL2    -0.180000       12.0110           0
      2226 MEMB     17       POPC     H4X      HAL2     0.900000E-01   1.00800           0
      2227 MEMB     17       POPC     H4Y      HAL2     0.900000E-01   1.00800           0
      2228 MEMB     17       POPC     C35      CTL2    -0.180000       12.0110           0
      2229 MEMB     17       POPC     H5X      HAL2     0.900000E-01   1.00800           0
      2230 MEMB     17       POPC     H5Y      HAL2     0.900000E-01   1.00800           0
      2231 MEMB     17       POPC     C36      CTL2    -0.180000       12.0110           0
      2232 MEMB     17       POPC     H6X      HAL2     0.900000E-01   1.00800           0
      2233 MEMB     17       POPC     H6Y      HAL2     0.900000E-01   1.00800           0
      2234 MEMB     17       POPC     C37      CTL2    -0.180000       12.0110           0
      2235 MEMB     17       POPC     H7X      HAL2     0.900000E-01   1.00800           0
      2236 MEMB     17       POPC     H7Y      HAL2     0.900000E-01   1.00800           0
      2237 MEMB     17       POPC     C38      CTL2    -0.180000       12.0110           0
      2238 MEMB     17       POPC     H8X      HAL2     0.900000E-01   1.00800           0
      2239 MEMB     17       POPC     H8Y      HAL2     0.900000E-01   1.00800           0
      2240 MEMB     17       POPC     C39      CTL2    -0.180000       12.0110           0
      2241 MEMB     17       POPC     H9X      HAL2     0.900000E-01   1.00800           0
      2242 MEMB     17       POPC     H9Y      HAL2     0.900000E-01   1.00800           0
      2243 MEMB     17       POPC     C310     CTL2    -0.180000       12.0110           0
      2244 MEMB     17       POPC     H10X     HAL2     0.900000E-01   1.00800           0
      2245 MEMB     17       POPC     H10Y     HAL2     0.900000E-01   1.00800           0
      2246 MEMB     17       POPC     C311     CTL2    -0.180000       12.0110           0
      2247 MEMB     17       POPC     H11X     HAL2     0.900000E-01   1.00800           0
      2248 MEMB     17       POPC     H11Y     HAL2     0.900000E-01   1.00800           0
      2249 MEMB     17       POPC     C312     CTL2    -0.180000       12.0110           0
      2250 MEMB     17       POPC     H12X     HAL2     0.900000E-01   1.00800           0
      2251 MEMB     17       POPC     H12Y     HAL2     0.900000E-01   1.00800           0
      2252 MEMB     17       POPC     C313     CTL2    -0.180000       12.0110           0
      2253 MEMB     17       POPC     H13X     HAL2     0.900000E-01   1.00800           0
      2254 MEMB     17       POPC     H13Y     HAL2     0.900000E-01   1.00800           0
      2255 MEMB     17       POPC     C314     CTL2    -0.180000       12.0110           0
      2256 MEMB     17       POPC     H14X     HAL2     0.900000E-01   1.00800           0
      2257 MEMB     17       POPC     H14Y     HAL2     0.900000E-01   1.00800           0
      2258 MEMB     17       POPC     C315     CTL2    -0.180000       12.0110           0
      2259 MEMB     17       POPC     H15X     HAL2     0.900000E-01   1.00800           0
      2260 MEMB     17       POPC     H15Y     HAL2     0.900000E-01   1.00800           0
      2261 MEMB     17       POPC     C316     CTL3    -0.270000       12.0110           0
      2262 MEMB     17       POPC     H16X     HAL3     0.900000E-01   1.00800           0
      2263 MEMB     17       POPC     H16Y     HAL3     0.900000E-01   1.00800           0
      2264 MEMB     17       POPC     H16Z     HAL3     0.900000E-01   1.00800           0
      2265 MEMB     18       POPC     N        NTL     -0.600000       14.0070           0
      2266 MEMB     18       POPC     C12      CTL2    -0.100000       12.0110           0
      2267 MEMB     18       POPC     H12A     HL       0.250000       1.00800           0
      2268 MEMB     18       POPC     H12B     HL       0.250000       1.00800           0
      2269 MEMB     18       POPC     C13      CTL5    -0.350000       12.0110           0
      2270 MEMB     18       POPC     H13A     HL       0.250000       1.00800           0
      2271 MEMB     18       POPC     H13B     HL       0.250000       1.00800           0
      2272 MEMB     18       POPC     H13C     HL       0.250000       1.00800           0
      2273 MEMB     18       POPC     C14      CTL5    -0.350000       12.0110           0
      2274 MEMB     18       POPC     H14A     HL       0.250000       1.00800           0
      2275 MEMB     18       POPC     H14B     HL       0.250000       1.00800           0
      2276 MEMB     18       POPC     H14C     HL       0.250000       1.00800           0
      2277 MEMB     18       POPC     C15      CTL5    -0.350000       12.0110           0
      2278 MEMB     18       POPC     H15A     HL       0.250000       1.00800           0
      2279 MEMB     18       POPC     H15B     HL       0.250000       1.00800           0
      2280 MEMB     18       POPC     H15C     HL       0.250000       1.00800           0
      2281 MEMB     18       POPC     C11      CTL2    -0.800000E-01   12.0110           0
      2282 MEMB     18       POPC     H11A     HAL2     0.900000E-01   1.00800           0
      2283 MEMB     18       POPC     H11B     HAL2     0.900000E-01   1.00800           0
      2284 MEMB     18       POPC     P        PL        1.50000       30.9740           0
      2285 MEMB     18       POPC     O13      O2L     -0.780000       15.9994           0
      2286 MEMB     18       POPC     O14      O2L     -0.780000       15.9994           0
      2287 MEMB     18       POPC     O12      OSLP    -0.570000       15.9994           0
      2288 MEMB     18       POPC     O11      OSLP    -0.570000       15.9994           0
      2289 MEMB     18       POPC     C1       CTL2    -0.800000E-01   12.0110           0
      2290 MEMB     18       POPC     HA       HAL2     0.900000E-01   1.00800           0
      2291 MEMB     18       POPC     HB       HAL2     0.900000E-01   1.00800           0
      2292 MEMB     18       POPC     C2       CTL1     0.170000       12.0110           0
      2293 MEMB     18       POPC     HS       HAL1     0.900000E-01   1.00800           0
      2294 MEMB     18       POPC     O21      OSL     -0.490000       15.9994           0
      2295 MEMB     18       POPC     C21      CL       0.900000       12.0110           0
      2296 MEMB     18       POPC     O22      OBL     -0.630000       15.9994           0
      2297 MEMB     18       POPC     C22      CTL2    -0.220000       12.0110           0
      2298 MEMB     18       POPC     H2R      HAL2     0.900000E-01   1.00800           0
      2299 MEMB     18       POPC     H2S      HAL2     0.900000E-01   1.00800           0
      2300 MEMB     18       POPC     C3       CTL2     0.800000E-01   12.0110           0
      2301 MEMB     18       POPC     HX       HAL2     0.900000E-01   1.00800           0
      2302 MEMB     18       POPC     HY       HAL2     0.900000E-01   1.00800           0
      2303 MEMB     18       POPC     O31      OSL     -0.490000       15.9994           0
      2304 MEMB     18       POPC     C31      CL       0.900000       12.0110           0
      2305 MEMB     18       POPC     O32      OBL     -0.630000       15.9994           0
      2306 MEMB     18       POPC     C32      CTL2    -0.220000       12.0110           0
      2307 MEMB     18       POPC     H2X      HAL2     0.900000E-01   1.00800           0
      2308 MEMB     18       POPC     H2Y      HAL2     0.900000E-01   1.00800           0
      2309 MEMB     18       POPC     C23      CTL2    -0.180000       12.0110           0
      2310 MEMB     18       POPC     H3R      HAL2     0.900000E-01   1.00800           0
      2311 MEMB     18       POPC     H3S      HAL2     0.900000E-01   1.00800           0
      2312 MEMB     18       POPC     C24      CTL2    -0.180000       12.0110           0
      2313 MEMB     18       POPC     H4R      HAL2     0.900000E-01   1.00800           0
      2314 MEMB     18       POPC     H4S      HAL2     0.900000E-01   1.00800           0
      2315 MEMB     18       POPC     C25      CTL2    -0.180000       12.0110           0
      2316 MEMB     18       POPC     H5R      HAL2     0.900000E-01   1.00800           0
      2317 MEMB     18       POPC     H5S      HAL2     0.900000E-01   1.00800           0
      2318 MEMB     18       POPC     C26      CTL2    -0.180000       12.0110           0
      2319 MEMB     18       POPC     H6R      HAL2     0.900000E-01   1.00800           0
      2320 MEMB     18       POPC     H6S      HAL2     0.900000E-01   1.00800           0
      2321 MEMB     18       POPC     C27      CTL2    -0.180000       12.0110           0
      2322 MEMB     18       POPC     H7R      HAL2     0.900000E-01   1.00800           0
      2323 MEMB     18       POPC     H7S      HAL2     0.900000E-01   1.00800           0
      2324 MEMB     18       POPC     C28      CTL2    -0.180000       12.0110           0
      2325 MEMB     18       POPC     H8R      HAL2     0.900000E-01   1.00800           0
      2326 MEMB     18       POPC     H8S      HAL2     0.900000E-01   1.00800           0
      2327 MEMB     18       POPC     C29      CEL1    -0.150000       12.0110           0
      2328 MEMB     18       POPC     H91      HEL1     0.150000       1.00800           0
      2329 MEMB     18       POPC     C210     CEL1    -0.150000       12.0110           0
      2330 MEMB     18       POPC     H101     HEL1     0.150000       1.00800           0
      2331 MEMB     18       POPC     C211     CTL2    -0.180000       12.0110           0
      2332 MEMB     18       POPC     H11R     HAL2     0.900000E-01   1.00800           0
      2333 MEMB     18       POPC     H11S     HAL2     0.900000E-01   1.00800           0
      2334 MEMB     18       POPC     C212     CTL2    -0.180000       12.0110           0
      2335 MEMB     18       POPC     H12R     HAL2     0.900000E-01   1.00800           0
      2336 MEMB     18       POPC     H12S     HAL2     0.900000E-01   1.00800           0
      2337 MEMB     18       POPC     C213     CTL2    -0.180000       12.0110           0
      2338 MEMB     18       POPC     H13R     HAL2     0.900000E-01   1.00800           0
      2339 MEMB     18       POPC     H13S     HAL2     0.900000E-01   1.00800           0
      2340 MEMB     18       POPC     C214     CTL2    -0.180000       12.0110           0
      2341 MEMB     18       POPC     H14R     HAL2     0.900000E-01   1.00800           0
      2342 MEMB     18       POPC     H14S     HAL2     0.900000E-01   1.00800           0
      2343 MEMB     18       POPC     C215     CTL2    -0.180000       12.0110           0
      2344 MEMB     18       POPC     H15R     HAL2     0.900000E-01   1.00800           0
      2345 MEMB     18       POPC     H15S     HAL2     0.900000E-01   1.00800           0
      2346 MEMB     18       POPC     C216     CTL2    -0.180000       12.0110           0
      2347 MEMB     18       POPC     H16R     HAL2     0.900000E-01   1.00800           0
      2348 MEMB     18       POPC     H16S     HAL2     0.900000E-01   1.00800           0
      2349 MEMB     18       POPC     C217     CTL2    -0.180000       12.0110           0
      2350 MEMB     18       POPC     H17R     HAL2     0.900000E-01   1.00800           0
      2351 MEMB     18       POPC     H17S     HAL2     0.900000E-01   1.00800           0
      2352 MEMB     18       POPC     C218     CTL3    -0.270000       12.0110           0
      2353 MEMB     18       POPC     H18R     HAL3     0.900000E-01   1.00800           0
      2354 MEMB     18       POPC     H18S     HAL3     0.900000E-01   1.00800           0
      2355 MEMB     18       POPC     H18T     HAL3     0.900000E-01   1.00800           0
      2356 MEMB     18       POPC     C33      CTL2    -0.180000       12.0110           0
      2357 MEMB     18       POPC     H3X      HAL2     0.900000E-01   1.00800           0
      2358 MEMB     18       POPC     H3Y      HAL2     0.900000E-01   1.00800           0
      2359 MEMB     18       POPC     C34      CTL2    -0.180000       12.0110           0
      2360 MEMB     18       POPC     H4X      HAL2     0.900000E-01   1.00800           0
      2361 MEMB     18       POPC     H4Y      HAL2     0.900000E-01   1.00800           0
      2362 MEMB     18       POPC     C35      CTL2    -0.180000       12.0110           0
      2363 MEMB     18       POPC     H5X      HAL2     0.900000E-01   1.00800           0
      2364 MEMB     18       POPC     H5Y      HAL2     0.900000E-01   1.00800           0
      2365 MEMB     18       POPC     C36      CTL2    -0.180000       12.0110           0
      2366 MEMB     18       POPC     H6X      HAL2     0.900000E-01   1.00800           0
      2367 MEMB     18       POPC     H6Y      HAL2     0.900000E-01   1.00800           0
      2368 MEMB     18       POPC     C37      CTL2    -0.180000       12.0110           0
      2369 MEMB     18       POPC     H7X      HAL2     0.900000E-01   1.00800           0
      2370 MEMB     18       POPC     H7Y      HAL2     0.900000E-01   1.00800           0
      2371 MEMB     18       POPC     C38      CTL2    -0.180000       12.0110           0
      2372 MEMB     18       POPC     H8X      HAL2     0.900000E-01   1.00800           0
      2373 MEMB     18       POPC     H8Y      HAL2     0.900000E-01   1.00800           0
      2374 MEMB     18       POPC     C39      CTL2    -0.180000       12.0110           0
      2375 MEMB     18       POPC     H9X      HAL2     0.900000E-01   1.00800           0
      2376 MEMB     18       POPC     H9Y      HAL2     0.900000E-01   1.00800           0
      2377 MEMB     18       POPC     C310     CTL2    -0.180000       12.0110           0
      2378 MEMB     18       POPC     H10X     HAL2     0.900000E-01   1.00800           0
      2379 MEMB     18       POPC     H10Y     HAL2     0.900000E-01   1.00800           0
      2380 MEMB     18       POPC     C311     CTL2    -0.180000       12.0110           0
      2381 MEMB     18       POPC     H11X     HAL2     0.900000E-01   1.00800           0
      2382 MEMB     18       POPC     H11Y     HAL2     0.900000E-01   1.00800           0
      2383 MEMB     18       POPC     C312     CTL2    -0.180000       12.0110           0
      2384 MEMB     18       POPC     H12X     HAL2     0.900000E-01   1.00800           0
      2385 MEMB     18       POPC     H12Y     HAL2     0.900000E-01   1.00800           0
      2386 MEMB     18       POPC     C313     CTL2    -0.180000       12.0110           0
      2387 MEMB     18       POPC     H13X     HAL2     0.900000E-01   1.00800           0
      2388 MEMB     18       POPC     H13Y     HAL2     0.900000E-01   1.00800           0
      2389 MEMB     18       POPC     C314     CTL2    -0.180000       12.0110           0
      2390 MEMB     18       POPC     H14X     HAL2     0.900000E-01   1.00800           0
      2391 MEMB     18       POPC     H14Y     HAL2     0.900000E-01   1.00800           0
      2392 MEMB     18       POPC     C315     CTL2    -0.180000       12.0110           0
      2393 MEMB     18       POPC     H15X     HAL2     0.900000E-01   1.00800           0
      2394 MEMB     18       POPC     H15Y     HAL2     0.900000E-01   1.00800           0
      2395 MEMB     18       POPC     C316     CTL3    -0.270000       12.0110           0
      2396 MEMB     18       POPC     H16X     HAL3     0.900000E-01   1.00800           0
      2397 MEMB     18       POPC     H16Y     HAL3     0.900000E-01   1.00800           0
      2398 MEMB     18       POPC     H16Z     HAL3     0.900000E-01   1.00800           0
      2399 MEMB     19       POPC     N        NTL     -0.600000       14.0070           0
      2400 MEMB     19       POPC     C12      CTL2    -0.100000       12.0110           0
      2401 MEMB     19       POPC     H12A     HL       0.250000       1.00800           0
      2402 MEMB     19       POPC     H12B     HL       0.250000       1.00800           0
      2403 MEMB     19       POPC     C13      CTL5    -0.350000       12.0110           0
      2404 MEMB     19       POPC     H13A     HL       0.250000       1.00800           0
      2405 MEMB     19       POPC     H13B     HL       0.250000       1.00800           0
      2406 MEMB     19       POPC     H13C     HL       0.250000       1.00800           0
      2407 MEMB     19       POPC     C14      CTL5    -0.350000       12.0110           0
      2408 MEMB     19       POPC     H14A     HL       0.250000       1.00800           0
      2409 MEMB     19       POPC     H14B     HL       0.250000       1.00800           0
      2410 MEMB     19       POPC     H14C     HL       0.250000       1.00800           0
      2411 MEMB     19       POPC     C15      CTL5    -0.350000       12.0110           0
      2412 MEMB     19       POPC     H15A     HL       0.250000       1.00800           0
      2413 MEMB     19       POPC     H15B     HL       0.250000       1.00800           0
      2414 MEMB     19       POPC     H15C     HL       0.250000       1.00800           0
      2415 MEMB     19       POPC     C11      CTL2    -0.800000E-01   12.0110           0
      2416 MEMB     19       POPC     H11A     HAL2     0.900000E-01   1.00800           0
      2417 MEMB     19       POPC     H11B     HAL2     0.900000E-01   1.00800           0
      2418 MEMB     19       POPC     P        PL        1.50000       30.9740           0
      2419 MEMB     19       POPC     O13      O2L     -0.780000       15.9994           0
      2420 MEMB     19       POPC     O14      O2L     -0.780000       15.9994           0
      2421 MEMB     19       POPC     O12      OSLP    -0.570000       15.9994           0
      2422 MEMB     19       POPC     O11      OSLP    -0.570000       15.9994           0
      2423 MEMB     19       POPC     C1       CTL2    -0.800000E-01   12.0110           0
      2424 MEMB     19       POPC     HA       HAL2     0.900000E-01   1.00800           0
      2425 MEMB     19       POPC     HB       HAL2     0.900000E-01   1.00800           0
      2426 MEMB     19       POPC     C2       CTL1     0.170000       12.0110           0
      2427 MEMB     19       POPC     HS       HAL1     0.900000E-01   1.00800           0
      2428 MEMB     19       POPC     O21      OSL     -0.490000       15.9994           0
      2429 MEMB     19       POPC     C21      CL       0.900000       12.0110           0
      2430 MEMB     19       POPC     O22      OBL     -0.630000       15.9994           0
      2431 MEMB     19       POPC     C22      CTL2    -0.220000       12.0110           0
      2432 MEMB     19       POPC     H2R      HAL2     0.900000E-01   1.00800           0
      2433 MEMB     19       POPC     H2S      HAL2     0.900000E-01   1.00800           0
      2434 MEMB     19       POPC     C3       CTL2     0.800000E-01   12.0110           0
      2435 MEMB     19       POPC     HX       HAL2     0.900000E-01   1.00800           0
      2436 MEMB     19       POPC     HY       HAL2     0.900000E-01   1.00800           0
      2437 MEMB     19       POPC     O31      OSL     -0.490000       15.9994           0
      2438 MEMB     19       POPC     C31      CL       0.900000       12.0110           0
      2439 MEMB     19       POPC     O32      OBL     -0.630000       15.9994           0
      2440 MEMB     19       POPC     C32      CTL2    -0.220000       12.0110           0
      2441 MEMB     19       POPC     H2X      HAL2     0.900000E-01   1.00800           0
      2442 MEMB     19       POPC     H2Y      HAL2     0.900000E-01   1.00800           0
      2443 MEMB     19       POPC     C23      CTL2    -0.180000       12.0110           0
      2444 MEMB     19       POPC     H3R      HAL2     0.900000E-01   1.00800           0
      2445 MEMB     19       POPC     H3S      HAL2     0.900000E-01   1.00800           0
      2446 MEMB     19       POPC     C24      CTL2    -0.180000       12.0110           0
      2447 MEMB     19       POPC     H4R      HAL2     0.900000E-01   1.00800           0
      2448 MEMB     19       POPC     H4S      HAL2     0.900000E-01   1.00800           0
      2449 MEMB     19       POPC     C25      CTL2    -0.180000       12.0110           0
      2450 MEMB     19       POPC     H5R      HAL2     0.900000E-01   1.00800           0
      2451 MEMB     19       POPC     H5S      HAL2     0.900000E-01   1.00800           0
      2452 MEMB     19       POPC     C26      CTL2    -0.180000       12.0110           0
      2453 MEMB     19       POPC     H6R      HAL2     0.900000E-01   1.00800           0
      2454 MEMB     19       POPC     H6S      HAL2     0.900000E-01   1.00800           0
      2455 MEMB     19       POPC     C27      CTL2    -0.180000       12.0110           0
      2456 MEMB     19       POPC     H7R      HAL2     0.900000E-01   1.00800           0
      2457 MEMB     19       POPC     H7S      HAL2     0.900000E-01   1.00800           0
      2458 MEMB     19       POPC     C28      CTL2    -0.180000       12.0110           0
      2459 MEMB     19       POPC     H8R      HAL2     0.900000E-01   1.00800           0
      2460 MEMB     19       POPC     H8S      HAL2     0.900000E-01   1.00800           0
      2461 MEMB     19       POPC     C29      CEL1    -0.150000       12.0110           0
      2462 MEMB     19       POPC     H91      HEL1     0.150000       1.00800           0
      2463 MEMB     19       POPC     C210     CEL1    -0.150000       12.0110           0
      2464 MEMB     19       POPC     H101     HEL1     0.150000       1.00800           0
      2465 MEMB     19       POPC     C211     CTL2    -0.180000       12.0110           0
      2466 MEMB     19       POPC     H11R     HAL2     0.900000E-01   1.00800           0
      2467 MEMB     19       POPC     H11S     HAL2     0.900000E-01   1.00800           0
      2468 MEMB     19       POPC     C212     CTL2    -0.180000       12.0110           0
      2469 MEMB     19       POPC     H12R     HAL2     0.900000E-01   1.00800           0
      2470 MEMB     19       POPC     H12S     HAL2     0.900000E-01   1.00800           0
      2471 MEMB     19       POPC     C213     CTL2    -0.180000       12.0110           0
      2472 MEMB     19       POPC     H13R     HAL2     0.900000E-01   1.00800           0
      2473 MEMB     19       POPC     H13S     HAL2     0.900000E-01   1.00800           0
      2474 MEMB     19       POPC     C214     CTL2    -0.180000       12.0110           0
      2475 MEMB     19       POPC     H14R     HAL2     0.900000E-01   1.00800           0
      2476 MEMB     19       POPC     H14S     HAL2     0.900000E-01   1.00800           0
      2477 MEMB     19       POPC     C215     CTL2    -0.180000       12.0110           0
      2478 MEMB     19       POPC     H15R     HAL2     0.900000E-01   1.00800           0
      2479 MEMB     19       POPC     H15S     HAL2     0.900000E-01   1.00800           0
      2480 MEMB     19       POPC     C216     CTL2    -0.180000       12.0110           0
      2481 MEMB     19       POPC     H16R     HAL2     0.900000E-01   1.00800           0
      2482 MEMB     19       POPC     H16S     HAL2     0.900000E-01   1.00800           0
      2483 MEMB     19       POPC     C217     CTL2    -0.180000       12.0110           0
      2484 MEMB     19       POPC     H17R     HAL2     0.900000E-01   1.00800           0
      2485 MEMB     19       POPC     H17S     HAL2     0.900000E-01   1.00800           0
      2486 MEMB     19       POPC     C218     CTL3    -0.270000       12.0110           0
      2487 MEMB     19       POPC     H18R     HAL3     0.900000E-01   1.00800           0
      2488 MEMB     19       POPC     H18S     HAL3     0.900000E-01   1.00800           0
      2489 MEMB     19       POPC     H18T     HAL3     0.900000E-01   1.00800           0
      2490 MEMB     19       POPC     C33      CTL2    -0.180000       12.0110           0
      2491 MEMB     19       POPC     H3X      HAL2     0.900000E-01   1.00800           0
      2492 MEMB     19       POPC     H3Y      HAL2     0.900000E-01   1.00800           0
      2493 MEMB     19       POPC     C34      CTL2    -0.180000       12.0110           0
      2494 MEMB     19       POPC     H4X      HAL2     0.900000E-01   1.00800           0
      2495 MEMB     19       POPC     H4Y      HAL2     0.900000E-01   1.00800           0
      2496 MEMB     19       POPC     C35      CTL2    -0.180000       12.0110           0
      2497 MEMB     19       POPC     H5X      HAL2     0.900000E-01   1.00800           0
      2498 MEMB     19       POPC     H5Y      HAL2     0.900000E-01   1.00800           0
      2499 MEMB     19       POPC     C36      CTL2    -0.180000       12.0110           0
      2500 MEMB     19       POPC     H6X      HAL2     0.900000E-01   1.00800           0
      2501 MEMB     19       POPC     H6Y      HAL2     0.900000E-01   1.00800           0
      2502 MEMB     19       POPC     C37      CTL2    -0.180000       12.0110           0
      2503 MEMB     19       POPC     H7X      HAL2     0.900000E-01   1.00800           0
      2504 MEMB     19       POPC     H7Y      HAL2     0.900000E-01   1.00800           0
      2505 MEMB     19       POPC     C38      CTL2    -0.180000       12.0110           0
      2506 MEMB     19       POPC     H8X      HAL2     0.900000E-01   1.00800           0
      2507 MEMB     19       POPC     H8Y      HAL2     0.900000E-01   1.00800           0
      2508 MEMB     19       POPC     C39      CTL2    -0.180000       12.0110           0
      2509 MEMB     19       POPC     H9X      HAL2     0.900000E-01   1.00800           0
      2510 MEMB     19       POPC     H9Y      HAL2     0.900000E-01   1.00800           0
      2511 MEMB     19       POPC     C310     CTL2    -0.180000       12.0110           0
      2512 MEMB     19       POPC     H10X     HAL2     0.900000E-01   1.00800           0
      2513 MEMB     19       POPC     H10Y     HAL2     0.900000E-01   1.00800           0
      2514 MEMB     19       POPC     C311     CTL2    -0.180000       12.0110           0
      2515 MEMB     19       POPC     H11X     HAL2     0.900000E-01   1.00800           0
      2516 MEMB     19       POPC     H11Y     HAL2     0.900000E-01   1.00800           0
      2517 MEMB     19       POPC     C312     CTL2    -0.180000       12.0110           0
      2518 MEMB     19       POPC     H12X     HAL2     0.900000E-01   1.00800           0
      2519 MEMB     19       POPC     H12Y     HAL2     0.900000E-01   1.00800           0
      2520 MEMB     19       POPC     C313     CTL2    -0.180000       12.0110           0
      2521 MEMB     19       POPC     H13X     HAL2     0.900000E-01   1.00800           0
      2522 MEMB     19       POPC     H13Y     HAL2     0.900000E-01   1.00800           0
      2523 MEMB     19       POPC     C314     CTL2    -0.180000       12.0110           0
      2524 MEMB     19       POPC     H14X     HAL2     0.900000E-01   1.00800           0
      2525 MEMB     19       POPC     H14Y     HAL2     0.900000E-01   1.00800           0
      2526 MEMB     19       POPC     C315     CTL2    -0.180000       12.0110           0
      2527 MEMB     19       POPC     H15X     HAL2     0.900000E-01   1.00800           0
      2528 MEMB     19       POPC     H15Y     HAL2     0.900000E-01   1.00800           0
      2529 MEMB     19       POPC     C316     CTL3    -0.270000       12.0110           0
      2530 MEMB     19       POPC     H16X     HAL3     0.900000E-01   1.00800           0
      2531 MEMB     19       POPC     H16Y     HAL3     0.900000E-01   1.00800           0
      2532 MEMB     19       POPC     H16Z     HAL3     0.900000E-01   1.00800           0
      2533 MEMB     20       POPC     N        NTL     -0.600000       14.0070           0
      2534 MEMB     20       POPC     C12      CTL2    -0.100000       12.0110           0
      2535 MEMB     20       POPC     H12A     HL       0.250000       1.00800           0
      2536 MEMB     20       POPC     H12B     HL       0.250000       1.00800           0
      2537 MEMB     20       POPC     C13      CTL5    -0.350000       12.0110           0
      2538 MEMB     20       POPC     H13A     HL       0.250000       1.00800           0
      2539 MEMB     20       POPC     H13B     HL       0.250000       1.00800           0
      2540 MEMB     20       POPC     H13C     HL       0.250000       1.00800           0
      2541 MEMB     20       POPC     C14      CTL5    -0.350000       12.0110           0
      2542 MEMB     20       POPC     H14A     HL       0.250000       1.00800           0
      2543 MEMB     20       POPC     H14B     HL       0.250000       1.00800           0
      2544 MEMB     20       POPC     H14C     HL       0.250000       1.00800           0
      2545 MEMB     20       POPC     C15      CTL5    -0.350000       12.0110           0
      2546 MEMB     20       POPC     H15A     HL       0.250000       1.00800           0
      2547 MEMB     20       POPC     H15B     HL       0.250000       1.00800           0
      2548 MEMB     20       POPC     H15C     HL       0.250000       1.00800           0
      2549 MEMB     20       POPC     C11      CTL2    -0.800000E-01   12.0110           0
      2550 MEMB     20       POPC     H11A     HAL2     0.900000E-01   1.00800           0
      2551 MEMB     20       POPC     H11B     HAL2     0.900000E-01   1.00800           0
      2552 MEMB     20       POPC     P        PL        1.50000       30.9740           0
      2553 MEMB     20       POPC     O13      O2L     -0.780000       15.9994           0
      2554 MEMB     20       POPC     O14      O2L     -0.780000       15.9994           0
      2555 MEMB     20       POPC     O12      OSLP    -0.570000       15.9994           0
      2556 MEMB     20       POPC     O11      OSLP    -0.570000       15.9994           0
      2557 MEMB     20       POPC     C1       CTL2    -0.800000E-01   12.0110           0
      2558 MEMB     20       POPC     HA       HAL2     0.900000E-01   1.00800           0
      2559 MEMB     20       POPC     HB       HAL2     0.900000E-01   1.00800           0
      2560 MEMB     20       POPC     C2       CTL1     0.170000       12.0110           0
      2561 MEMB     20       POPC     HS       HAL1     0.900000E-01   1.00800           0
      2562 MEMB     20       POPC     O21      OSL     -0.490000       15.9994           0
      2563 MEMB     20       POPC     C21      CL       0.900000       12.0110           0
      2564 MEMB     20       POPC     O22      OBL     -0.630000       15.9994           0
      2565 MEMB     20       POPC     C22      CTL2    -0.220000       12.0110           0
      2566 MEMB     20       POPC     H2R      HAL2     0.900000E-01   1.00800           0
      2567 MEMB     20       POPC     H2S      HAL2     0.900000E-01   1.00800           0
      2568 MEMB     20       POPC     C3       CTL2     0.800000E-01   12.0110           0
      2569 MEMB     20       POPC     HX       HAL2     0.900000E-01   1.00800           0
      2570 MEMB     20       POPC     HY       HAL2     0.900000E-01   1.00800           0
      2571 MEMB     20       POPC     O31      OSL     -0.490000       15.9994           0
      2572 MEMB     20       POPC     C31      CL       0.900000       12.0110           0
      2573 MEMB     20       POPC     O32      OBL     -0.630000       15.9994           0
      2574 MEMB     20       POPC     C32      CTL2    -0.220000       12.0110           0
      2575 MEMB     20       POPC     H2X      HAL2     0.900000E-01   1.00800           0
      2576 MEMB     20       POPC     H2Y      HAL2     0.900000E-01   1.00800           0
      2577 MEMB     20       POPC     C23      CTL2    -0.180000       12.0110           0
      2578 MEMB     20       POPC     H3R      HAL2     0.900000E-01   1.00800           0
      2579 MEMB     20       POPC     H3S      HAL2     0.900000E-01   1.00800           0
      2580 MEMB     20       POPC     C24      CTL2    -0.180000       12.0110           0
      2581 MEMB     20       POPC     H4R      HAL2     0.900000E-01   1.00800           0
      2582 MEMB     20       POPC     H4S      HAL2     0.900000E-01   1.00800           0
      2583 MEMB     20       POPC     C25      CTL2    -0.180000       12.0110           0
      2584 MEMB     20       POPC     H5R      HAL2     0.900000E-01   1.00800           0
      2585 MEMB     20       POPC     H5S      HAL2     0.900000E-01   1.00800           0
      2586 MEMB     20       POPC     C26      CTL2    -0.180000       12.0110           0
      2587 MEMB     20       POPC     H6R      HAL2     0.900000E-01   1.00800           0
      2588 MEMB     20       POPC     H6S      HAL2     0.900000E-01   1.00800           0
      2589 MEMB     20       POPC     C27      CTL2    -0.180000       12.0110           0
      2590 MEMB     20       POPC     H7R      HAL2     0.900000E-01   1.00800           0
      2591 MEMB     20       POPC     H7S      HAL2     0.900000E-01   1.00800           0
      2592 MEMB     20       POPC     C28      CTL2    -0.180000       12.0110           0
      2593 MEMB     20       POPC     H8R      HAL2     0.900000E-01   1.00800           0
      2594 MEMB     20       POPC     H8S      HAL2     0.900000E-01   1.00800           0
      2595 MEMB     20       POPC     C29      CEL1    -0.150000       12.0110           0
      2596 MEMB     20       POPC     H91      HEL1     0.150000       1.00800           0
      2597 MEMB     20       POPC     C210     CEL1    -0.150000       12.0110           0
      2598 MEMB     20       POPC     H101     HEL1     0.150000       1.00800           0
      2599 MEMB     20       POPC     C211     CTL2    -0.180000       12.0110           0
      2600 MEMB     20       POPC     H11R     HAL2     0.900000E-01   1.00800           0
      2601 MEMB     20       POPC     H11S     HAL2     0.900000E-01   1.00800           0
      2602 MEMB     20       POPC     C212     CTL2    -0.180000       12.0110           0
      2603 MEMB     20       POPC     H12R     HAL2     0.900000E-01   1.00800           0
      2604 MEMB     20       POPC     H12S     HAL2     0.900000E-01   1.00800           0
      2605 MEMB     20       POPC     C213     CTL2    -0.180000       12.0110           0
      2606 MEMB     20       POPC     H13R     HAL2     0.900000E-01   1.00800           0
      2607 MEMB     20       POPC     H13S     HAL2     0.900000E-01   1.00800           0
      2608 MEMB     20       POPC     C214     CTL2    -0.180000       12.0110           0
      2609 MEMB     20       POPC     H14R     HAL2     0.900000E-01   1.00800           0
      2610 MEMB     20       POPC     H14S     HAL2     0.900000E-01   1.00800           0
      2611 MEMB     20       POPC     C215     CTL2    -0.180000       12.0110           0
      2612 MEMB     20       POPC     H15R     HAL2     0.900000E-01   1.00800           0
      2613 MEMB     20       POPC     H15S     HAL2     0.900000E-01   1.00800           0
      2614 MEMB     20       POPC     C216     CTL2    -0.180000       12.0110           0
      2615 MEMB     20       POPC     H16R     HAL2     0.900000E-01   1.00800           0
      2616 MEMB     20       POPC     H16S     HAL2     0.900000E-01   1.00800           0
      2617 MEMB     20       POPC     C217     CTL2    -0.180000       12.0110           0
      2618 MEMB     20       POPC     H17R     HAL2     0.900000E-01   1.00800           0
      2619 MEMB     20       POPC     H17S     HAL2     0.900000E-01   1.00800           0
      2620 MEMB     20       POPC     C218     CTL3    -0.270000       12.0110           0
      2621 MEMB     20       POPC     H18R     HAL3     0.900000E-01   1.00800           0
      2622 MEMB     20       POPC     H18S     HAL3     0.900000E-01   1.00800           0
      2623 MEMB     20       POPC     H18T     HAL3     0.900000E-01   1.00800           0
      2624 MEMB     20       POPC     C33      CTL2    -0.180000       12.0110           0
      2625 MEMB     20       POPC     H3X      HAL2     0.900000E-01   1.00800           0
      2626 MEMB     20       POPC     H3Y      HAL2     0.900000E-01   1.00800           0
      2627 MEMB     20       POPC     C34      CTL2    -0.180000       12.0110           0
      2628 MEMB     20       POPC     H4X      HAL2     0.900000E-01   1.00800           0
      2629 MEMB     20       POPC     H4Y      HAL2     0.900000E-01   1.00800           0
      2630 MEMB     20       POPC     C35      CTL2    -0.180000       12.0110           0
      2631 MEMB     20       POPC     H5X      HAL2     0.900000E-01   1.00800           0
      2632 MEMB     20       POPC     H5Y      HAL2     0.900000E-01   1.00800           0
      2633 MEMB     20       POPC     C36      CTL2    -0.180000       12.0110           0
      2634 MEMB     20       POPC     H6X      HAL2     0.900000E-01   1.00800           0
      2635 MEMB     20       POPC     H6Y      HAL2     0.900000E-01   1.00800           0
      2636 MEMB     20       POPC     C37      CTL2    -0.180000       12.0110           0
      2637 MEMB     20       POPC     H7X      HAL2     0.900000E-01   1.00800           0
      2638 MEMB     20       POPC     H7Y      HAL2     0.900000E-01   1.00800           0
      2639 MEMB     20       POPC     C38      CTL2    -0.180000       12.0110           0
      2640 MEMB     20       POPC     H8X      HAL2     0.900000E-01   1.00800           0
      2641 MEMB     20       POPC     H8Y      HAL2     0.900000E-01   1.00800           0
      2642 MEMB     20       POPC     C39      CTL2    -0.180000       12.0110           0
      2643 MEMB     20       POPC     H9X      HAL2     0.900000E-01   1.00800           0
      2644 MEMB     20       POPC     H9Y      HAL2     0.900000E-01   1.00800           0
      2645 MEMB     20       POPC     C310     CTL2    -0.180000       12.0110           0
      2646 MEMB     20       POPC     H10X     HAL2     0.900000E-01   1.00800           0
      2647 MEMB     20       POPC     H10Y     HAL2     0.900000E-01   1.00800           0
      2648 MEMB     20       POPC     C311     CTL2    -0.180000       12.0110           0
      2649 MEMB     20       POPC     H11X     HAL2     0.900000E-01   1.00800           0
      2650 MEMB     20       POPC     H11Y     HAL2     0.900000E-01   1.00800           0
      2651 MEMB     20       POPC     C312     CTL2    -0.180000       12.0110           0
      2652 MEMB     20       POPC     H12X     HAL2     0.900000E-01   1.00800           0
      2653 MEMB     20       POPC     H12Y     HAL2     0.900000E-01   1.00800           0
      2654 MEMB     20       POPC     C313     CTL2    -0.180000       12.0110           0
      2655 MEMB     20       POPC     H13X     HAL2     0.900000E-01   1.00800           0
      2656 MEMB     20       POPC     H13Y     HAL2     0.900000E-01   1.00800           0
      2657 MEMB     20       POPC     C314     CTL2    -0.180000       12.0110           0
      2658 MEMB     20       POPC     H14X     HAL2     0.900000E-01   1.00800           0
      2659 MEMB     20       POPC     H14Y     HAL2     0.900000E-01   1.00800           0
      2660 MEMB     20       POPC     C315     CTL2    -0.180000       12.0110           0
      2661 MEMB     20       POPC     H15X     HAL2     0.900000E-01   1.00800           0
      2662 MEMB     20       POPC     H15Y     HAL2     0.900000E-01   1.00800           0
      2663 MEMB     20       POPC     C316     CTL3    -0.270000       12.0110           0
      2664 MEMB     20       POPC     H16X     HAL3     0.900000E-01   1.00800           0
      2665 MEMB     20       POPC     H16Y     HAL3     0.900000E-01   1.00800           0
      2666 MEMB     20       POPC     H16Z     HAL3     0.900000E-01   1.00800           0
      2667 MEMB     21       POPC     N        NTL     -0.600000       14.0070           0
      2668 MEMB     21       POPC     C12      CTL2    -0.100000       12.0110           0
      2669 MEMB     21       POPC     H12A     HL       0.250000       1.00800           0
      2670 MEMB     21       POPC     H12B     HL       0.250000       1.00800           0
      2671 MEMB     21       POPC     C13      CTL5    -0.350000       12.0110           0
      2672 MEMB     21       POPC     H13A     HL       0.250000       1.00800           0
      2673 MEMB     21       POPC     H13B     HL       0.250000       1.00800           0
      2674 MEMB     21       POPC     H13C     HL       0.250000       1.00800           0
      2675 MEMB     21       POPC     C14      CTL5    -0.350000       12.0110           0
      2676 MEMB     21       POPC     H14A     HL       0.250000       1.00800           0
      2677 MEMB     21       POPC     H14B     HL       0.250000       1.00800           0
      2678 MEMB     21       POPC     H14C     HL       0.250000       1.00800           0
      2679 MEMB     21       POPC     C15      CTL5    -0.350000       12.0110           0
      2680 MEMB     21       POPC     H15A     HL       0.250000       1.00800           0
      2681 MEMB     21       POPC     H15B     HL       0.250000       1.00800           0
      2682 MEMB     21       POPC     H15C     HL       0.250000       1.00800           0
      2683 MEMB     21       POPC     C11      CTL2    -0.800000E-01   12.0110           0
      2684 MEMB     21       POPC     H11A     HAL2     0.900000E-01   1.00800           0
      2685 MEMB     21       POPC     H11B     HAL2     0.900000E-01   1.00800           0
      2686 MEMB     21       POPC     P        PL        1.50000       30.9740           0
      2687 MEMB     21       POPC     O13      O2L     -0.780000       15.9994           0
      2688 MEMB     21       POPC     O14      O2L     -0.780000       15.9994           0
      2689 MEMB     21       POPC     O12      OSLP    -0.570000       15.9994           0
      2690 MEMB     21       POPC     O11      OSLP    -0.570000       15.9994           0
      2691 MEMB     21       POPC     C1       CTL2    -0.800000E-01   12.0110           0
      2692 MEMB     21       POPC     HA       HAL2     0.900000E-01   1.00800           0
      2693 MEMB     21       POPC     HB       HAL2     0.900000E-01   1.00800           0
      2694 MEMB     21       POPC     C2       CTL1     0.170000       12.0110           0
      2695 MEMB     21       POPC     HS       HAL1     0.900000E-01   1.00800           0
      2696 MEMB     21       POPC     O21      OSL     -0.490000       15.9994           0
      2697 MEMB     21       POPC     C21      CL       0.900000       12.0110           0
      2698 MEMB     21       POPC     O22      OBL     -0.630000       15.9994           0
      2699 MEMB     21       POPC     C22      CTL2    -0.220000       12.0110           0
      2700 MEMB     21       POPC     H2R      HAL2     0.900000E-01   1.00800           0
      2701 MEMB     21       POPC     H2S      HAL2     0.900000E-01   1.00800           0
      2702 MEMB     21       POPC     C3       CTL2     0.800000E-01   12.0110           0
      2703 MEMB     21       POPC     HX       HAL2     0.900000E-01   1.00800           0
      2704 MEMB     21       POPC     HY       HAL2     0.900000E-01   1.00800           0
      2705 MEMB     21       POPC     O31      OSL     -0.490000       15.9994           0
      2706 MEMB     21       POPC     C31      CL       0.900000       12.0110           0
      2707 MEMB     21       POPC     O32      OBL     -0.630000       15.9994           0
      2708 MEMB     21       POPC     C32      CTL2    -0.220000       12.0110           0
      2709 MEMB     21       POPC     H2X      HAL2     0.900000E-01   1.00800           0
      2710 MEMB     21       POPC     H2Y      HAL2     0.900000E-01   1.00800           0
      2711 MEMB     21       POPC     C23      CTL2    -0.180000       12.0110           0
      2712 MEMB     21       POPC     H3R      HAL2     0.900000E-01   1.00800           0
      2713 MEMB     21       POPC     H3S      HAL2     0.900000E-01   1.00800           0
      2714 MEMB     21       POPC     C24      CTL2    -0.180000       12.0110           0
      2715 MEMB     21       POPC     H4R      HAL2     0.900000E-01   1.00800           0
      2716 MEMB     21       POPC     H4S      HAL2     0.900000E-01   1.00800           0
      2717 MEMB     21       POPC     C25      CTL2    -0.180000       12.0110           0
      2718 MEMB     21       POPC     H5R      HAL2     0.900000E-01   1.00800           0
      2719 MEMB     21       POPC     H5S      HAL2     0.900000E-01   1.00800           0
      2720 MEMB     21       POPC     C26      CTL2    -0.180000       12.0110           0
      2721 MEMB     21       POPC     H6R      HAL2     0.900000E-01   1.00800           0
      2722 MEMB     21       POPC     H6S      HAL2     0.900000E-01   1.00800           0
      2723 MEMB     21       POPC     C27      CTL2    -0.180000       12.0110           0
      2724 MEMB     21       POPC     H7R      HAL2     0.900000E-01   1.00800           0
      2725 MEMB     21       POPC     H7S      HAL2     0.900000E-01   1.00800           0
      2726 MEMB     21       POPC     C28      CTL2    -0.180000       12.0110           0
      2727 MEMB     21       POPC     H8R      HAL2     0.900000E-01   1.00800           0
      2728 MEMB     21       POPC     H8S      HAL2     0.900000E-01   1.00800           0
      2729 MEMB     21       POPC     C29      CEL1    -0.150000       12.0110           0
      2730 MEMB     21       POPC     H91      HEL1     0.150000       1.00800           0
      2731 MEMB     21       POPC     C210     CEL1    -0.150000       12.0110           0
      2732 MEMB     21       POPC     H101     HEL1     0.150000       1.00800           0
      2733 MEMB     21       POPC     C211     CTL2    -0.180000       12.0110           0
      2734 MEMB     21       POPC     H11R     HAL2     0.900000E-01   1.00800           0
      2735 MEMB     21       POPC     H11S     HAL2     0.900000E-01   1.00800           0
      2736 MEMB     21       POPC     C212     CTL2    -0.180000       12.0110           0
      2737 MEMB     21       POPC     H12R     HAL2     0.900000E-01   1.00800           0
      2738 MEMB     21       POPC     H12S     HAL2     0.900000E-01   1.00800           0
      2739 MEMB     21       POPC     C213     CTL2    -0.180000       12.0110           0
      2740 MEMB     21       POPC     H13R     HAL2     0.900000E-01   1.00800           0
      2741 MEMB     21       POPC     H13S     HAL2     0.900000E-01   1.00800           0
      2742 MEMB     21       POPC     C214     CTL2    -0.180000       12.0110           0
      2743 MEMB     21       POPC     H14R     HAL2     0.900000E-01   1.00800           0
      2744 MEMB     21       POPC     H14S     HAL2     0.900000E-01   1.00800           0
      2745 MEMB     21       POPC     C215     CTL2    -0.180000       12.0110           0
      2746 MEMB     21       POPC     H15R     HAL2     0.900000E-01   1.00800           0
      2747 MEMB     21       POPC     H15S     HAL2     0.900000E-01   1.00800           0
      2748 MEMB     21       POPC     C216     CTL2    -0.180000       12.0110           0
      2749 MEMB     21       POPC     H16R     HAL2     0.900000E-01   1.00800           0
      2750 MEMB     21       POPC     H16S     HAL2     0.900000E-01   1.00800           0
      2751 MEMB     21       POPC     C217     CTL2    -0.180000       12.0110           0
      2752 MEMB     21       POPC     H17R     HAL2     0.900000E-01   1.00800           0
      2753 MEMB     21       POPC     H17S     HAL2     0.900000E-01   1.00800           0
      2754 MEMB     21       POPC     C218     CTL3    -0.270000       12.0110           0
      2755 MEMB     21       POPC     H18R     HAL3     0.900000E-01   1.00800           0
      2756 MEMB     21       POPC     H18S     HAL3     0.900000E-01   1.00800           0
      2757 MEMB     21       POPC     H18T     HAL3     0.900000E-01   1.00800           0
      2758 MEMB     21       POPC     C33      CTL2    -0.180000       12.0110           0
      2759 MEMB     21       POPC     H3X      HAL2     0.900000E-01   1.00800           0
      2760 MEMB     21       POPC     H3Y      HAL2     0.900000E-01   1.00800           0
      2761 MEMB     21       POPC     C34      CTL2    -0.180000       12.0110           0
      2762 MEMB     21       POPC     H4X      HAL2     0.900000E-01   1.00800           0
      2763 MEMB     21       POPC     H4Y      HAL2     0.900000E-01   1.00800           0
      2764 MEMB     21       POPC     C35      CTL2    -0.180000       12.0110           0
      2765 MEMB     21       POPC     H5X      HAL2     0.900000E-01   1.00800           0
      2766 MEMB     21       POPC     H5Y      HAL2     0.900000E-01   1.00800           0
      2767 MEMB     21       POPC     C36      CTL2    -0.180000       12.0110           0
      2768 MEMB     21       POPC     H6X      HAL2     0.900000E-01   1.00800           0
      2769 MEMB     21       POPC     H6Y      HAL2     0.900000E-01   1.00800           0
      2770 MEMB     21       POPC     C37      CTL2    -0.180000       12.0110           0
      2771 MEMB     21       POPC     H7X      HAL2     0.900000E-01   1.00800           0
      2772 MEMB     21       POPC     H7Y      HAL2     0.900000E-01   1.00800           0
      2773 MEMB     21       POPC     C38      CTL2    -0.180000       12.0110           0
      2774 MEMB     21       POPC     H8X      HAL2     0.900000E-01   1.00800           0
      2775 MEMB     21       POPC     H8Y      HAL2     0.900000E-01   1.00800           0
      2776 MEMB     21       POPC     C39      CTL2    -0.180000       12.0110           0
      2777 MEMB     21       POPC     H9X      HAL2     0.900000E-01   1.00800           0
      2778 MEMB     21       POPC     H9Y      HAL2     0.900000E-01   1.00800           0
      2779 MEMB     21       POPC     C310     CTL2    -0.180000       12.0110           0
      2780 MEMB     21       POPC     H10X     HAL2     0.900000E-01   1.00800           0
      2781 MEMB     21       POPC     H10Y     HAL2     0.900000E-01   1.00800           0
      2782 MEMB     21       POPC     C311     CTL2    -0.180000       12.0110           0
      2783 MEMB     21       POPC     H11X     HAL2     0.900000E-01   1.00800           0
      2784 MEMB     21       POPC     H11Y     HAL2     0.900000E-01   1.00800           0
      2785 MEMB     21       POPC     C312     CTL2    -0.180000       12.0110           0
      2786 MEMB     21       POPC     H12X     HAL2     0.900000E-01   1.00800           0
      2787 MEMB     21       POPC     H12Y     HAL2     0.900000E-01   1.00800           0
      2788 MEMB     21       POPC     C313     CTL2    -0.180000       12.0110           0
      2789 MEMB     21       POPC     H13X     HAL2     0.900000E-01   1.00800           0
      2790 MEMB     21       POPC     H13Y     HAL2     0.900000E-01   1.00800           0
      2791 MEMB     21       POPC     C314     CTL2    -0.180000       12.0110           0
      2792 MEMB     21       POPC     H14X     HAL2     0.900000E-01   1.00800           0
      2793 MEMB     21       POPC     H14Y     HAL2     0.900000E-01   1.00800           0
      2794 MEMB     21       POPC     C315     CTL2    -0.180000       12.0110           0
      2795 MEMB     21       POPC     H15X     HAL2     0.900000E-01   1.00800           0
      2796 MEMB     21       POPC     H15Y     HAL2     0.900000E-01   1.00800           0
      2797 MEMB     21       POPC     C316     CTL3    -0.270000       12.0110           0
      2798 MEMB     21       POPC     H16X     HAL3     0.900000E-01   1.00800           0
      2799 MEMB     21       POPC     H16Y     HAL3     0.900000E-01   1.00800           0
      2800 MEMB     21       POPC     H16Z     HAL3     0.900000E-01   1.00800           0
      2801 MEMB     22       POPS     N        NH3L    -0.300000       14.0070           0
      2802 MEMB     22       POPS     HN1      HCL      0.330000       1.00800           0
      2803 MEMB     22       POPS     HN2      HCL      0.330000       1.00800           0
      2804 MEMB     22       POPS     HN3      HCL      0.330000       1.00800           0
      2805 MEMB     22       POPS     C12      CTL1     0.210000       12.0110           0
      2806 MEMB     22       POPS     H12A     HBL      0.100000       1.00800           0
      2807 MEMB     22       POPS     C13      CCL      0.340000       12.0110           0
      2808 MEMB     22       POPS     O13A     OCL     -0.670000       15.9994           0
      2809 MEMB     22       POPS     O13B     OCL     -0.670000       15.9994           0
      2810 MEMB     22       POPS     C11      CTL2    -0.800000E-01   12.0110           0
      2811 MEMB     22       POPS     H11A     HAL2     0.900000E-01   1.00800           0
      2812 MEMB     22       POPS     H11B     HAL2     0.900000E-01   1.00800           0
      2813 MEMB     22       POPS     P        PL        1.50000       30.9740           0
      2814 MEMB     22       POPS     O13      O2L     -0.780000       15.9994           0
      2815 MEMB     22       POPS     O14      O2L     -0.780000       15.9994           0
      2816 MEMB     22       POPS     O12      OSLP    -0.570000       15.9994           0
      2817 MEMB     22       POPS     O11      OSLP    -0.570000       15.9994           0
      2818 MEMB     22       POPS     C1       CTL2    -0.800000E-01   12.0110           0
      2819 MEMB     22       POPS     HA       HAL2     0.900000E-01   1.00800           0
      2820 MEMB     22       POPS     HB       HAL2     0.900000E-01   1.00800           0
      2821 MEMB     22       POPS     C2       CTL1     0.170000       12.0110           0
      2822 MEMB     22       POPS     HS       HAL1     0.900000E-01   1.00800           0
      2823 MEMB     22       POPS     O21      OSL     -0.490000       15.9994           0
      2824 MEMB     22       POPS     C21      CL       0.900000       12.0110           0
      2825 MEMB     22       POPS     O22      OBL     -0.630000       15.9994           0
      2826 MEMB     22       POPS     C22      CTL2    -0.220000       12.0110           0
      2827 MEMB     22       POPS     H2R      HAL2     0.900000E-01   1.00800           0
      2828 MEMB     22       POPS     H2S      HAL2     0.900000E-01   1.00800           0
      2829 MEMB     22       POPS     C3       CTL2     0.800000E-01   12.0110           0
      2830 MEMB     22       POPS     HX       HAL2     0.900000E-01   1.00800           0
      2831 MEMB     22       POPS     HY       HAL2     0.900000E-01   1.00800           0
      2832 MEMB     22       POPS     O31      OSL     -0.490000       15.9994           0
      2833 MEMB     22       POPS     C31      CL       0.900000       12.0110           0
      2834 MEMB     22       POPS     O32      OBL     -0.630000       15.9994           0
      2835 MEMB     22       POPS     C32      CTL2    -0.220000       12.0110           0
      2836 MEMB     22       POPS     H2X      HAL2     0.900000E-01   1.00800           0
      2837 MEMB     22       POPS     H2Y      HAL2     0.900000E-01   1.00800           0
      2838 MEMB     22       POPS     C23      CTL2    -0.180000       12.0110           0
      2839 MEMB     22       POPS     H3R      HAL2     0.900000E-01   1.00800           0
      2840 MEMB     22       POPS     H3S      HAL2     0.900000E-01   1.00800           0
      2841 MEMB     22       POPS     C24      CTL2    -0.180000       12.0110           0
      2842 MEMB     22       POPS     H4R      HAL2     0.900000E-01   1.00800           0
      2843 MEMB     22       POPS     H4S      HAL2     0.900000E-01   1.00800           0
      2844 MEMB     22       POPS     C25      CTL2    -0.180000       12.0110           0
      2845 MEMB     22       POPS     H5R      HAL2     0.900000E-01   1.00800           0
      2846 MEMB     22       POPS     H5S      HAL2     0.900000E-01   1.00800           0
      2847 MEMB     22       POPS     C26      CTL2    -0.180000       12.0110           0
      2848 MEMB     22       POPS     H6R      HAL2     0.900000E-01   1.00800           0
      2849 MEMB     22       POPS     H6S      HAL2     0.900000E-01   1.00800           0
      2850 MEMB     22       POPS     C27      CTL2    -0.180000       12.0110           0
      2851 MEMB     22       POPS     H7R      HAL2     0.900000E-01   1.00800           0
      2852 MEMB     22       POPS     H7S      HAL2     0.900000E-01   1.00800           0
      2853 MEMB     22       POPS     C28      CTL2    -0.180000       12.0110           0
      2854 MEMB     22       POPS     H8R      HAL2     0.900000E-01   1.00800           0
      2855 MEMB     22       POPS     H8S      HAL2     0.900000E-01   1.00800           0
      2856 MEMB     22       POPS     C29      CEL1    -0.150000       12.0110           0
      2857 MEMB     22       POPS     H91      HEL1     0.150000       1.00800           0
      2858 MEMB     22       POPS     C210     CEL1    -0.150000       12.0110           0
      2859 MEMB     22       POPS     H101     HEL1     0.150000       1.00800           0
      2860 MEMB     22       POPS     C211     CTL2    -0.180000       12.0110           0
      2861 MEMB     22       POPS     H11R     HAL2     0.900000E-01   1.00800           0
      2862 MEMB     22       POPS     H11S     HAL2     0.900000E-01   1.00800           0
      2863 MEMB     22       POPS     C212     CTL2    -0.180000       12.0110           0
      2864 MEMB     22       POPS     H12R     HAL2     0.900000E-01   1.00800           0
      2865 MEMB     22       POPS     H12S     HAL2     0.900000E-01   1.00800           0
      2866 MEMB     22       POPS     C213     CTL2    -0.180000       12.0110           0
      2867 MEMB     22       POPS     H13R     HAL2     0.900000E-01   1.00800           0
      2868 MEMB     22       POPS     H13S     HAL2     0.900000E-01   1.00800           0
      2869 MEMB     22       POPS     C214     CTL2    -0.180000       12.0110           0
      2870 MEMB     22       POPS     H14R     HAL2     0.900000E-01   1.00800           0
      2871 MEMB     22       POPS     H14S     HAL2     0.900000E-01   1.00800           0
      2872 MEMB     22       POPS     C215     CTL2    -0.180000       12.0110           0
      2873 MEMB     22       POPS     H15R     HAL2     0.900000E-01   1.00800           0
      2874 MEMB     22       POPS     H15S     HAL2     0.900000E-01   1.00800           0
      2875 MEMB     22       POPS     C216     CTL2    -0.180000       12.0110           0
      2876 MEMB     22       POPS     H16R     HAL2     0.900000E-01   1.00800           0
      2877 MEMB     22       POPS     H16S     HAL2     0.900000E-01   1.00800           0
      2878 MEMB     22       POPS     C217     CTL2    -0.180000       12.0110           0
      2879 MEMB     22       POPS     H17R     HAL2     0.900000E-01   1.00800           0
      2880 MEMB     22       POPS     H17S     HAL2     0.900000E-01   1.00800           0
      2881 MEMB     22       POPS     C218     CTL3    -0.270000       12.0110           0
      2882 MEMB     22       POPS     H18R     HAL3     0.900000E-01   1.00800           0
      2883 MEMB     22       POPS     H18S     HAL3     0.900000E-01   1.00800           0
      2884 MEMB     22       POPS     H18T     HAL3     0.900000E-01   1.00800           0
      2885 MEMB     22       POPS     C33      CTL2    -0.180000       12.0110           0
      2886 MEMB     22       POPS     H3X      HAL2     0.900000E-01   1.00800           0
      2887 MEMB     22       POPS     H3Y      HAL2     0.900000E-01   1.00800           0
      2888 MEMB     22       POPS     C34      CTL2    -0.180000       12.0110           0
      2889 MEMB     22       POPS     H4X      HAL2     0.900000E-01   1.00800           0
      2890 MEMB     22       POPS     H4Y      HAL2     0.900000E-01   1.00800           0
      2891 MEMB     22       POPS     C35      CTL2    -0.180000       12.0110           0
      2892 MEMB     22       POPS     H5X      HAL2     0.900000E-01   1.00800           0
      2893 MEMB     22       POPS     H5Y      HAL2     0.900000E-01   1.00800           0
      2894 MEMB     22       POPS     C36      CTL2    -0.180000       12.0110           0
      2895 MEMB     22       POPS     H6X      HAL2     0.900000E-01   1.00800           0
      2896 MEMB     22       POPS     H6Y      HAL2     0.900000E-01   1.00800           0
      2897 MEMB     22       POPS     C37      CTL2    -0.180000       12.0110           0
      2898 MEMB     22       POPS     H7X      HAL2     0.900000E-01   1.00800           0
      2899 MEMB     22       POPS     H7Y      HAL2     0.900000E-01   1.00800           0
      2900 MEMB     22       POPS     C38      CTL2    -0.180000       12.0110           0
      2901 MEMB     22       POPS     H8X      HAL2     0.900000E-01   1.00800           0
      2902 MEMB     22       POPS     H8Y      HAL2     0.900000E-01   1.00800           0
      2903 MEMB     22       POPS     C39      CTL2    -0.180000       12.0110           0
      2904 MEMB     22       POPS     H9X      HAL2     0.900000E-01   1.00800           0
      2905 MEMB     22       POPS     H9Y      HAL2     0.900000E-01   1.00800           0
      2906 MEMB     22       POPS     C310     CTL2    -0.180000       12.0110           0
      2907 MEMB     22       POPS     H10X     HAL2     0.900000E-01   1.00800           0
      2908 MEMB     22       POPS     H10Y     HAL2     0.900000E-01   1.00800           0
      2909 MEMB     22       POPS     C311     CTL2    -0.180000       12.0110           0
      2910 MEMB     22       POPS     H11X     HAL2     0.900000E-01   1.00800           0
      2911 MEMB     22       POPS     H11Y     HAL2     0.900000E-01   1.00800           0
      2912 MEMB     22       POPS     C312     CTL2    -0.180000       12.0110           0
      2913 MEMB     22       POPS     H12X     HAL2     0.900000E-01   1.00800           0
      2914 MEMB     22       POPS     H12Y     HAL2     0.900000E-01   1.00800           0
      2915 MEMB     22       POPS     C313     CTL2    -0.180000       12.0110           0
      2916 MEMB     22       POPS     H13X     HAL2     0.900000E-01   1.00800           0
      2917 MEMB     22       POPS     H13Y     HAL2     0.900000E-01   1.00800           0
      2918 MEMB     22       POPS     C314     CTL2    -0.180000       12.0110           0
      2919 MEMB     22       POPS     H14X     HAL2     0.900000E-01   1.00800           0
      2920 MEMB     22       POPS     H14Y     HAL2     0.900000E-01   1.00800           0
      2921 MEMB     22       POPS     C315     CTL2    -0.180000       12.0110           0
      2922 MEMB     22       POPS     H15X     HAL2     0.900000E-01   1.00800           0
      2923 MEMB     22       POPS     H15Y     HAL2     0.900000E-01   1.00800           0
      2924 MEMB     22       POPS     C316     CTL3    -0.270000       12.0110           0
      2925 MEMB     22       POPS     H16X     HAL3     0.900000E-01   1.00800           0
      2926 MEMB     22       POPS     H16Y     HAL3     0.900000E-01   1.00800           0
      2927 MEMB     22       POPS     H16Z     HAL3     0.900000E-01   1.00800           0
      2928 MEMB     23       POPC     N        NTL     -0.600000       14.0070           0
      2929 MEMB     23       POPC     C12      CTL2    -0.100000       12.0110           0
      2930 MEMB     23       POPC     H12A     HL       0.250000       1.00800           0
      2931 MEMB     23       POPC     H12B     HL       0.250000       1.00800           0
      2932 MEMB     23       POPC     C13      CTL5    -0.350000       12.0110           0
      2933 MEMB     23       POPC     H13A     HL       0.250000       1.00800           0
      2934 MEMB     23       POPC     H13B     HL       0.250000       1.00800           0
      2935 MEMB     23       POPC     H13C     HL       0.250000       1.00800           0
      2936 MEMB     23       POPC     C14      CTL5    -0.350000       12.0110           0
      2937 MEMB     23       POPC     H14A     HL       0.250000       1.00800           0
      2938 MEMB     23       POPC     H14B     HL       0.250000       1.00800           0
      2939 MEMB     23       POPC     H14C     HL       0.250000       1.00800           0
      2940 MEMB     23       POPC     C15      CTL5    -0.350000       12.0110           0
      2941 MEMB     23       POPC     H15A     HL       0.250000       1.00800           0
      2942 MEMB     23       POPC     H15B     HL       0.250000       1.00800           0
      2943 MEMB     23       POPC     H15C     HL       0.250000       1.00800           0
      2944 MEMB     23       POPC     C11      CTL2    -0.800000E-01   12.0110           0
      2945 MEMB     23       POPC     H11A     HAL2     0.900000E-01   1.00800           0
      2946 MEMB     23       POPC     H11B     HAL2     0.900000E-01   1.00800           0
      2947 MEMB     23       POPC     P        PL        1.50000       30.9740           0
      2948 MEMB     23       POPC     O13      O2L     -0.780000       15.9994           0
      2949 MEMB     23       POPC     O14      O2L     -0.780000       15.9994           0
      2950 MEMB     23       POPC     O12      OSLP    -0.570000       15.9994           0
      2951 MEMB     23       POPC     O11      OSLP    -0.570000       15.9994           0
      2952 MEMB     23       POPC     C1       CTL2    -0.800000E-01   12.0110           0
      2953 MEMB     23       POPC     HA       HAL2     0.900000E-01   1.00800           0
      2954 MEMB     23       POPC     HB       HAL2     0.900000E-01   1.00800           0
      2955 MEMB     23       POPC     C2       CTL1     0.170000       12.0110           0
      2956 MEMB     23       POPC     HS       HAL1     0.900000E-01   1.00800           0
      2957 MEMB     23       POPC     O21      OSL     -0.490000       15.9994           0
      2958 MEMB     23       POPC     C21      CL       0.900000       12.0110           0
      2959 MEMB     23       POPC     O22      OBL     -0.630000       15.9994           0
      2960 MEMB     23       POPC     C22      CTL2    -0.220000       12.0110           0
      2961 MEMB     23       POPC     H2R      HAL2     0.900000E-01   1.00800           0
      2962 MEMB     23       POPC     H2S      HAL2     0.900000E-01   1.00800           0
      2963 MEMB     23       POPC     C3       CTL2     0.800000E-01   12.0110           0
      2964 MEMB     23       POPC     HX       HAL2     0.900000E-01   1.00800           0
      2965 MEMB     23       POPC     HY       HAL2     0.900000E-01   1.00800           0
      2966 MEMB     23       POPC     O31      OSL     -0.490000       15.9994           0
      2967 MEMB     23       POPC     C31      CL       0.900000       12.0110           0
      2968 MEMB     23       POPC     O32      OBL     -0.630000       15.9994           0
      2969 MEMB     23       POPC     C32      CTL2    -0.220000       12.0110           0
      2970 MEMB     23       POPC     H2X      HAL2     0.900000E-01   1.00800           0
      2971 MEMB     23       POPC     H2Y      HAL2     0.900000E-01   1.00800           0
      2972 MEMB     23       POPC     C23      CTL2    -0.180000       12.0110           0
      2973 MEMB     23       POPC     H3R      HAL2     0.900000E-01   1.00800           0
      2974 MEMB     23       POPC     H3S      HAL2     0.900000E-01   1.00800           0
      2975 MEMB     23       POPC     C24      CTL2    -0.180000       12.0110           0
      2976 MEMB     23       POPC     H4R      HAL2     0.900000E-01   1.00800           0
      2977 MEMB     23       POPC     H4S      HAL2     0.900000E-01   1.00800           0
      2978 MEMB     23       POPC     C25      CTL2    -0.180000       12.0110           0
      2979 MEMB     23       POPC     H5R      HAL2     0.900000E-01   1.00800           0
      2980 MEMB     23       POPC     H5S      HAL2     0.900000E-01   1.00800           0
      2981 MEMB     23       POPC     C26      CTL2    -0.180000       12.0110           0
      2982 MEMB     23       POPC     H6R      HAL2     0.900000E-01   1.00800           0
      2983 MEMB     23       POPC     H6S      HAL2     0.900000E-01   1.00800           0
      2984 MEMB     23       POPC     C27      CTL2    -0.180000       12.0110           0
      2985 MEMB     23       POPC     H7R      HAL2     0.900000E-01   1.00800           0
      2986 MEMB     23       POPC     H7S      HAL2     0.900000E-01   1.00800           0
      2987 MEMB     23       POPC     C28      CTL2    -0.180000       12.0110           0
      2988 MEMB     23       POPC     H8R      HAL2     0.900000E-01   1.00800           0
      2989 MEMB     23       POPC     H8S      HAL2     0.900000E-01   1.00800           0
      2990 MEMB     23       POPC     C29      CEL1    -0.150000       12.0110           0
      2991 MEMB     23       POPC     H91      HEL1     0.150000       1.00800           0
      2992 MEMB     23       POPC     C210     CEL1    -0.150000       12.0110           0
      2993 MEMB     23       POPC     H101     HEL1     0.150000       1.00800           0
      2994 MEMB     23       POPC     C211     CTL2    -0.180000       12.0110           0
      2995 MEMB     23       POPC     H11R     HAL2     0.900000E-01   1.00800           0
      2996 MEMB     23       POPC     H11S     HAL2     0.900000E-01   1.00800           0
      2997 MEMB     23       POPC     C212     CTL2    -0.180000       12.0110           0
      2998 MEMB     23       POPC     H12R     HAL2     0.900000E-01   1.00800           0
      2999 MEMB     23       POPC     H12S     HAL2     0.900000E-01   1.00800           0
      3000 MEMB     23       POPC     C213     CTL2    -0.180000       12.0110           0
      3001 MEMB     23       POPC     H13R     HAL2     0.900000E-01   1.00800           0
      3002 MEMB     23       POPC     H13S     HAL2     0.900000E-01   1.00800           0
      3003 MEMB     23       POPC     C214     CTL2    -0.180000       12.0110           0
      3004 MEMB     23       POPC     H14R     HAL2     0.900000E-01   1.00800           0
      3005 MEMB     23       POPC     H14S     HAL2     0.900000E-01   1.00800           0
      3006 MEMB     23       POPC     C215     CTL2    -0.180000       12.0110           0
      3007 MEMB     23       POPC     H15R     HAL2     0.900000E-01   1.00800           0
      3008 MEMB     23       POPC     H15S     HAL2     0.900000E-01   1.00800           0
      3009 MEMB     23       POPC     C216     CTL2    -0.180000       12.0110           0
      3010 MEMB     23       POPC     H16R     HAL2     0.900000E-01   1.00800           0
      3011 MEMB     23       POPC     H16S     HAL2     0.900000E-01   1.00800           0
      3012 MEMB     23       POPC     C217     CTL2    -0.180000       12.0110           0
      3013 MEMB     23       POPC     H17R     HAL2     0.900000E-01   1.00800           0
      3014 MEMB     23       POPC     H17S     HAL2     0.900000E-01   1.00800           0
      3015 MEMB     23       POPC     C218     CTL3    -0.270000       12.0110           0
      3016 MEMB     23       POPC     H18R     HAL3     0.900000E-01   1.00800           0
      3017 MEMB     23       POPC     H18S     HAL3     0.900000E-01   1.00800           0
      3018 MEMB     23       POPC     H18T     HAL3     0.900000E-01   1.00800           0
      3019 MEMB     23       POPC     C33      CTL2    -0.180000       12.0110           0
      3020 MEMB     23       POPC     H3X      HAL2     0.900000E-01   1.00800           0
      3021 MEMB     23       POPC     H3Y      HAL2     0.900000E-01   1.00800           0
      3022 MEMB     23       POPC     C34      CTL2    -0.180000       12.0110           0
      3023 MEMB     23       POPC     H4X      HAL2     0.900000E-01   1.00800           0
      3024 MEMB     23       POPC     H4Y      HAL2     0.900000E-01   1.00800           0
      3025 MEMB     23       POPC     C35      CTL2    -0.180000       12.0110           0
      3026 MEMB     23       POPC     H5X      HAL2     0.900000E-01   1.00800           0
      3027 MEMB     23       POPC     H5Y      HAL2     0.900000E-01   1.00800           0
      3028 MEMB     23       POPC     C36      CTL2    -0.180000       12.0110           0
      3029 MEMB     23       POPC     H6X      HAL2     0.900000E-01   1.00800           0
      3030 MEMB     23       POPC     H6Y      HAL2     0.900000E-01   1.00800           0
      3031 MEMB     23       POPC     C37      CTL2    -0.180000       12.0110           0
      3032 MEMB     23       POPC     H7X      HAL2     0.900000E-01   1.00800           0
      3033 MEMB     23       POPC     H7Y      HAL2     0.900000E-01   1.00800           0
      3034 MEMB     23       POPC     C38      CTL2    -0.180000       12.0110           0
      3035 MEMB     23       POPC     H8X      HAL2     0.900000E-01   1.00800           0
      3036 MEMB     23       POPC     H8Y      HAL2     0.900000E-01   1.00800           0
      3037 MEMB     23       POPC     C39      CTL2    -0.180000       12.0110           0
      3038 MEMB     23       POPC     H9X      HAL2     0.900000E-01   1.00800           0
      3039 MEMB     23       POPC     H9Y      HAL2     0.900000E-01   1.00800           0
      3040 MEMB     23       POPC     C310     CTL2    -0.180000       12.0110           0
      3041 MEMB     23       POPC     H10X     HAL2     0.900000E-01   1.00800           0
      3042 MEMB     23       POPC     H10Y     HAL2     0.900000E-01   1.00800           0
      3043 MEMB     23       POPC     C311     CTL2    -0.180000       12.0110           0
      3044 MEMB     23       POPC     H11X     HAL2     0.900000E-01   1.00800           0
      3045 MEMB     23       POPC     H11Y     HAL2     0.900000E-01   1.00800           0
      3046 MEMB     23       POPC     C312     CTL2    -0.180000       12.0110           0
      3047 MEMB     23       POPC     H12X     HAL2     0.900000E-01   1.00800           0
      3048 MEMB     23       POPC     H12Y     HAL2     0.900000E-01   1.00800           0
      3049 MEMB     23       POPC     C313     CTL2    -0.180000       12.0110           0
      3050 MEMB     23       POPC     H13X     HAL2     0.900000E-01   1.00800           0
      3051 MEMB     23       POPC     H13Y     HAL2     0.900000E-01   1.00800           0
      3052 MEMB     23       POPC     C314     CTL2    -0.180000       12.0110           0
      3053 MEMB     23       POPC     H14X     HAL2     0.900000E-01   1.00800           0
      3054 MEMB     23       POPC     H14Y     HAL2     0.900000E-01   1.00800           0
      3055 MEMB     23       POPC     C315     CTL2    -0.180000       12.0110           0
      3056 MEMB     23       POPC     H15X     HAL2     0.900000E-01   1.00800           0
      3057 MEMB     23       POPC     H15Y     HAL2     0.900000E-01   1.00800           0
      3058 MEMB     23       POPC     C316     CTL3    -0.270000       12.0110           0
      3059 MEMB     23       POPC     H16X     HAL3     0.900000E-01   1.00800           0
      3060 MEMB     23       POPC     H16Y     HAL3     0.900000E-01   1.00800           0
      3061 MEMB     23       POPC     H16Z     HAL3     0.900000E-01   1.00800           0
      3062 MEMB     24       POPS     N        NH3L    -0.300000       14.0070           0
      3063 MEMB     24       POPS     HN1      HCL      0.330000       1.00800           0
      3064 MEMB     24       POPS     HN2      HCL      0.330000       1.00800           0
      3065 MEMB     24       POPS     HN3      HCL      0.330000       1.00800           0
      3066 MEMB     24       POPS     C12      CTL1     0.210000       12.0110           0
      3067 MEMB     24       POPS     H12A     HBL      0.100000       1.00800           0
      3068 MEMB     24       POPS     C13      CCL      0.340000       12.0110           0
      3069 MEMB     24       POPS     O13A     OCL     -0.670000       15.9994           0
      3070 MEMB     24       POPS     O13B     OCL     -0.670000       15.9994           0
      3071 MEMB     24       POPS     C11      CTL2    -0.800000E-01   12.0110           0
      3072 MEMB     24       POPS     H11A     HAL2     0.900000E-01   1.00800           0
      3073 MEMB     24       POPS     H11B     HAL2     0.900000E-01   1.00800           0
      3074 MEMB     24       POPS     P        PL        1.50000       30.9740           0
      3075 MEMB     24       POPS     O13      O2L     -0.780000       15.9994           0
      3076 MEMB     24       POPS     O14      O2L     -0.780000       15.9994           0
      3077 MEMB     24       POPS     O12      OSLP    -0.570000       15.9994           0
      3078 MEMB     24       POPS     O11      OSLP    -0.570000       15.9994           0
      3079 MEMB     24       POPS     C1       CTL2    -0.800000E-01   12.0110           0
      3080 MEMB     24       POPS     HA       HAL2     0.900000E-01   1.00800           0
      3081 MEMB     24       POPS     HB       HAL2     0.900000E-01   1.00800           0
      3082 MEMB     24       POPS     C2       CTL1     0.170000       12.0110           0
      3083 MEMB     24       POPS     HS       HAL1     0.900000E-01   1.00800           0
      3084 MEMB     24       POPS     O21      OSL     -0.490000       15.9994           0
      3085 MEMB     24       POPS     C21      CL       0.900000       12.0110           0
      3086 MEMB     24       POPS     O22      OBL     -0.630000       15.9994           0
      3087 MEMB     24       POPS     C22      CTL2    -0.220000       12.0110           0
      3088 MEMB     24       POPS     H2R      HAL2     0.900000E-01   1.00800           0
      3089 MEMB     24       POPS     H2S      HAL2     0.900000E-01   1.00800           0
      3090 MEMB     24       POPS     C3       CTL2     0.800000E-01   12.0110           0
      3091 MEMB     24       POPS     HX       HAL2     0.900000E-01   1.00800           0
      3092 MEMB     24       POPS     HY       HAL2     0.900000E-01   1.00800           0
      3093 MEMB     24       POPS     O31      OSL     -0.490000       15.9994           0
      3094 MEMB     24       POPS     C31      CL       0.900000       12.0110           0
      3095 MEMB     24       POPS     O32      OBL     -0.630000       15.9994           0
      3096 MEMB     24       POPS     C32      CTL2    -0.220000       12.0110           0
      3097 MEMB     24       POPS     H2X      HAL2     0.900000E-01   1.00800           0
      3098 MEMB     24       POPS     H2Y      HAL2     0.900000E-01   1.00800           0
      3099 MEMB     24       POPS     C23      CTL2    -0.180000       12.0110           0
      3100 MEMB     24       POPS     H3R      HAL2     0.900000E-01   1.00800           0
      3101 MEMB     24       POPS     H3S      HAL2     0.900000E-01   1.00800           0
      3102 MEMB     24       POPS     C24      CTL2    -0.180000       12.0110           0
      3103 MEMB     24       POPS     H4R      HAL2     0.900000E-01   1.00800           0
      3104 MEMB     24       POPS     H4S      HAL2     0.900000E-01   1.00800           0
      3105 MEMB     24       POPS     C25      CTL2    -0.180000       12.0110           0
      3106 MEMB     24       POPS     H5R      HAL2     0.900000E-01   1.00800           0
      3107 MEMB     24       POPS     H5S      HAL2     0.900000E-01   1.00800           0
      3108 MEMB     24       POPS     C26      CTL2    -0.180000       12.0110           0
      3109 MEMB     24       POPS     H6R      HAL2     0.900000E-01   1.00800           0
      3110 MEMB     24       POPS     H6S      HAL2     0.900000E-01   1.00800           0
      3111 MEMB     24       POPS     C27      CTL2    -0.180000       12.0110           0
      3112 MEMB     24       POPS     H7R      HAL2     0.900000E-01   1.00800           0
      3113 MEMB     24       POPS     H7S      HAL2     0.900000E-01   1.00800           0
      3114 MEMB     24       POPS     C28      CTL2    -0.180000       12.0110           0
      3115 MEMB     24       POPS     H8R      HAL2     0.900000E-01   1.00800           0
      3116 MEMB     24       POPS     H8S      HAL2     0.900000E-01   1.00800           0
      3117 MEMB     24       POPS     C29      CEL1    -0.150000       12.0110           0
      3118 MEMB     24       POPS     H91      HEL1     0.150000       1.00800           0
      3119 MEMB     24       POPS     C210     CEL1    -0.150000       12.0110           0
      3120 MEMB     24       POPS     H101     HEL1     0.150000       1.00800           0
      3121 MEMB     24       POPS     C211     CTL2    -0.180000       12.0110           0
      3122 MEMB     24       POPS     H11R     HAL2     0.900000E-01   1.00800           0
      3123 MEMB     24       POPS     H11S     HAL2     0.900000E-01   1.00800           0
      3124 MEMB     24       POPS     C212     CTL2    -0.180000       12.0110           0
      3125 MEMB     24       POPS     H12R     HAL2     0.900000E-01   1.00800           0
      3126 MEMB     24       POPS     H12S     HAL2     0.900000E-01   1.00800           0
      3127 MEMB     24       POPS     C213     CTL2    -0.180000       12.0110           0
      3128 MEMB     24       POPS     H13R     HAL2     0.900000E-01   1.00800           0
      3129 MEMB     24       POPS     H13S     HAL2     0.900000E-01   1.00800           0
      3130 MEMB     24       POPS     C214     CTL2    -0.180000       12.0110           0
      3131 MEMB     24       POPS     H14R     HAL2     0.900000E-01   1.00800           0
      3132 MEMB     24       POPS     H14S     HAL2     0.900000E-01   1.00800           0
      3133 MEMB     24       POPS     C215     CTL2    -0.180000       12.0110           0
      3134 MEMB     24       POPS     H15R     HAL2     0.900000E-01   1.00800           0
      3135 MEMB     24       POPS     H15S     HAL2     0.900000E-01   1.00800           0
      3136 MEMB     24       POPS     C216     CTL2    -0.180000       12.0110           0
      3137 MEMB     24       POPS     H16R     HAL2     0.900000E-01   1.00800           0
      3138 MEMB     24       POPS     H16S     HAL2     0.900000E-01   1.00800           0
      3139 MEMB     24       POPS     C217     CTL2    -0.180000       12.0110           0
      3140 MEMB     24       POPS     H17R     HAL2     0.900000E-01   1.00800           0
      3141 MEMB     24       POPS     H17S     HAL2     0.900000E-01   1.00800           0
      3142 MEMB     24       POPS     C218     CTL3    -0.270000       12.0110           0
      3143 MEMB     24       POPS     H18R     HAL3     0.900000E-01   1.00800           0
      3144 MEMB     24       POPS     H18S     HAL3     0.900000E-01   1.00800           0
      3145 MEMB     24       POPS     H18T     HAL3     0.900000E-01   1.00800           0
      3146 MEMB     24       POPS     C33      CTL2    -0.180000       12.0110           0
      3147 MEMB     24       POPS     H3X      HAL2     0.900000E-01   1.00800           0
      3148 MEMB     24       POPS     H3Y      HAL2     0.900000E-01   1.00800           0
      3149 MEMB     24       POPS     C34      CTL2    -0.180000       12.0110           0
      3150 MEMB     24       POPS     H4X      HAL2     0.900000E-01   1.00800           0
      3151 MEMB     24       POPS     H4Y      HAL2     0.900000E-01   1.00800           0
      3152 MEMB     24       POPS     C35      CTL2    -0.180000       12.0110           0
      3153 MEMB     24       POPS     H5X      HAL2     0.900000E-01   1.00800           0
      3154 MEMB     24       POPS     H5Y      HAL2     0.900000E-01   1.00800           0
      3155 MEMB     24       POPS     C36      CTL2    -0.180000       12.0110           0
      3156 MEMB     24       POPS     H6X      HAL2     0.900000E-01   1.00800           0
      3157 MEMB     24       POPS     H6Y      HAL2     0.900000E-01   1.00800           0
      3158 MEMB     24       POPS     C37      CTL2    -0.180000       12.0110           0
      3159 MEMB     24       POPS     H7X      HAL2     0.900000E-01   1.00800           0
      3160 MEMB     24       POPS     H7Y      HAL2     0.900000E-01   1.00800           0
      3161 MEMB     24       POPS     C38      CTL2    -0.180000       12.0110           0
      3162 MEMB     24       POPS     H8X      HAL2     0.900000E-01   1.00800           0
      3163 MEMB     24       POPS     H8Y      HAL2     0.900000E-01   1.00800           0
      3164 MEMB     24       POPS     C39      CTL2    -0.180000       12.0110           0
      3165 MEMB     24       POPS     H9X      HAL2     0.900000E-01   1.00800           0
      3166 MEMB     24       POPS     H9Y      HAL2     0.900000E-01   1.00800           0
      3167 MEMB     24       POPS     C310     CTL2    -0.180000       12.0110           0
      3168 MEMB     24       POPS     H10X     HAL2     0.900000E-01   1.00800           0
      3169 MEMB     24       POPS     H10Y     HAL2     0.900000E-01   1.00800           0
      3170 MEMB     24       POPS     C311     CTL2    -0.180000       12.0110           0
      3171 MEMB     24       POPS     H11X     HAL2     0.900000E-01   1.00800           0
      3172 MEMB     24       POPS     H11Y     HAL2     0.900000E-01   1.00800           0
      3173 MEMB     24       POPS     C312     CTL2    -0.180000       12.0110           0
      3174 MEMB     24       POPS     H12X     HAL2     0.900000E-01   1.00800           0
      3175 MEMB     24       POPS     H12Y     HAL2     0.900000E-01   1.00800           0
      3176 MEMB     24       POPS     C313     CTL2    -0.180000       12.0110           0
      3177 MEMB     24       POPS     H13X     HAL2     0.900000E-01   1.00800           0
      3178 MEMB     24       POPS     H13Y     HAL2     0.900000E-01   1.00800           0
      3179 MEMB     24       POPS     C314     CTL2    -0.180000       12.0110           0
      3180 MEMB     24       POPS     H14X     HAL2     0.900000E-01   1.00800           0
      3181 MEMB     24       POPS     H14Y     HAL2     0.900000E-01   1.00800           0
      3182 MEMB     24       POPS     C315     CTL2    -0.180000       12.0110           0
      3183 MEMB     24       POPS     H15X     HAL2     0.900000E-01   1.00800           0
      3184 MEMB     24       POPS     H15Y     HAL2     0.900000E-01   1.00800           0
      3185 MEMB     24       POPS     C316     CTL3    -0.270000       12.0110           0
      3186 MEMB     24       POPS     H16X     HAL3     0.900000E-01   1.00800           0
      3187 MEMB     24       POPS     H16Y     HAL3     0.900000E-01   1.00800           0
      3188 MEMB     24       POPS     H16Z     HAL3     0.900000E-01   1.00800           0
      3189 MEMB     25       POPC     N        NTL     -0.600000       14.0070           0
      3190 MEMB     25       POPC     C12      CTL2    -0.100000       12.0110           0
      3191 MEMB     25       POPC     H12A     HL       0.250000       1.00800           0
      3192 MEMB     25       POPC     H12B     HL       0.250000       1.00800           0
      3193 MEMB     25       POPC     C13      CTL5    -0.350000       12.0110           0
      3194 MEMB     25       POPC     H13A     HL       0.250000       1.00800           0
      3195 MEMB     25       POPC     H13B     HL       0.250000       1.00800           0
      3196 MEMB     25       POPC     H13C     HL       0.250000       1.00800           0
      3197 MEMB     25       POPC     C14      CTL5    -0.350000       12.0110           0
      3198 MEMB     25       POPC     H14A     HL       0.250000       1.00800           0
      3199 MEMB     25       POPC     H14B     HL       0.250000       1.00800           0
      3200 MEMB     25       POPC     H14C     HL       0.250000       1.00800           0
      3201 MEMB     25       POPC     C15      CTL5    -0.350000       12.0110           0
      3202 MEMB     25       POPC     H15A     HL       0.250000       1.00800           0
      3203 MEMB     25       POPC     H15B     HL       0.250000       1.00800           0
      3204 MEMB     25       POPC     H15C     HL       0.250000       1.00800           0
      3205 MEMB     25       POPC     C11      CTL2    -0.800000E-01   12.0110           0
      3206 MEMB     25       POPC     H11A     HAL2     0.900000E-01   1.00800           0
      3207 MEMB     25       POPC     H11B     HAL2     0.900000E-01   1.00800           0
      3208 MEMB     25       POPC     P        PL        1.50000       30.9740           0
      3209 MEMB     25       POPC     O13      O2L     -0.780000       15.9994           0
      3210 MEMB     25       POPC     O14      O2L     -0.780000       15.9994           0
      3211 MEMB     25       POPC     O12      OSLP    -0.570000       15.9994           0
      3212 MEMB     25       POPC     O11      OSLP    -0.570000       15.9994           0
      3213 MEMB     25       POPC     C1       CTL2    -0.800000E-01   12.0110           0
      3214 MEMB     25       POPC     HA       HAL2     0.900000E-01   1.00800           0
      3215 MEMB     25       POPC     HB       HAL2     0.900000E-01   1.00800           0
      3216 MEMB     25       POPC     C2       CTL1     0.170000       12.0110           0
      3217 MEMB     25       POPC     HS       HAL1     0.900000E-01   1.00800           0
      3218 MEMB     25       POPC     O21      OSL     -0.490000       15.9994           0
      3219 MEMB     25       POPC     C21      CL       0.900000       12.0110           0
      3220 MEMB     25       POPC     O22      OBL     -0.630000       15.9994           0
      3221 MEMB     25       POPC     C22      CTL2    -0.220000       12.0110           0
      3222 MEMB     25       POPC     H2R      HAL2     0.900000E-01   1.00800           0
      3223 MEMB     25       POPC     H2S      HAL2     0.900000E-01   1.00800           0
      3224 MEMB     25       POPC     C3       CTL2     0.800000E-01   12.0110           0
      3225 MEMB     25       POPC     HX       HAL2     0.900000E-01   1.00800           0
      3226 MEMB     25       POPC     HY       HAL2     0.900000E-01   1.00800           0
      3227 MEMB     25       POPC     O31      OSL     -0.490000       15.9994           0
      3228 MEMB     25       POPC     C31      CL       0.900000       12.0110           0
      3229 MEMB     25       POPC     O32      OBL     -0.630000       15.9994           0
      3230 MEMB     25       POPC     C32      CTL2    -0.220000       12.0110           0
      3231 MEMB     25       POPC     H2X      HAL2     0.900000E-01   1.00800           0
      3232 MEMB     25       POPC     H2Y      HAL2     0.900000E-01   1.00800           0
      3233 MEMB     25       POPC     C23      CTL2    -0.180000       12.0110           0
      3234 MEMB     25       POPC     H3R      HAL2     0.900000E-01   1.00800           0
      3235 MEMB     25       POPC     H3S      HAL2     0.900000E-01   1.00800           0
      3236 MEMB     25       POPC     C24      CTL2    -0.180000       12.0110           0
      3237 MEMB     25       POPC     H4R      HAL2     0.900000E-01   1.00800           0
      3238 MEMB     25       POPC     H4S      HAL2     0.900000E-01   1.00800           0
      3239 MEMB     25       POPC     C25      CTL2    -0.180000       12.0110           0
      3240 MEMB     25       POPC     H5R      HAL2     0.900000E-01   1.00800           0
      3241 MEMB     25       POPC     H5S      HAL2     0.900000E-01   1.00800           0
      3242 MEMB     25       POPC     C26      CTL2    -0.180000       12.0110           0
      3243 MEMB     25       POPC     H6R      HAL2     0.900000E-01   1.00800           0
      3244 MEMB     25       POPC     H6S      HAL2     0.900000E-01   1.00800           0
      3245 MEMB     25       POPC     C27      CTL2    -0.180000       12.0110           0
      3246 MEMB     25       POPC     H7R      HAL2     0.900000E-01   1.00800           0
      3247 MEMB     25       POPC     H7S      HAL2     0.900000E-01   1.00800           0
      3248 MEMB     25       POPC     C28      CTL2    -0.180000       12.0110           0
      3249 MEMB     25       POPC     H8R      HAL2     0.900000E-01   1.00800           0
      3250 MEMB     25       POPC     H8S      HAL2     0.900000E-01   1.00800           0
      3251 MEMB     25       POPC     C29      CEL1    -0.150000       12.0110           0
      3252 MEMB     25       POPC     H91      HEL1     0.150000       1.00800           0
      3253 MEMB     25       POPC     C210     CEL1    -0.150000       12.0110           0
      3254 MEMB     25       POPC     H101     HEL1     0.150000       1.00800           0
      3255 MEMB     25       POPC     C211     CTL2    -0.180000       12.0110           0
      3256 MEMB     25       POPC     H11R     HAL2     0.900000E-01   1.00800           0
      3257 MEMB     25       POPC     H11S     HAL2     0.900000E-01   1.00800           0
      3258 MEMB     25       POPC     C212     CTL2    -0.180000       12.0110           0
      3259 MEMB     25       POPC     H12R     HAL2     0.900000E-01   1.00800           0
      3260 MEMB     25       POPC     H12S     HAL2     0.900000E-01   1.00800           0
      3261 MEMB     25       POPC     C213     CTL2    -0.180000       12.0110           0
      3262 MEMB     25       POPC     H13R     HAL2     0.900000E-01   1.00800           0
      3263 MEMB     25       POPC     H13S     HAL2     0.900000E-01   1.00800           0
      3264 MEMB     25       POPC     C214     CTL2    -0.180000       12.0110           0
      3265 MEMB     25       POPC     H14R     HAL2     0.900000E-01   1.00800           0
      3266 MEMB     25       POPC     H14S     HAL2     0.900000E-01   1.00800           0
      3267 MEMB     25       POPC     C215     CTL2    -0.180000       12.0110           0
      3268 MEMB     25       POPC     H15R     HAL2     0.900000E-01   1.00800           0
      3269 MEMB     25       POPC     H15S     HAL2     0.900000E-01   1.00800           0
      3270 MEMB     25       POPC     C216     CTL2    -0.180000       12.0110           0
      3271 MEMB     25       POPC     H16R     HAL2     0.900000E-01   1.00800           0
      3272 MEMB     25       POPC     H16S     HAL2     0.900000E-01   1.00800           0
      3273 MEMB     25       POPC     C217     CTL2    -0.180000       12.0110           0
      3274 MEMB     25       POPC     H17R     HAL2     0.900000E-01   1.00800           0
      3275 MEMB     25       POPC     H17S     HAL2     0.900000E-01   1.00800           0
      3276 MEMB     25       POPC     C218     CTL3    -0.270000       12.0110           0
      3277 MEMB     25       POPC     H18R     HAL3     0.900000E-01   1.00800           0
      3278 MEMB     25       POPC     H18S     HAL3     0.900000E-01   1.00800           0
      3279 MEMB     25       POPC     H18T     HAL3     0.900000E-01   1.00800           0
      3280 MEMB     25       POPC     C33      CTL2    -0.180000       12.0110           0
      3281 MEMB     25       POPC     H3X      HAL2     0.900000E-01   1.00800           0
      3282 MEMB     25       POPC     H3Y      HAL2     0.900000E-01   1.00800           0
      3283 MEMB     25       POPC     C34      CTL2    -0.180000       12.0110           0
      3284 MEMB     25       POPC     H4X      HAL2     0.900000E-01   1.00800           0
      3285 MEMB     25       POPC     H4Y      HAL2     0.900000E-01   1.00800           0
      3286 MEMB     25       POPC     C35      CTL2    -0.180000       12.0110           0
      3287 MEMB     25       POPC     H5X      HAL2     0.900000E-01   1.00800           0
      3288 MEMB     25       POPC     H5Y      HAL2     0.900000E-01   1.00800           0
      3289 MEMB     25       POPC     C36      CTL2    -0.180000       12.0110           0
      3290 MEMB     25       POPC     H6X      HAL2     0.900000E-01   1.00800           0
      3291 MEMB     25       POPC     H6Y      HAL2     0.900000E-01   1.00800           0
      3292 MEMB     25       POPC     C37      CTL2    -0.180000       12.0110           0
      3293 MEMB     25       POPC     H7X      HAL2     0.900000E-01   1.00800           0
      3294 MEMB     25       POPC     H7Y      HAL2     0.900000E-01   1.00800           0
      3295 MEMB     25       POPC     C38      CTL2    -0.180000       12.0110           0
      3296 MEMB     25       POPC     H8X      HAL2     0.900000E-01   1.00800           0
      3297 MEMB     25       POPC     H8Y      HAL2     0.900000E-01   1.00800           0
      3298 MEMB     25       POPC     C39      CTL2    -0.180000       12.0110           0
      3299 MEMB     25       POPC     H9X      HAL2     0.900000E-01   1.00800           0
      3300 MEMB     25       POPC     H9Y      HAL2     0.900000E-01   1.00800           0
      3301 MEMB     25       POPC     C310     CTL2    -0.180000       12.0110           0
      3302 MEMB     25       POPC     H10X     HAL2     0.900000E-01   1.00800           0
      3303 MEMB     25       POPC     H10Y     HAL2     0.900000E-01   1.00800           0
      3304 MEMB     25       POPC     C311     CTL2    -0.180000       12.0110           0
      3305 MEMB     25       POPC     H11X     HAL2     0.900000E-01   1.00800           0
      3306 MEMB     25       POPC     H11Y     HAL2     0.900000E-01   1.00800           0
      3307 MEMB     25       POPC     C312     CTL2    -0.180000       12.0110           0
      3308 MEMB     25       POPC     H12X     HAL2     0.900000E-01   1.00800           0
      3309 MEMB     25       POPC     H12Y     HAL2     0.900000E-01   1.00800           0
      3310 MEMB     25       POPC     C313     CTL2    -0.180000       12.0110           0
      3311 MEMB     25       POPC     H13X     HAL2     0.900000E-01   1.00800           0
      3312 MEMB     25       POPC     H13Y     HAL2     0.900000E-01   1.00800           0
      3313 MEMB     25       POPC     C314     CTL2    -0.180000       12.0110           0
      3314 MEMB     25       POPC     H14X     HAL2     0.900000E-01   1.00800           0
      3315 MEMB     25       POPC     H14Y     HAL2     0.900000E-01   1.00800           0
      3316 MEMB     25       POPC     C315     CTL2    -0.180000       12.0110           0
      3317 MEMB     25       POPC     H15X     HAL2     0.900000E-01   1.00800           0
      3318 MEMB     25       POPC     H15Y     HAL2     0.900000E-01   1.00800           0
      3319 MEMB     25       POPC     C316     CTL3    -0.270000       12.0110           0
      3320 MEMB     25       POPC     H16X     HAL3     0.900000E-01   1.00800           0
      3321 MEMB     25       POPC     H16Y     HAL3     0.900000E-01   1.00800           0
      3322 MEMB     25       POPC     H16Z     HAL3     0.900000E-01   1.00800           0
      3323 MEMB     26       POPC     N        NTL     -0.600000       14.0070           0
      3324 MEMB     26       POPC     C12      CTL2    -0.100000       12.0110           0
      3325 MEMB     26       POPC     H12A     HL       0.250000       1.00800           0
      3326 MEMB     26       POPC     H12B     HL       0.250000       1.00800           0
      3327 MEMB     26       POPC     C13      CTL5    -0.350000       12.0110           0
      3328 MEMB     26       POPC     H13A     HL       0.250000       1.00800           0
      3329 MEMB     26       POPC     H13B     HL       0.250000       1.00800           0
      3330 MEMB     26       POPC     H13C     HL       0.250000       1.00800           0
      3331 MEMB     26       POPC     C14      CTL5    -0.350000       12.0110           0
      3332 MEMB     26       POPC     H14A     HL       0.250000       1.00800           0
      3333 MEMB     26       POPC     H14B     HL       0.250000       1.00800           0
      3334 MEMB     26       POPC     H14C     HL       0.250000       1.00800           0
      3335 MEMB     26       POPC     C15      CTL5    -0.350000       12.0110           0
      3336 MEMB     26       POPC     H15A     HL       0.250000       1.00800           0
      3337 MEMB     26       POPC     H15B     HL       0.250000       1.00800           0
      3338 MEMB     26       POPC     H15C     HL       0.250000       1.00800           0
      3339 MEMB     26       POPC     C11      CTL2    -0.800000E-01   12.0110           0
      3340 MEMB     26       POPC     H11A     HAL2     0.900000E-01   1.00800           0
      3341 MEMB     26       POPC     H11B     HAL2     0.900000E-01   1.00800           0
      3342 MEMB     26       POPC     P        PL        1.50000       30.9740           0
      3343 MEMB     26       POPC     O13      O2L     -0.780000       15.9994           0
      3344 MEMB     26       POPC     O14      O2L     -0.780000       15.9994           0
      3345 MEMB     26       POPC     O12      OSLP    -0.570000       15.9994           0
      3346 MEMB     26       POPC     O11      OSLP    -0.570000       15.9994           0
      3347 MEMB     26       POPC     C1       CTL2    -0.800000E-01   12.0110           0
      3348 MEMB     26       POPC     HA       HAL2     0.900000E-01   1.00800           0
      3349 MEMB     26       POPC     HB       HAL2     0.900000E-01   1.00800           0
      3350 MEMB     26       POPC     C2       CTL1     0.170000       12.0110           0
      3351 MEMB     26       POPC     HS       HAL1     0.900000E-01   1.00800           0
      3352 MEMB     26       POPC     O21      OSL     -0.490000       15.9994           0
      3353 MEMB     26       POPC     C21      CL       0.900000       12.0110           0
      3354 MEMB     26       POPC     O22      OBL     -0.630000       15.9994           0
      3355 MEMB     26       POPC     C22      CTL2    -0.220000       12.0110           0
      3356 MEMB     26       POPC     H2R      HAL2     0.900000E-01   1.00800           0
      3357 MEMB     26       POPC     H2S      HAL2     0.900000E-01   1.00800           0
      3358 MEMB     26       POPC     C3       CTL2     0.800000E-01   12.0110           0
      3359 MEMB     26       POPC     HX       HAL2     0.900000E-01   1.00800           0
      3360 MEMB     26       POPC     HY       HAL2     0.900000E-01   1.00800           0
      3361 MEMB     26       POPC     O31      OSL     -0.490000       15.9994           0
      3362 MEMB     26       POPC     C31      CL       0.900000       12.0110           0
      3363 MEMB     26       POPC     O32      OBL     -0.630000       15.9994           0
      3364 MEMB     26       POPC     C32      CTL2    -0.220000       12.0110           0
      3365 MEMB     26       POPC     H2X      HAL2     0.900000E-01   1.00800           0
      3366 MEMB     26       POPC     H2Y      HAL2     0.900000E-01   1.00800           0
      3367 MEMB     26       POPC     C23      CTL2    -0.180000       12.0110           0
      3368 MEMB     26       POPC     H3R      HAL2     0.900000E-01   1.00800           0
      3369 MEMB     26       POPC     H3S      HAL2     0.900000E-01   1.00800           0
      3370 MEMB     26       POPC     C24      CTL2    -0.180000       12.0110           0
      3371 MEMB     26       POPC     H4R      HAL2     0.900000E-01   1.00800           0
      3372 MEMB     26       POPC     H4S      HAL2     0.900000E-01   1.00800           0
      3373 MEMB     26       POPC     C25      CTL2    -0.180000       12.0110           0
      3374 MEMB     26       POPC     H5R      HAL2     0.900000E-01   1.00800           0
      3375 MEMB     26       POPC     H5S      HAL2     0.900000E-01   1.00800           0
      3376 MEMB     26       POPC     C26      CTL2    -0.180000       12.0110           0
      3377 MEMB     26       POPC     H6R      HAL2     0.900000E-01   1.00800           0
      3378 MEMB     26       POPC     H6S      HAL2     0.900000E-01   1.00800           0
      3379 MEMB     26       POPC     C27      CTL2    -0.180000       12.0110           0
      3380 MEMB     26       POPC     H7R      HAL2     0.900000E-01   1.00800           0
      3381 MEMB     26       POPC     H7S      HAL2     0.900000E-01   1.00800           0
      3382 MEMB     26       POPC     C28      CTL2    -0.180000       12.0110           0
      3383 MEMB     26       POPC     H8R      HAL2     0.900000E-01   1.00800           0
      3384 MEMB     26       POPC     H8S      HAL2     0.900000E-01   1.00800           0
      3385 MEMB     26       POPC     C29      CEL1    -0.150000       12.0110           0
      3386 MEMB     26       POPC     H91      HEL1     0.150000       1.00800           0
      3387 MEMB     26       POPC     C210     CEL1    -0.150000       12.0110           0
      3388 MEMB     26       POPC     H101     HEL1     0.150000       1.00800           0
      3389 MEMB     26       POPC     C211     CTL2    -0.180000       12.0110           0
      3390 MEMB     26       POPC     H11R     HAL2     0.900000E-01   1.00800           0
      3391 MEMB     26       POPC     H11S     HAL2     0.900000E-01   1.00800           0
      3392 MEMB     26       POPC     C212     CTL2    -0.180000       12.0110           0
      3393 MEMB     26       POPC     H12R     HAL2     0.900000E-01   1.00800           0
      3394 MEMB     26       POPC     H12S     HAL2     0.900000E-01   1.00800           0
      3395 MEMB     26       POPC     C213     CTL2    -0.180000       12.0110           0
      3396 MEMB     26       POPC     H13R     HAL2     0.900000E-01   1.00800           0
      3397 MEMB     26       POPC     H13S     HAL2     0.900000E-01   1.00800           0
      3398 MEMB     26       POPC     C214     CTL2    -0.180000       12.0110           0
      3399 MEMB     26       POPC     H14R     HAL2     0.900000E-01   1.00800           0
      3400 MEMB     26       POPC     H14S     HAL2     0.900000E-01   1.00800           0
      3401 MEMB     26       POPC     C215     CTL2    -0.180000       12.0110           0
      3402 MEMB     26       POPC     H15R     HAL2     0.900000E-01   1.00800           0
      3403 MEMB     26       POPC     H15S     HAL2     0.900000E-01   1.00800           0
      3404 MEMB     26       POPC     C216     CTL2    -0.180000       12.0110           0
      3405 MEMB     26       POPC     H16R     HAL2     0.900000E-01   1.00800           0
      3406 MEMB     26       POPC     H16S     HAL2     0.900000E-01   1.00800           0
      3407 MEMB     26       POPC     C217     CTL2    -0.180000       12.0110           0
      3408 MEMB     26       POPC     H17R     HAL2     0.900000E-01   1.00800           0
      3409 MEMB     26       POPC     H17S     HAL2     0.900000E-01   1.00800           0
      3410 MEMB     26       POPC     C218     CTL3    -0.270000       12.0110           0
      3411 MEMB     26       POPC     H18R     HAL3     0.900000E-01   1.00800           0
      3412 MEMB     26       POPC     H18S     HAL3     0.900000E-01   1.00800           0
      3413 MEMB     26       POPC     H18T     HAL3     0.900000E-01   1.00800           0
      3414 MEMB     26       POPC     C33      CTL2    -0.180000       12.0110           0
      3415 MEMB     26       POPC     H3X      HAL2     0.900000E-01   1.00800           0
      3416 MEMB     26       POPC     H3Y      HAL2     0.900000E-01   1.00800           0
      3417 MEMB     26       POPC     C34      CTL2    -0.180000       12.0110           0
      3418 MEMB     26       POPC     H4X      HAL2     0.900000E-01   1.00800           0
      3419 MEMB     26       POPC     H4Y      HAL2     0.900000E-01   1.00800           0
      3420 MEMB     26       POPC     C35      CTL2    -0.180000       12.0110           0
      3421 MEMB     26       POPC     H5X      HAL2     0.900000E-01   1.00800           0
      3422 MEMB     26       POPC     H5Y      HAL2     0.900000E-01   1.00800           0
      3423 MEMB     26       POPC     C36      CTL2    -0.180000       12.0110           0
      3424 MEMB     26       POPC     H6X      HAL2     0.900000E-01   1.00800           0
      3425 MEMB     26       POPC     H6Y      HAL2     0.900000E-01   1.00800           0
      3426 MEMB     26       POPC     C37      CTL2    -0.180000       12.0110           0
      3427 MEMB     26       POPC     H7X      HAL2     0.900000E-01   1.00800           0
      3428 MEMB     26       POPC     H7Y      HAL2     0.900000E-01   1.00800           0
      3429 MEMB     26       POPC     C38      CTL2    -0.180000       12.0110           0
      3430 MEMB     26       POPC     H8X      HAL2     0.900000E-01   1.00800           0
      3431 MEMB     26       POPC     H8Y      HAL2     0.900000E-01   1.00800           0
      3432 MEMB     26       POPC     C39      CTL2    -0.180000       12.0110           0
      3433 MEMB     26       POPC     H9X      HAL2     0.900000E-01   1.00800           0
      3434 MEMB     26       POPC     H9Y      HAL2     0.900000E-01   1.00800           0
      3435 MEMB     26       POPC     C310     CTL2    -0.180000       12.0110           0
      3436 MEMB     26       POPC     H10X     HAL2     0.900000E-01   1.00800           0
      3437 MEMB     26       POPC     H10Y     HAL2     0.900000E-01   1.00800           0
      3438 MEMB     26       POPC     C311     CTL2    -0.180000       12.0110           0
      3439 MEMB     26       POPC     H11X     HAL2     0.900000E-01   1.00800           0
      3440 MEMB     26       POPC     H11Y     HAL2     0.900000E-01   1.00800           0
      3441 MEMB     26       POPC     C312     CTL2    -0.180000       12.0110           0
      3442 MEMB     26       POPC     H12X     HAL2     0.900000E-01   1.00800           0
      3443 MEMB     26       POPC     H12Y     HAL2     0.900000E-01   1.00800           0
      3444 MEMB     26       POPC     C313     CTL2    -0.180000       12.0110           0
      3445 MEMB     26       POPC     H13X     HAL2     0.900000E-01   1.00800           0
      3446 MEMB     26       POPC     H13Y     HAL2     0.900000E-01   1.00800           0
      3447 MEMB     26       POPC     C314     CTL2    -0.180000       12.0110           0
      3448 MEMB     26       POPC     H14X     HAL2     0.900000E-01   1.00800           0
      3449 MEMB     26       POPC     H14Y     HAL2     0.900000E-01   1.00800           0
      3450 MEMB     26       POPC     C315     CTL2    -0.180000       12.0110           0
      3451 MEMB     26       POPC     H15X     HAL2     0.900000E-01   1.00800           0
      3452 MEMB     26       POPC     H15Y     HAL2     0.900000E-01   1.00800           0
      3453 MEMB     26       POPC     C316     CTL3    -0.270000       12.0110           0
      3454 MEMB     26       POPC     H16X     HAL3     0.900000E-01   1.00800           0
      3455 MEMB     26       POPC     H16Y     HAL3     0.900000E-01   1.00800           0
      3456 MEMB     26       POPC     H16Z     HAL3     0.900000E-01   1.00800           0
      3457 MEMB     27       POPS     N        NH3L    -0.300000       14.0070           0
      3458 MEMB     27       POPS     HN1      HCL      0.330000       1.00800           0
      3459 MEMB     27       POPS     HN2      HCL      0.330000       1.00800           0
      3460 MEMB     27       POPS     HN3      HCL      0.330000       1.00800           0
      3461 MEMB     27       POPS     C12      CTL1     0.210000       12.0110           0
      3462 MEMB     27       POPS     H12A     HBL      0.100000       1.00800           0
      3463 MEMB     27       POPS     C13      CCL      0.340000       12.0110           0
      3464 MEMB     27       POPS     O13A     OCL     -0.670000       15.9994           0
      3465 MEMB     27       POPS     O13B     OCL     -0.670000       15.9994           0
      3466 MEMB     27       POPS     C11      CTL2    -0.800000E-01   12.0110           0
      3467 MEMB     27       POPS     H11A     HAL2     0.900000E-01   1.00800           0
      3468 MEMB     27       POPS     H11B     HAL2     0.900000E-01   1.00800           0
      3469 MEMB     27       POPS     P        PL        1.50000       30.9740           0
      3470 MEMB     27       POPS     O13      O2L     -0.780000       15.9994           0
      3471 MEMB     27       POPS     O14      O2L     -0.780000       15.9994           0
      3472 MEMB     27       POPS     O12      OSLP    -0.570000       15.9994           0
      3473 MEMB     27       POPS     O11      OSLP    -0.570000       15.9994           0
      3474 MEMB     27       POPS     C1       CTL2    -0.800000E-01   12.0110           0
      3475 MEMB     27       POPS     HA       HAL2     0.900000E-01   1.00800           0
      3476 MEMB     27       POPS     HB       HAL2     0.900000E-01   1.00800           0
      3477 MEMB     27       POPS     C2       CTL1     0.170000       12.0110           0
      3478 MEMB     27       POPS     HS       HAL1     0.900000E-01   1.00800           0
      3479 MEMB     27       POPS     O21      OSL     -0.490000       15.9994           0
      3480 MEMB     27       POPS     C21      CL       0.900000       12.0110           0
      3481 MEMB     27       POPS     O22      OBL     -0.630000       15.9994           0
      3482 MEMB     27       POPS     C22      CTL2    -0.220000       12.0110           0
      3483 MEMB     27       POPS     H2R      HAL2     0.900000E-01   1.00800           0
      3484 MEMB     27       POPS     H2S      HAL2     0.900000E-01   1.00800           0
      3485 MEMB     27       POPS     C3       CTL2     0.800000E-01   12.0110           0
      3486 MEMB     27       POPS     HX       HAL2     0.900000E-01   1.00800           0
      3487 MEMB     27       POPS     HY       HAL2     0.900000E-01   1.00800           0
      3488 MEMB     27       POPS     O31      OSL     -0.490000       15.9994           0
      3489 MEMB     27       POPS     C31      CL       0.900000       12.0110           0
      3490 MEMB     27       POPS     O32      OBL     -0.630000       15.9994           0
      3491 MEMB     27       POPS     C32      CTL2    -0.220000       12.0110           0
      3492 MEMB     27       POPS     H2X      HAL2     0.900000E-01   1.00800           0
      3493 MEMB     27       POPS     H2Y      HAL2     0.900000E-01   1.00800           0
      3494 MEMB     27       POPS     C23      CTL2    -0.180000       12.0110           0
      3495 MEMB     27       POPS     H3R      HAL2     0.900000E-01   1.00800           0
      3496 MEMB     27       POPS     H3S      HAL2     0.900000E-01   1.00800           0
      3497 MEMB     27       POPS     C24      CTL2    -0.180000       12.0110           0
      3498 MEMB     27       POPS     H4R      HAL2     0.900000E-01   1.00800           0
      3499 MEMB     27       POPS     H4S      HAL2     0.900000E-01   1.00800           0
      3500 MEMB     27       POPS     C25      CTL2    -0.180000       12.0110           0
      3501 MEMB     27       POPS     H5R      HAL2     0.900000E-01   1.00800           0
      3502 MEMB     27       POPS     H5S      HAL2     0.900000E-01   1.00800           0
      3503 MEMB     27       POPS     C26      CTL2    -0.180000       12.0110           0
      3504 MEMB     27       POPS     H6R      HAL2     0.900000E-01   1.00800           0
      3505 MEMB     27       POPS     H6S      HAL2     0.900000E-01   1.00800           0
      3506 MEMB     27       POPS     C27      CTL2    -0.180000       12.0110           0
      3507 MEMB     27       POPS     H7R      HAL2     0.900000E-01   1.00800           0
      3508 MEMB     27       POPS     H7S      HAL2     0.900000E-01   1.00800           0
      3509 MEMB     27       POPS     C28      CTL2    -0.180000       12.0110           0
      3510 MEMB     27       POPS     H8R      HAL2     0.900000E-01   1.00800           0
      3511 MEMB     27       POPS     H8S      HAL2     0.900000E-01   1.00800           0
      3512 MEMB     27       POPS     C29      CEL1    -0.150000       12.0110           0
      3513 MEMB     27       POPS     H91      HEL1     0.150000       1.00800           0
      3514 MEMB     27       POPS     C210     CEL1    -0.150000       12.0110           0
      3515 MEMB     27       POPS     H101     HEL1     0.150000       1.00800           0
      3516 MEMB     27       POPS     C211     CTL2    -0.180000       12.0110           0
      3517 MEMB     27       POPS     H11R     HAL2     0.900000E-01   1.00800           0
      3518 MEMB     27       POPS     H11S     HAL2     0.900000E-01   1.00800           0
      3519 MEMB     27       POPS     C212     CTL2    -0.180000       12.0110           0
      3520 MEMB     27       POPS     H12R     HAL2     0.900000E-01   1.00800           0
      3521 MEMB     27       POPS     H12S     HAL2     0.900000E-01   1.00800           0
      3522 MEMB     27       POPS     C213     CTL2    -0.180000       12.0110           0
      3523 MEMB     27       POPS     H13R     HAL2     0.900000E-01   1.00800           0
      3524 MEMB     27       POPS     H13S     HAL2     0.900000E-01   1.00800           0
      3525 MEMB     27       POPS     C214     CTL2    -0.180000       12.0110           0
      3526 MEMB     27       POPS     H14R     HAL2     0.900000E-01   1.00800           0
      3527 MEMB     27       POPS     H14S     HAL2     0.900000E-01   1.00800           0
      3528 MEMB     27       POPS     C215     CTL2    -0.180000       12.0110           0
      3529 MEMB     27       POPS     H15R     HAL2     0.900000E-01   1.00800           0
      3530 MEMB     27       POPS     H15S     HAL2     0.900000E-01   1.00800           0
      3531 MEMB     27       POPS     C216     CTL2    -0.180000       12.0110           0
      3532 MEMB     27       POPS     H16R     HAL2     0.900000E-01   1.00800           0
      3533 MEMB     27       POPS     H16S     HAL2     0.900000E-01   1.00800           0
      3534 MEMB     27       POPS     C217     CTL2    -0.180000       12.0110           0
      3535 MEMB     27       POPS     H17R     HAL2     0.900000E-01   1.00800           0
      3536 MEMB     27       POPS     H17S     HAL2     0.900000E-01   1.00800           0
      3537 MEMB     27       POPS     C218     CTL3    -0.270000       12.0110           0
      3538 MEMB     27       POPS     H18R     HAL3     0.900000E-01   1.00800           0
      3539 MEMB     27       POPS     H18S     HAL3     0.900000E-01   1.00800           0
      3540 MEMB     27       POPS     H18T     HAL3     0.900000E-01   1.00800           0
      3541 MEMB     27       POPS     C33      CTL2    -0.180000       12.0110           0
      3542 MEMB     27       POPS     H3X      HAL2     0.900000E-01   1.00800           0
      3543 MEMB     27       POPS     H3Y      HAL2     0.900000E-01   1.00800           0
      3544 MEMB     27       POPS     C34      CTL2    -0.180000       12.0110           0
      3545 MEMB     27       POPS     H4X      HAL2     0.900000E-01   1.00800           0
      3546 MEMB     27       POPS     H4Y      HAL2     0.900000E-01   1.00800           0
      3547 MEMB     27       POPS     C35      CTL2    -0.180000       12.0110           0
      3548 MEMB     27       POPS     H5X      HAL2     0.900000E-01   1.00800           0
      3549 MEMB     27       POPS     H5Y      HAL2     0.900000E-01   1.00800           0
      3550 MEMB     27       POPS     C36      CTL2    -0.180000       12.0110           0
      3551 MEMB     27       POPS     H6X      HAL2     0.900000E-01   1.00800           0
      3552 MEMB     27       POPS     H6Y      HAL2     0.900000E-01   1.00800           0
      3553 MEMB     27       POPS     C37      CTL2    -0.180000       12.0110           0
      3554 MEMB     27       POPS     H7X      HAL2     0.900000E-01   1.00800           0
      3555 MEMB     27       POPS     H7Y      HAL2     0.900000E-01   1.00800           0
      3556 MEMB     27       POPS     C38      CTL2    -0.180000       12.0110           0
      3557 MEMB     27       POPS     H8X      HAL2     0.900000E-01   1.00800           0
      3558 MEMB     27       POPS     H8Y      HAL2     0.900000E-01   1.00800           0
      3559 MEMB     27       POPS     C39      CTL2    -0.180000       12.0110           0
      3560 MEMB     27       POPS     H9X      HAL2     0.900000E-01   1.00800           0
      3561 MEMB     27       POPS     H9Y      HAL2     0.900000E-01   1.00800           0
      3562 MEMB     27       POPS     C310     CTL2    -0.180000       12.0110           0
      3563 MEMB     27       POPS     H10X     HAL2     0.900000E-01   1.00800           0
      3564 MEMB     27       POPS     H10Y     HAL2     0.900000E-01   1.00800           0
      3565 MEMB     27       POPS     C311     CTL2    -0.180000       12.0110           0
      3566 MEMB     27       POPS     H11X     HAL2     0.900000E-01   1.00800           0
      3567 MEMB     27       POPS     H11Y     HAL2     0.900000E-01   1.00800           0
      3568 MEMB     27       POPS     C312     CTL2    -0.180000       12.0110           0
      3569 MEMB     27       POPS     H12X     HAL2     0.900000E-01   1.00800           0
      3570 MEMB     27       POPS     H12Y     HAL2     0.900000E-01   1.00800           0
      3571 MEMB     27       POPS     C313     CTL2    -0.180000       12.0110           0
      3572 MEMB     27       POPS     H13X     HAL2     0.900000E-01   1.00800           0
      3573 MEMB     27       POPS     H13Y     HAL2     0.900000E-01   1.00800           0
      3574 MEMB     27       POPS     C314     CTL2    -0.180000       12.0110           0
      3575 MEMB     27       POPS     H14X     HAL2     0.900000E-01   1.00800           0
      3576 MEMB     27       POPS     H14Y     HAL2     0.900000E-01   1.00800           0
      3577 MEMB     27       POPS     C315     CTL2    -0.180000       12.0110           0
      3578 MEMB     27       POPS     H15X     HAL2     0.900000E-01   1.00800           0
      3579 MEMB     27       POPS     H15Y     HAL2     0.900000E-01   1.00800           0
      3580 MEMB     27       POPS     C316     CTL3    -0.270000       12.0110           0
      3581 MEMB     27       POPS     H16X     HAL3     0.900000E-01   1.00800           0
      3582 MEMB     27       POPS     H16Y     HAL3     0.900000E-01   1.00800           0
      3583 MEMB     27       POPS     H16Z     HAL3     0.900000E-01   1.00800           0
      3584 MEMB     28       POPC     N        NTL     -0.600000       14.0070           0
      3585 MEMB     28       POPC     C12      CTL2    -0.100000       12.0110           0
      3586 MEMB     28       POPC     H12A     HL       0.250000       1.00800           0
      3587 MEMB     28       POPC     H12B     HL       0.250000       1.00800           0
      3588 MEMB     28       POPC     C13      CTL5    -0.350000       12.0110           0
      3589 MEMB     28       POPC     H13A     HL       0.250000       1.00800           0
      3590 MEMB     28       POPC     H13B     HL       0.250000       1.00800           0
      3591 MEMB     28       POPC     H13C     HL       0.250000       1.00800           0
      3592 MEMB     28       POPC     C14      CTL5    -0.350000       12.0110           0
      3593 MEMB     28       POPC     H14A     HL       0.250000       1.00800           0
      3594 MEMB     28       POPC     H14B     HL       0.250000       1.00800           0
      3595 MEMB     28       POPC     H14C     HL       0.250000       1.00800           0
      3596 MEMB     28       POPC     C15      CTL5    -0.350000       12.0110           0
      3597 MEMB     28       POPC     H15A     HL       0.250000       1.00800           0
      3598 MEMB     28       POPC     H15B     HL       0.250000       1.00800           0
      3599 MEMB     28       POPC     H15C     HL       0.250000       1.00800           0
      3600 MEMB     28       POPC     C11      CTL2    -0.800000E-01   12.0110           0
      3601 MEMB     28       POPC     H11A     HAL2     0.900000E-01   1.00800           0
      3602 MEMB     28       POPC     H11B     HAL2     0.900000E-01   1.00800           0
      3603 MEMB     28       POPC     P        PL        1.50000       30.9740           0
      3604 MEMB     28       POPC     O13      O2L     -0.780000       15.9994           0
      3605 MEMB     28       POPC     O14      O2L     -0.780000       15.9994           0
      3606 MEMB     28       POPC     O12      OSLP    -0.570000       15.9994           0
      3607 MEMB     28       POPC     O11      OSLP    -0.570000       15.9994           0
      3608 MEMB     28       POPC     C1       CTL2    -0.800000E-01   12.0110           0
      3609 MEMB     28       POPC     HA       HAL2     0.900000E-01   1.00800           0
      3610 MEMB     28       POPC     HB       HAL2     0.900000E-01   1.00800           0
      3611 MEMB     28       POPC     C2       CTL1     0.170000       12.0110           0
      3612 MEMB     28       POPC     HS       HAL1     0.900000E-01   1.00800           0
      3613 MEMB     28       POPC     O21      OSL     -0.490000       15.9994           0
      3614 MEMB     28       POPC     C21      CL       0.900000       12.0110           0
      3615 MEMB     28       POPC     O22      OBL     -0.630000       15.9994           0
      3616 MEMB     28       POPC     C22      CTL2    -0.220000       12.0110           0
      3617 MEMB     28       POPC     H2R      HAL2     0.900000E-01   1.00800           0
      3618 MEMB     28       POPC     H2S      HAL2     0.900000E-01   1.00800           0
      3619 MEMB     28       POPC     C3       CTL2     0.800000E-01   12.0110           0
      3620 MEMB     28       POPC     HX       HAL2     0.900000E-01   1.00800           0
      3621 MEMB     28       POPC     HY       HAL2     0.900000E-01   1.00800           0
      3622 MEMB     28       POPC     O31      OSL     -0.490000       15.9994           0
      3623 MEMB     28       POPC     C31      CL       0.900000       12.0110           0
      3624 MEMB     28       POPC     O32      OBL     -0.630000       15.9994           0
      3625 MEMB     28       POPC     C32      CTL2    -0.220000       12.0110           0
      3626 MEMB     28       POPC     H2X      HAL2     0.900000E-01   1.00800           0
      3627 MEMB     28       POPC     H2Y      HAL2     0.900000E-01   1.00800           0
      3628 MEMB     28       POPC     C23      CTL2    -0.180000       12.0110           0
      3629 MEMB     28       POPC     H3R      HAL2     0.900000E-01   1.00800           0
      3630 MEMB     28       POPC     H3S      HAL2     0.900000E-01   1.00800           0
      3631 MEMB     28       POPC     C24      CTL2    -0.180000       12.0110           0
      3632 MEMB     28       POPC     H4R      HAL2     0.900000E-01   1.00800           0
      3633 MEMB     28       POPC     H4S      HAL2     0.900000E-01   1.00800           0
      3634 MEMB     28       POPC     C25      CTL2    -0.180000       12.0110           0
      3635 MEMB     28       POPC     H5R      HAL2     0.900000E-01   1.00800           0
      3636 MEMB     28       POPC     H5S      HAL2     0.900000E-01   1.00800           0
      3637 MEMB     28       POPC     C26      CTL2    -0.180000       12.0110           0
      3638 MEMB     28       POPC     H6R      HAL2     0.900000E-01   1.00800           0
      3639 MEMB     28       POPC     H6S      HAL2     0.900000E-01   1.00800           0
      3640 MEMB     28       POPC     C27      CTL2    -0.180000       12.0110           0
      3641 MEMB     28       POPC     H7R      HAL2     0.900000E-01   1.00800           0
      3642 MEMB     28       POPC     H7S      HAL2     0.900000E-01   1.00800           0
      3643 MEMB     28       POPC     C28      CTL2    -0.180000       12.0110           0
      3644 MEMB     28       POPC     H8R      HAL2     0.900000E-01   1.00800           0
      3645 MEMB     28       POPC     H8S      HAL2     0.900000E-01   1.00800           0
      3646 MEMB     28       POPC     C29      CEL1    -0.150000       12.0110           0
      3647 MEMB     28       POPC     H91      HEL1     0.150000       1.00800           0
      3648 MEMB     28       POPC     C210     CEL1    -0.150000       12.0110           0
      3649 MEMB     28       POPC     H101     HEL1     0.150000       1.00800           0
      3650 MEMB     28       POPC     C211     CTL2    -0.180000       12.0110           0
      3651 MEMB     28       POPC     H11R     HAL2     0.900000E-01   1.00800           0
      3652 MEMB     28       POPC     H11S     HAL2     0.900000E-01   1.00800           0
      3653 MEMB     28       POPC     C212     CTL2    -0.180000       12.0110           0
      3654 MEMB     28       POPC     H12R     HAL2     0.900000E-01   1.00800           0
      3655 MEMB     28       POPC     H12S     HAL2     0.900000E-01   1.00800           0
      3656 MEMB     28       POPC     C213     CTL2    -0.180000       12.0110           0
      3657 MEMB     28       POPC     H13R     HAL2     0.900000E-01   1.00800           0
      3658 MEMB     28       POPC     H13S     HAL2     0.900000E-01   1.00800           0
      3659 MEMB     28       POPC     C214     CTL2    -0.180000       12.0110           0
      3660 MEMB     28       POPC     H14R     HAL2     0.900000E-01   1.00800           0
      3661 MEMB     28       POPC     H14S     HAL2     0.900000E-01   1.00800           0
      3662 MEMB     28       POPC     C215     CTL2    -0.180000       12.0110           0
      3663 MEMB     28       POPC     H15R     HAL2     0.900000E-01   1.00800           0
      3664 MEMB     28       POPC     H15S     HAL2     0.900000E-01   1.00800           0
      3665 MEMB     28       POPC     C216     CTL2    -0.180000       12.0110           0
      3666 MEMB     28       POPC     H16R     HAL2     0.900000E-01   1.00800           0
      3667 MEMB     28       POPC     H16S     HAL2     0.900000E-01   1.00800           0
      3668 MEMB     28       POPC     C217     CTL2    -0.180000       12.0110           0
      3669 MEMB     28       POPC     H17R     HAL2     0.900000E-01   1.00800           0
      3670 MEMB     28       POPC     H17S     HAL2     0.900000E-01   1.00800           0
      3671 MEMB     28       POPC     C218     CTL3    -0.270000       12.0110           0
      3672 MEMB     28       POPC     H18R     HAL3     0.900000E-01   1.00800           0
      3673 MEMB     28       POPC     H18S     HAL3     0.900000E-01   1.00800           0
      3674 MEMB     28       POPC     H18T     HAL3     0.900000E-01   1.00800           0
      3675 MEMB     28       POPC     C33      CTL2    -0.180000       12.0110           0
      3676 MEMB     28       POPC     H3X      HAL2     0.900000E-01   1.00800           0
      3677 MEMB     28       POPC     H3Y      HAL2     0.900000E-01   1.00800           0
      3678 MEMB     28       POPC     C34      CTL2    -0.180000       12.0110           0
      3679 MEMB     28       POPC     H4X      HAL2     0.900000E-01   1.00800           0
      3680 MEMB     28       POPC     H4Y      HAL2     0.900000E-01   1.00800           0
      3681 MEMB     28       POPC     C35      CTL2    -0.180000       12.0110           0
      3682 MEMB     28       POPC     H5X      HAL2     0.900000E-01   1.00800           0
      3683 MEMB     28       POPC     H5Y      HAL2     0.900000E-01   1.00800           0
      3684 MEMB     28       POPC     C36      CTL2    -0.180000       12.0110           0
      3685 MEMB     28       POPC     H6X      HAL2     0.900000E-01   1.00800           0
      3686 MEMB     28       POPC     H6Y      HAL2     0.900000E-01   1.00800           0
      3687 MEMB     28       POPC     C37      CTL2    -0.180000       12.0110           0
      3688 MEMB     28       POPC     H7X      HAL2     0.900000E-01   1.00800           0
      3689 MEMB     28       POPC     H7Y      HAL2     0.900000E-01   1.00800           0
      3690 MEMB     28       POPC     C38      CTL2    -0.180000       12.0110           0
      3691 MEMB     28       POPC     H8X      HAL2     0.900000E-01   1.00800           0
      3692 MEMB     28       POPC     H8Y      HAL2     0.900000E-01   1.00800           0
      3693 MEMB     28       POPC     C39      CTL2    -0.180000       12.0110           0
      3694 MEMB     28       POPC     H9X      HAL2     0.900000E-01   1.00800           0
      3695 MEMB     28       POPC     H9Y      HAL2     0.900000E-01   1.00800           0
      3696 MEMB     28       POPC     C310     CTL2    -0.180000       12.0110           0
      3697 MEMB     28       POPC     H10X     HAL2     0.900000E-01   1.00800           0
      3698 MEMB     28       POPC     H10Y     HAL2     0.900000E-01   1.00800           0
      3699 MEMB     28       POPC     C311     CTL2    -0.180000       12.0110           0
      3700 MEMB     28       POPC     H11X     HAL2     0.900000E-01   1.00800           0
      3701 MEMB     28       POPC     H11Y     HAL2     0.900000E-01   1.00800           0
      3702 MEMB     28       POPC     C312     CTL2    -0.180000       12.0110           0
      3703 MEMB     28       POPC     H12X     HAL2     0.900000E-01   1.00800           0
      3704 MEMB     28       POPC     H12Y     HAL2     0.900000E-01   1.00800           0
      3705 MEMB     28       POPC     C313     CTL2    -0.180000       12.0110           0
      3706 MEMB     28       POPC     H13X     HAL2     0.900000E-01   1.00800           0
      3707 MEMB     28       POPC     H13Y     HAL2     0.900000E-01   1.00800           0
      3708 MEMB     28       POPC     C314     CTL2    -0.180000       12.0110           0
      3709 MEMB     28       POPC     H14X     HAL2     0.900000E-01   1.00800           0
      3710 MEMB     28       POPC     H14Y     HAL2     0.900000E-01   1.00800           0
      3711 MEMB     28       POPC     C315     CTL2    -0.180000       12.0110           0
      3712 MEMB     28       POPC     H15X     HAL2     0.900000E-01   1.00800           0
      3713 MEMB     28       POPC     H15Y     HAL2     0.900000E-01   1.00800           0
      3714 MEMB     28       POPC     C316     CTL3    -0.270000       12.0110           0
      3715 MEMB     28       POPC     H16X     HAL3     0.900000E-01   1.00800           0
      3716 MEMB     28       POPC     H16Y     HAL3     0.900000E-01   1.00800           0
      3717 MEMB     28       POPC     H16Z     HAL3     0.900000E-01   1.00800           0
      3718 MEMB     29       POPC     N        NTL     -0.600000       14.0070           0
      3719 MEMB     29       POPC     C12      CTL2    -0.100000       12.0110           0
      3720 MEMB     29       POPC     H12A     HL       0.250000       1.00800           0
      3721 MEMB     29       POPC     H12B     HL       0.250000       1.00800           0
      3722 MEMB     29       POPC     C13      CTL5    -0.350000       12.0110           0
      3723 MEMB     29       POPC     H13A     HL       0.250000       1.00800           0
      3724 MEMB     29       POPC     H13B     HL       0.250000       1.00800           0
      3725 MEMB     29       POPC     H13C     HL       0.250000       1.00800           0
      3726 MEMB     29       POPC     C14      CTL5    -0.350000       12.0110           0
      3727 MEMB     29       POPC     H14A     HL       0.250000       1.00800           0
      3728 MEMB     29       POPC     H14B     HL       0.250000       1.00800           0
      3729 MEMB     29       POPC     H14C     HL       0.250000       1.00800           0
      3730 MEMB     29       POPC     C15      CTL5    -0.350000       12.0110           0
      3731 MEMB     29       POPC     H15A     HL       0.250000       1.00800           0
      3732 MEMB     29       POPC     H15B     HL       0.250000       1.00800           0
      3733 MEMB     29       POPC     H15C     HL       0.250000       1.00800           0
      3734 MEMB     29       POPC     C11      CTL2    -0.800000E-01   12.0110           0
      3735 MEMB     29       POPC     H11A     HAL2     0.900000E-01   1.00800           0
      3736 MEMB     29       POPC     H11B     HAL2     0.900000E-01   1.00800           0
      3737 MEMB     29       POPC     P        PL        1.50000       30.9740           0
      3738 MEMB     29       POPC     O13      O2L     -0.780000       15.9994           0
      3739 MEMB     29       POPC     O14      O2L     -0.780000       15.9994           0
      3740 MEMB     29       POPC     O12      OSLP    -0.570000       15.9994           0
      3741 MEMB     29       POPC     O11      OSLP    -0.570000       15.9994           0
      3742 MEMB     29       POPC     C1       CTL2    -0.800000E-01   12.0110           0
      3743 MEMB     29       POPC     HA       HAL2     0.900000E-01   1.00800           0
      3744 MEMB     29       POPC     HB       HAL2     0.900000E-01   1.00800           0
      3745 MEMB     29       POPC     C2       CTL1     0.170000       12.0110           0
      3746 MEMB     29       POPC     HS       HAL1     0.900000E-01   1.00800           0
      3747 MEMB     29       POPC     O21      OSL     -0.490000       15.9994           0
      3748 MEMB     29       POPC     C21      CL       0.900000       12.0110           0
      3749 MEMB     29       POPC     O22      OBL     -0.630000       15.9994           0
      3750 MEMB     29       POPC     C22      CTL2    -0.220000       12.0110           0
      3751 MEMB     29       POPC     H2R      HAL2     0.900000E-01   1.00800           0
      3752 MEMB     29       POPC     H2S      HAL2     0.900000E-01   1.00800           0
      3753 MEMB     29       POPC     C3       CTL2     0.800000E-01   12.0110           0
      3754 MEMB     29       POPC     HX       HAL2     0.900000E-01   1.00800           0
      3755 MEMB     29       POPC     HY       HAL2     0.900000E-01   1.00800           0
      3756 MEMB     29       POPC     O31      OSL     -0.490000       15.9994           0
      3757 MEMB     29       POPC     C31      CL       0.900000       12.0110           0
      3758 MEMB     29       POPC     O32      OBL     -0.630000       15.9994           0
      3759 MEMB     29       POPC     C32      CTL2    -0.220000       12.0110           0
      3760 MEMB     29       POPC     H2X      HAL2     0.900000E-01   1.00800           0
      3761 MEMB     29       POPC     H2Y      HAL2     0.900000E-01   1.00800           0
      3762 MEMB     29       POPC     C23      CTL2    -0.180000       12.0110           0
      3763 MEMB     29       POPC     H3R      HAL2     0.900000E-01   1.00800           0
      3764 MEMB     29       POPC     H3S      HAL2     0.900000E-01   1.00800           0
      3765 MEMB     29       POPC     C24      CTL2    -0.180000       12.0110           0
      3766 MEMB     29       POPC     H4R      HAL2     0.900000E-01   1.00800           0
      3767 MEMB     29       POPC     H4S      HAL2     0.900000E-01   1.00800           0
      3768 MEMB     29       POPC     C25      CTL2    -0.180000       12.0110           0
      3769 MEMB     29       POPC     H5R      HAL2     0.900000E-01   1.00800           0
      3770 MEMB     29       POPC     H5S      HAL2     0.900000E-01   1.00800           0
      3771 MEMB     29       POPC     C26      CTL2    -0.180000       12.0110           0
      3772 MEMB     29       POPC     H6R      HAL2     0.900000E-01   1.00800           0
      3773 MEMB     29       POPC     H6S      HAL2     0.900000E-01   1.00800           0
      3774 MEMB     29       POPC     C27      CTL2    -0.180000       12.0110           0
      3775 MEMB     29       POPC     H7R      HAL2     0.900000E-01   1.00800           0
      3776 MEMB     29       POPC     H7S      HAL2     0.900000E-01   1.00800           0
      3777 MEMB     29       POPC     C28      CTL2    -0.180000       12.0110           0
      3778 MEMB     29       POPC     H8R      HAL2     0.900000E-01   1.00800           0
      3779 MEMB     29       POPC     H8S      HAL2     0.900000E-01   1.00800           0
      3780 MEMB     29       POPC     C29      CEL1    -0.150000       12.0110           0
      3781 MEMB     29       POPC     H91      HEL1     0.150000       1.00800           0
      3782 MEMB     29       POPC     C210     CEL1    -0.150000       12.0110           0
      3783 MEMB     29       POPC     H101     HEL1     0.150000       1.00800           0
      3784 MEMB     29       POPC     C211     CTL2    -0.180000       12.0110           0
      3785 MEMB     29       POPC     H11R     HAL2     0.900000E-01   1.00800           0
      3786 MEMB     29       POPC     H11S     HAL2     0.900000E-01   1.00800           0
      3787 MEMB     29       POPC     C212     CTL2    -0.180000       12.0110           0
      3788 MEMB     29       POPC     H12R     HAL2     0.900000E-01   1.00800           0
      3789 MEMB     29       POPC     H12S     HAL2     0.900000E-01   1.00800           0
      3790 MEMB     29       POPC     C213     CTL2    -0.180000       12.0110           0
      3791 MEMB     29       POPC     H13R     HAL2     0.900000E-01   1.00800           0
      3792 MEMB     29       POPC     H13S     HAL2     0.900000E-01   1.00800           0
      3793 MEMB     29       POPC     C214     CTL2    -0.180000       12.0110           0
      3794 MEMB     29       POPC     H14R     HAL2     0.900000E-01   1.00800           0
      3795 MEMB     29       POPC     H14S     HAL2     0.900000E-01   1.00800           0
      3796 MEMB     29       POPC     C215     CTL2    -0.180000       12.0110           0
      3797 MEMB     29       POPC     H15R     HAL2     0.900000E-01   1.00800           0
      3798 MEMB     29       POPC     H15S     HAL2     0.900000E-01   1.00800           0
      3799 MEMB     29       POPC     C216     CTL2    -0.180000       12.0110           0
      3800 MEMB     29       POPC     H16R     HAL2     0.900000E-01   1.00800           0
      3801 MEMB     29       POPC     H16S     HAL2     0.900000E-01   1.00800           0
      3802 MEMB     29       POPC     C217     CTL2    -0.180000       12.0110           0
      3803 MEMB     29       POPC     H17R     HAL2     0.900000E-01   1.00800           0
      3804 MEMB     29       POPC     H17S     HAL2     0.900000E-01   1.00800           0
      3805 MEMB     29       POPC     C218     CTL3    -0.270000       12.0110           0
      3806 MEMB     29       POPC     H18R     HAL3     0.900000E-01   1.00800           0
      3807 MEMB     29       POPC     H18S     HAL3     0.900000E-01   1.00800           0
      3808 MEMB     29       POPC     H18T     HAL3     0.900000E-01   1.00800           0
      3809 MEMB     29       POPC     C33      CTL2    -0.180000       12.0110           0
      3810 MEMB     29       POPC     H3X      HAL2     0.900000E-01   1.00800           0
      3811 MEMB     29       POPC     H3Y      HAL2     0.900000E-01   1.00800           0
      3812 MEMB     29       POPC     C34      CTL2    -0.180000       12.0110           0
      3813 MEMB     29       POPC     H4X      HAL2     0.900000E-01   1.00800           0
      3814 MEMB     29       POPC     H4Y      HAL2     0.900000E-01   1.00800           0
      3815 MEMB     29       POPC     C35      CTL2    -0.180000       12.0110           0
      3816 MEMB     29       POPC     H5X      HAL2     0.900000E-01   1.00800           0
      3817 MEMB     29       POPC     H5Y      HAL2     0.900000E-01   1.00800           0
      3818 MEMB     29       POPC     C36      CTL2    -0.180000       12.0110           0
      3819 MEMB     29       POPC     H6X      HAL2     0.900000E-01   1.00800           0
      3820 MEMB     29       POPC     H6Y      HAL2     0.900000E-01   1.00800           0
      3821 MEMB     29       POPC     C37      CTL2    -0.180000       12.0110           0
      3822 MEMB     29       POPC     H7X      HAL2     0.900000E-01   1.00800           0
      3823 MEMB     29       POPC     H7Y      HAL2     0.900000E-01   1.00800           0
      3824 MEMB     29       POPC     C38      CTL2    -0.180000       12.0110           0
      3825 MEMB     29       POPC     H8X      HAL2     0.900000E-01   1.00800           0
      3826 MEMB     29       POPC     H8Y      HAL2     0.900000E-01   1.00800           0
      3827 MEMB     29       POPC     C39      CTL2    -0.180000       12.0110           0
      3828 MEMB     29       POPC     H9X      HAL2     0.900000E-01   1.00800           0
      3829 MEMB     29       POPC     H9Y      HAL2     0.900000E-01   1.00800           0
      3830 MEMB     29       POPC     C310     CTL2    -0.180000       12.0110           0
      3831 MEMB     29       POPC     H10X     HAL2     0.900000E-01   1.00800           0
      3832 MEMB     29       POPC     H10Y     HAL2     0.900000E-01   1.00800           0
      3833 MEMB     29       POPC     C311     CTL2    -0.180000       12.0110           0
      3834 MEMB     29       POPC     H11X     HAL2     0.900000E-01   1.00800           0
      3835 MEMB     29       POPC     H11Y     HAL2     0.900000E-01   1.00800           0
      3836 MEMB     29       POPC     C312     CTL2    -0.180000       12.0110           0
      3837 MEMB     29       POPC     H12X     HAL2     0.900000E-01   1.00800           0
      3838 MEMB     29       POPC     H12Y     HAL2     0.900000E-01   1.00800           0
      3839 MEMB     29       POPC     C313     CTL2    -0.180000       12.0110           0
      3840 MEMB     29       POPC     H13X     HAL2     0.900000E-01   1.00800           0
      3841 MEMB     29       POPC     H13Y     HAL2     0.900000E-01   1.00800           0
      3842 MEMB     29       POPC     C314     CTL2    -0.180000       12.0110           0
      3843 MEMB     29       POPC     H14X     HAL2     0.900000E-01   1.00800           0
      3844 MEMB     29       POPC     H14Y     HAL2     0.900000E-01   1.00800           0
      3845 MEMB     29       POPC     C315     CTL2    -0.180000       12.0110           0
      3846 MEMB     29       POPC     H15X     HAL2     0.900000E-01   1.00800           0
      3847 MEMB     29       POPC     H15Y     HAL2     0.900000E-01   1.00800           0
      3848 MEMB     29       POPC     C316     CTL3    -0.270000       12.0110           0
      3849 MEMB     29       POPC     H16X     HAL3     0.900000E-01   1.00800           0
      3850 MEMB     29       POPC     H16Y     HAL3     0.900000E-01   1.00800           0
      3851 MEMB     29       POPC     H16Z     HAL3     0.900000E-01   1.00800           0
      3852 MEMB     30       POPC     N        NTL     -0.600000       14.0070           0
      3853 MEMB     30       POPC     C12      CTL2    -0.100000       12.0110           0
      3854 MEMB     30       POPC     H12A     HL       0.250000       1.00800           0
      3855 MEMB     30       POPC     H12B     HL       0.250000       1.00800           0
      3856 MEMB     30       POPC     C13      CTL5    -0.350000       12.0110           0
      3857 MEMB     30       POPC     H13A     HL       0.250000       1.00800           0
      3858 MEMB     30       POPC     H13B     HL       0.250000       1.00800           0
      3859 MEMB     30       POPC     H13C     HL       0.250000       1.00800           0
      3860 MEMB     30       POPC     C14      CTL5    -0.350000       12.0110           0
      3861 MEMB     30       POPC     H14A     HL       0.250000       1.00800           0
      3862 MEMB     30       POPC     H14B     HL       0.250000       1.00800           0
      3863 MEMB     30       POPC     H14C     HL       0.250000       1.00800           0
      3864 MEMB     30       POPC     C15      CTL5    -0.350000       12.0110           0
      3865 MEMB     30       POPC     H15A     HL       0.250000       1.00800           0
      3866 MEMB     30       POPC     H15B     HL       0.250000       1.00800           0
      3867 MEMB     30       POPC     H15C     HL       0.250000       1.00800           0
      3868 MEMB     30       POPC     C11      CTL2    -0.800000E-01   12.0110           0
      3869 MEMB     30       POPC     H11A     HAL2     0.900000E-01   1.00800           0
      3870 MEMB     30       POPC     H11B     HAL2     0.900000E-01   1.00800           0
      3871 MEMB     30       POPC     P        PL        1.50000       30.9740           0
      3872 MEMB     30       POPC     O13      O2L     -0.780000       15.9994           0
      3873 MEMB     30       POPC     O14      O2L     -0.780000       15.9994           0
      3874 MEMB     30       POPC     O12      OSLP    -0.570000       15.9994           0
      3875 MEMB     30       POPC     O11      OSLP    -0.570000       15.9994           0
      3876 MEMB     30       POPC     C1       CTL2    -0.800000E-01   12.0110           0
      3877 MEMB     30       POPC     HA       HAL2     0.900000E-01   1.00800           0
      3878 MEMB     30       POPC     HB       HAL2     0.900000E-01   1.00800           0
      3879 MEMB     30       POPC     C2       CTL1     0.170000       12.0110           0
      3880 MEMB     30       POPC     HS       HAL1     0.900000E-01   1.00800           0
      3881 MEMB     30       POPC     O21      OSL     -0.490000       15.9994           0
      3882 MEMB     30       POPC     C21      CL       0.900000       12.0110           0
      3883 MEMB     30       POPC     O22      OBL     -0.630000       15.9994           0
      3884 MEMB     30       POPC     C22      CTL2    -0.220000       12.0110           0
      3885 MEMB     30       POPC     H2R      HAL2     0.900000E-01   1.00800           0
      3886 MEMB     30       POPC     H2S      HAL2     0.900000E-01   1.00800           0
      3887 MEMB     30       POPC     C3       CTL2     0.800000E-01   12.0110           0
      3888 MEMB     30       POPC     HX       HAL2     0.900000E-01   1.00800           0
      3889 MEMB     30       POPC     HY       HAL2     0.900000E-01   1.00800           0
      3890 MEMB     30       POPC     O31      OSL     -0.490000       15.9994           0
      3891 MEMB     30       POPC     C31      CL       0.900000       12.0110           0
      3892 MEMB     30       POPC     O32      OBL     -0.630000       15.9994           0
      3893 MEMB     30       POPC     C32      CTL2    -0.220000       12.0110           0
      3894 MEMB     30       POPC     H2X      HAL2     0.900000E-01   1.00800           0
      3895 MEMB     30       POPC     H2Y      HAL2     0.900000E-01   1.00800           0
      3896 MEMB     30       POPC     C23      CTL2    -0.180000       12.0110           0
      3897 MEMB     30       POPC     H3R      HAL2     0.900000E-01   1.00800           0
      3898 MEMB     30       POPC     H3S      HAL2     0.900000E-01   1.00800           0
      3899 MEMB     30       POPC     C24      CTL2    -0.180000       12.0110           0
      3900 MEMB     30       POPC     H4R      HAL2     0.900000E-01   1.00800           0
      3901 MEMB     30       POPC     H4S      HAL2     0.900000E-01   1.00800           0
      3902 MEMB     30       POPC     C25      CTL2    -0.180000       12.0110           0
      3903 MEMB     30       POPC     H5R      HAL2     0.900000E-01   1.00800           0
      3904 MEMB     30       POPC     H5S      HAL2     0.900000E-01   1.00800           0
      3905 MEMB     30       POPC     C26      CTL2    -0.180000       12.0110           0
      3906 MEMB     30       POPC     H6R      HAL2     0.900000E-01   1.00800           0
      3907 MEMB     30       POPC     H6S      HAL2     0.900000E-01   1.00800           0
      3908 MEMB     30       POPC     C27      CTL2    -0.180000       12.0110           0
      3909 MEMB     30       POPC     H7R      HAL2     0.900000E-01   1.00800           0
      3910 MEMB     30       POPC     H7S      HAL2     0.900000E-01   1.00800           0
      3911 MEMB     30       POPC     C28      CTL2    -0.180000       12.0110           0
      3912 MEMB     30       POPC     H8R      HAL2     0.900000E-01   1.00800           0
      3913 MEMB     30       POPC     H8S      HAL2     0.900000E-01   1.00800           0
      3914 MEMB     30       POPC     C29      CEL1    -0.150000       12.0110           0
      3915 MEMB     30       POPC     H91      HEL1     0.150000       1.00800           0
      3916 MEMB     30       POPC     C210     CEL1    -0.150000       12.0110           0
      3917 MEMB     30       POPC     H101     HEL1     0.150000       1.00800           0
      3918 MEMB     30       POPC     C211     CTL2    -0.180000       12.0110           0
      3919 MEMB     30       POPC     H11R     HAL2     0.900000E-01   1.00800           0
      3920 MEMB     30       POPC     H11S     HAL2     0.900000E-01   1.00800           0
      3921 MEMB     30       POPC     C212     CTL2    -0.180000       12.0110           0
      3922 MEMB     30       POPC     H12R     HAL2     0.900000E-01   1.00800           0
      3923 MEMB     30       POPC     H12S     HAL2     0.900000E-01   1.00800           0
      3924 MEMB     30       POPC     C213     CTL2    -0.180000       12.0110           0
      3925 MEMB     30       POPC     H13R     HAL2     0.900000E-01   1.00800           0
      3926 MEMB     30       POPC     H13S     HAL2     0.900000E-01   1.00800           0
      3927 MEMB     30       POPC     C214     CTL2    -0.180000       12.0110           0
      3928 MEMB     30       POPC     H14R     HAL2     0.900000E-01   1.00800           0
      3929 MEMB     30       POPC     H14S     HAL2     0.900000E-01   1.00800           0
      3930 MEMB     30       POPC     C215     CTL2    -0.180000       12.0110           0
      3931 MEMB     30       POPC     H15R     HAL2     0.900000E-01   1.00800           0
      3932 MEMB     30       POPC     H15S     HAL2     0.900000E-01   1.00800           0
      3933 MEMB     30       POPC     C216     CTL2    -0.180000       12.0110           0
      3934 MEMB     30       POPC     H16R     HAL2     0.900000E-01   1.00800           0
      3935 MEMB     30       POPC     H16S     HAL2     0.900000E-01   1.00800           0
      3936 MEMB     30       POPC     C217     CTL2    -0.180000       12.0110           0
      3937 MEMB     30       POPC     H17R     HAL2     0.900000E-01   1.00800           0
      3938 MEMB     30       POPC     H17S     HAL2     0.900000E-01   1.00800           0
      3939 MEMB     30       POPC     C218     CTL3    -0.270000       12.0110           0
      3940 MEMB     30       POPC     H18R     HAL3     0.900000E-01   1.00800           0
      3941 MEMB     30       POPC     H18S     HAL3     0.900000E-01   1.00800           0
      3942 MEMB     30       POPC     H18T     HAL3     0.900000E-01   1.00800           0
      3943 MEMB     30       POPC     C33      CTL2    -0.180000       12.0110           0
      3944 MEMB     30       POPC     H3X      HAL2     0.900000E-01   1.00800           0
      3945 MEMB     30       POPC     H3Y      HAL2     0.900000E-01   1.00800           0
      3946 MEMB     30       POPC     C34      CTL2    -0.180000       12.0110           0
      3947 MEMB     30       POPC     H4X      HAL2     0.900000E-01   1.00800           0
      3948 MEMB     30       POPC     H4Y      HAL2     0.900000E-01   1.00800           0
      3949 MEMB     30       POPC     C35      CTL2    -0.180000       12.0110           0
      3950 MEMB     30       POPC     H5X      HAL2     0.900000E-01   1.00800           0
      3951 MEMB     30       POPC     H5Y      HAL2     0.900000E-01   1.00800           0
      3952 MEMB     30       POPC     C36      CTL2    -0.180000       12.0110           0
      3953 MEMB     30       POPC     H6X      HAL2     0.900000E-01   1.00800           0
      3954 MEMB     30       POPC     H6Y      HAL2     0.900000E-01   1.00800           0
      3955 MEMB     30       POPC     C37      CTL2    -0.180000       12.0110           0
      3956 MEMB     30       POPC     H7X      HAL2     0.900000E-01   1.00800           0
      3957 MEMB     30       POPC     H7Y      HAL2     0.900000E-01   1.00800           0
      3958 MEMB     30       POPC     C38      CTL2    -0.180000       12.0110           0
      3959 MEMB     30       POPC     H8X      HAL2     0.900000E-01   1.00800           0
      3960 MEMB     30       POPC     H8Y      HAL2     0.900000E-01   1.00800           0
      3961 MEMB     30       POPC     C39      CTL2    -0.180000       12.0110           0
      3962 MEMB     30       POPC     H9X      HAL2     0.900000E-01   1.00800           0
      3963 MEMB     30       POPC     H9Y      HAL2     0.900000E-01   1.00800           0
      3964 MEMB     30       POPC     C310     CTL2    -0.180000       12.0110           0
      3965 MEMB     30       POPC     H10X     HAL2     0.900000E-01   1.00800           0
      3966 MEMB     30       POPC     H10Y     HAL2     0.900000E-01   1.00800           0
      3967 MEMB     30       POPC     C311     CTL2    -0.180000       12.0110           0
      3968 MEMB     30       POPC     H11X     HAL2     0.900000E-01   1.00800           0
      3969 MEMB     30       POPC     H11Y     HAL2     0.900000E-01   1.00800           0
      3970 MEMB     30       POPC     C312     CTL2    -0.180000       12.0110           0
      3971 MEMB     30       POPC     H12X     HAL2     0.900000E-01   1.00800           0
      3972 MEMB     30       POPC     H12Y     HAL2     0.900000E-01   1.00800           0
      3973 MEMB     30       POPC     C313     CTL2    -0.180000       12.0110           0
      3974 MEMB     30       POPC     H13X     HAL2     0.900000E-01   1.00800           0
      3975 MEMB     30       POPC     H13Y     HAL2     0.900000E-01   1.00800           0
      3976 MEMB     30       POPC     C314     CTL2    -0.180000       12.0110           0
      3977 MEMB     30       POPC     H14X     HAL2     0.900000E-01   1.00800           0
      3978 MEMB     30       POPC     H14Y     HAL2     0.900000E-01   1.00800           0
      3979 MEMB     30       POPC     C315     CTL2    -0.180000       12.0110           0
      3980 MEMB     30       POPC     H15X     HAL2     0.900000E-01   1.00800           0
      3981 MEMB     30       POPC     H15Y     HAL2     0.900000E-01   1.00800           0
      3982 MEMB     30       POPC     C316     CTL3    -0.270000       12.0110           0
      3983 MEMB     30       POPC     H16X     HAL3     0.900000E-01   1.00800           0
      3984 MEMB     30       POPC     H16Y     HAL3     0.900000E-01   1.00800           0
      3985 MEMB     30       POPC     H16Z     HAL3     0.900000E-01   1.00800           0
      3986 MEMB     31       POPS     N        NH3L    -0.300000       14.0070           0
      3987 MEMB     31       POPS     HN1      HCL      0.330000       1.00800           0
      3988 MEMB     31       POPS     HN2      HCL      0.330000       1.00800           0
      3989 MEMB     31       POPS     HN3      HCL      0.330000       1.00800           0
      3990 MEMB     31       POPS     C12      CTL1     0.210000       12.0110           0
      3991 MEMB     31       POPS     H12A     HBL      0.100000       1.00800           0
      3992 MEMB     31       POPS     C13      CCL      0.340000       12.0110           0
      3993 MEMB     31       POPS     O13A     OCL     -0.670000       15.9994           0
      3994 MEMB     31       POPS     O13B     OCL     -0.670000       15.9994           0
      3995 MEMB     31       POPS     C11      CTL2    -0.800000E-01   12.0110           0
      3996 MEMB     31       POPS     H11A     HAL2     0.900000E-01   1.00800           0
      3997 MEMB     31       POPS     H11B     HAL2     0.900000E-01   1.00800           0
      3998 MEMB     31       POPS     P        PL        1.50000       30.9740           0
      3999 MEMB     31       POPS     O13      O2L     -0.780000       15.9994           0
      4000 MEMB     31       POPS     O14      O2L     -0.780000       15.9994           0
      4001 MEMB     31       POPS     O12      OSLP    -0.570000       15.9994           0
      4002 MEMB     31       POPS     O11      OSLP    -0.570000       15.9994           0
      4003 MEMB     31       POPS     C1       CTL2    -0.800000E-01   12.0110           0
      4004 MEMB     31       POPS     HA       HAL2     0.900000E-01   1.00800           0
      4005 MEMB     31       POPS     HB       HAL2     0.900000E-01   1.00800           0
      4006 MEMB     31       POPS     C2       CTL1     0.170000       12.0110           0
      4007 MEMB     31       POPS     HS       HAL1     0.900000E-01   1.00800           0
      4008 MEMB     31       POPS     O21      OSL     -0.490000       15.9994           0
      4009 MEMB     31       POPS     C21      CL       0.900000       12.0110           0
      4010 MEMB     31       POPS     O22      OBL     -0.630000       15.9994           0
      4011 MEMB     31       POPS     C22      CTL2    -0.220000       12.0110           0
      4012 MEMB     31       POPS     H2R      HAL2     0.900000E-01   1.00800           0
      4013 MEMB     31       POPS     H2S      HAL2     0.900000E-01   1.00800           0
      4014 MEMB     31       POPS     C3       CTL2     0.800000E-01   12.0110           0
      4015 MEMB     31       POPS     HX       HAL2     0.900000E-01   1.00800           0
      4016 MEMB     31       POPS     HY       HAL2     0.900000E-01   1.00800           0
      4017 MEMB     31       POPS     O31      OSL     -0.490000       15.9994           0
      4018 MEMB     31       POPS     C31      CL       0.900000       12.0110           0
      4019 MEMB     31       POPS     O32      OBL     -0.630000       15.9994           0
      4020 MEMB     31       POPS     C32      CTL2    -0.220000       12.0110           0
      4021 MEMB     31       POPS     H2X      HAL2     0.900000E-01   1.00800           0
      4022 MEMB     31       POPS     H2Y      HAL2     0.900000E-01   1.00800           0
      4023 MEMB     31       POPS     C23      CTL2    -0.180000       12.0110           0
      4024 MEMB     31       POPS     H3R      HAL2     0.900000E-01   1.00800           0
      4025 MEMB     31       POPS     H3S      HAL2     0.900000E-01   1.00800           0
      4026 MEMB     31       POPS     C24      CTL2    -0.180000       12.0110           0
      4027 MEMB     31       POPS     H4R      HAL2     0.900000E-01   1.00800           0
      4028 MEMB     31       POPS     H4S      HAL2     0.900000E-01   1.00800           0
      4029 MEMB     31       POPS     C25      CTL2    -0.180000       12.0110           0
      4030 MEMB     31       POPS     H5R      HAL2     0.900000E-01   1.00800           0
      4031 MEMB     31       POPS     H5S      HAL2     0.900000E-01   1.00800           0
      4032 MEMB     31       POPS     C26      CTL2    -0.180000       12.0110           0
      4033 MEMB     31       POPS     H6R      HAL2     0.900000E-01   1.00800           0
      4034 MEMB     31       POPS     H6S      HAL2     0.900000E-01   1.00800           0
      4035 MEMB     31       POPS     C27      CTL2    -0.180000       12.0110           0
      4036 MEMB     31       POPS     H7R      HAL2     0.900000E-01   1.00800           0
      4037 MEMB     31       POPS     H7S      HAL2     0.900000E-01   1.00800           0
      4038 MEMB     31       POPS     C28      CTL2    -0.180000       12.0110           0
      4039 MEMB     31       POPS     H8R      HAL2     0.900000E-01   1.00800           0
      4040 MEMB     31       POPS     H8S      HAL2     0.900000E-01   1.00800           0
      4041 MEMB     31       POPS     C29      CEL1    -0.150000       12.0110           0
      4042 MEMB     31       POPS     H91      HEL1     0.150000       1.00800           0
      4043 MEMB     31       POPS     C210     CEL1    -0.150000       12.0110           0
      4044 MEMB     31       POPS     H101     HEL1     0.150000       1.00800           0
      4045 MEMB     31       POPS     C211     CTL2    -0.180000       12.0110           0
      4046 MEMB     31       POPS     H11R     HAL2     0.900000E-01   1.00800           0
      4047 MEMB     31       POPS     H11S     HAL2     0.900000E-01   1.00800           0
      4048 MEMB     31       POPS     C212     CTL2    -0.180000       12.0110           0
      4049 MEMB     31       POPS     H12R     HAL2     0.900000E-01   1.00800           0
      4050 MEMB     31       POPS     H12S     HAL2     0.900000E-01   1.00800           0
      4051 MEMB     31       POPS     C213     CTL2    -0.180000       12.0110           0
      4052 MEMB     31       POPS     H13R     HAL2     0.900000E-01   1.00800           0
      4053 MEMB     31       POPS     H13S     HAL2     0.900000E-01   1.00800           0
      4054 MEMB     31       POPS     C214     CTL2    -0.180000       12.0110           0
      4055 MEMB     31       POPS     H14R     HAL2     0.900000E-01   1.00800           0
      4056 MEMB     31       POPS     H14S     HAL2     0.900000E-01   1.00800           0
      4057 MEMB     31       POPS     C215     CTL2    -0.180000       12.0110           0
      4058 MEMB     31       POPS     H15R     HAL2     0.900000E-01   1.00800           0
      4059 MEMB     31       POPS     H15S     HAL2     0.900000E-01   1.00800           0
      4060 MEMB     31       POPS     C216     CTL2    -0.180000       12.0110           0
      4061 MEMB     31       POPS     H16R     HAL2     0.900000E-01   1.00800           0
      4062 MEMB     31       POPS     H16S     HAL2     0.900000E-01   1.00800           0
      4063 MEMB     31       POPS     C217     CTL2    -0.180000       12.0110           0
      4064 MEMB     31       POPS     H17R     HAL2     0.900000E-01   1.00800           0
      4065 MEMB     31       POPS     H17S     HAL2     0.900000E-01   1.00800           0
      4066 MEMB     31       POPS     C218     CTL3    -0.270000       12.0110           0
      4067 MEMB     31       POPS     H18R     HAL3     0.900000E-01   1.00800           0
      4068 MEMB     31       POPS     H18S     HAL3     0.900000E-01   1.00800           0
      4069 MEMB     31       POPS     H18T     HAL3     0.900000E-01   1.00800           0
      4070 MEMB     31       POPS     C33      CTL2    -0.180000       12.0110           0
      4071 MEMB     31       POPS     H3X      HAL2     0.900000E-01   1.00800           0
      4072 MEMB     31       POPS     H3Y      HAL2     0.900000E-01   1.00800           0
      4073 MEMB     31       POPS     C34      CTL2    -0.180000       12.0110           0
      4074 MEMB     31       POPS     H4X      HAL2     0.900000E-01   1.00800           0
      4075 MEMB     31       POPS     H4Y      HAL2     0.900000E-01   1.00800           0
      4076 MEMB     31       POPS     C35      CTL2    -0.180000       12.0110           0
      4077 MEMB     31       POPS     H5X      HAL2     0.900000E-01   1.00800           0
      4078 MEMB     31       POPS     H5Y      HAL2     0.900000E-01   1.00800           0
      4079 MEMB     31       POPS     C36      CTL2    -0.180000       12.0110           0
      4080 MEMB     31       POPS     H6X      HAL2     0.900000E-01   1.00800           0
      4081 MEMB     31       POPS     H6Y      HAL2     0.900000E-01   1.00800           0
      4082 MEMB     31       POPS     C37      CTL2    -0.180000       12.0110           0
      4083 MEMB     31       POPS     H7X      HAL2     0.900000E-01   1.00800           0
      4084 MEMB     31       POPS     H7Y      HAL2     0.900000E-01   1.00800           0
      4085 MEMB     31       POPS     C38      CTL2    -0.180000       12.0110           0
      4086 MEMB     31       POPS     H8X      HAL2     0.900000E-01   1.00800           0
      4087 MEMB     31       POPS     H8Y      HAL2     0.900000E-01   1.00800           0
      4088 MEMB     31       POPS     C39      CTL2    -0.180000       12.0110           0
      4089 MEMB     31       POPS     H9X      HAL2     0.900000E-01   1.00800           0
      4090 MEMB     31       POPS     H9Y      HAL2     0.900000E-01   1.00800           0
      4091 MEMB     31       POPS     C310     CTL2    -0.180000       12.0110           0
      4092 MEMB     31       POPS     H10X     HAL2     0.900000E-01   1.00800           0
      4093 MEMB     31       POPS     H10Y     HAL2     0.900000E-01   1.00800           0
      4094 MEMB     31       POPS     C311     CTL2    -0.180000       12.0110           0
      4095 MEMB     31       POPS     H11X     HAL2     0.900000E-01   1.00800           0
      4096 MEMB     31       POPS     H11Y     HAL2     0.900000E-01   1.00800           0
      4097 MEMB     31       POPS     C312     CTL2    -0.180000       12.0110           0
      4098 MEMB     31       POPS     H12X     HAL2     0.900000E-01   1.00800           0
      4099 MEMB     31       POPS     H12Y     HAL2     0.900000E-01   1.00800           0
      4100 MEMB     31       POPS     C313     CTL2    -0.180000       12.0110           0
      4101 MEMB     31       POPS     H13X     HAL2     0.900000E-01   1.00800           0
      4102 MEMB     31       POPS     H13Y     HAL2     0.900000E-01   1.00800           0
      4103 MEMB     31       POPS     C314     CTL2    -0.180000       12.0110           0
      4104 MEMB     31       POPS     H14X     HAL2     0.900000E-01   1.00800           0
      4105 MEMB     31       POPS     H14Y     HAL2     0.900000E-01   1.00800           0
      4106 MEMB     31       POPS     C315     CTL2    -0.180000       12.0110           0
      4107 MEMB     31       POPS     H15X     HAL2     0.900000E-01   1.00800           0
      4108 MEMB     31       POPS     H15Y     HAL2     0.900000E-01   1.00800           0
      4109 MEMB     31       POPS     C316     CTL3    -0.270000       12.0110           0
      4110 MEMB     31       POPS     H16X     HAL3     0.900000E-01   1.00800           0
      4111 MEMB     31       POPS     H16Y     HAL3     0.900000E-01   1.00800           0
      4112 MEMB     31       POPS     H16Z     HAL3     0.900000E-01   1.00800           0
      4113 MEMB     32       POPC     N        NTL     -0.600000       14.0070           0
      4114 MEMB     32       POPC     C12      CTL2    -0.100000       12.0110           0
      4115 MEMB     32       POPC     H12A     HL       0.250000       1.00800           0
      4116 MEMB     32       POPC     H12B     HL       0.250000       1.00800           0
      4117 MEMB     32       POPC     C13      CTL5    -0.350000       12.0110           0
      4118 MEMB     32       POPC     H13A     HL       0.250000       1.00800           0
      4119 MEMB     32       POPC     H13B     HL       0.250000       1.00800           0
      4120 MEMB     32       POPC     H13C     HL       0.250000       1.00800           0
      4121 MEMB     32       POPC     C14      CTL5    -0.350000       12.0110           0
      4122 MEMB     32       POPC     H14A     HL       0.250000       1.00800           0
      4123 MEMB     32       POPC     H14B     HL       0.250000       1.00800           0
      4124 MEMB     32       POPC     H14C     HL       0.250000       1.00800           0
      4125 MEMB     32       POPC     C15      CTL5    -0.350000       12.0110           0
      4126 MEMB     32       POPC     H15A     HL       0.250000       1.00800           0
      4127 MEMB     32       POPC     H15B     HL       0.250000       1.00800           0
      4128 MEMB     32       POPC     H15C     HL       0.250000       1.00800           0
      4129 MEMB     32       POPC     C11      CTL2    -0.800000E-01   12.0110           0
      4130 MEMB     32       POPC     H11A     HAL2     0.900000E-01   1.00800           0
      4131 MEMB     32       POPC     H11B     HAL2     0.900000E-01   1.00800           0
      4132 MEMB     32       POPC     P        PL        1.50000       30.9740           0
      4133 MEMB     32       POPC     O13      O2L     -0.780000       15.9994           0
      4134 MEMB     32       POPC     O14      O2L     -0.780000       15.9994           0
      4135 MEMB     32       POPC     O12      OSLP    -0.570000       15.9994           0
      4136 MEMB     32       POPC     O11      OSLP    -0.570000       15.9994           0
      4137 MEMB     32       POPC     C1       CTL2    -0.800000E-01   12.0110           0
      4138 MEMB     32       POPC     HA       HAL2     0.900000E-01   1.00800           0
      4139 MEMB     32       POPC     HB       HAL2     0.900000E-01   1.00800           0
      4140 MEMB     32       POPC     C2       CTL1     0.170000       12.0110           0
      4141 MEMB     32       POPC     HS       HAL1     0.900000E-01   1.00800           0
      4142 MEMB     32       POPC     O21      OSL     -0.490000       15.9994           0
      4143 MEMB     32       POPC     C21      CL       0.900000       12.0110           0
      4144 MEMB     32       POPC     O22      OBL     -0.630000       15.9994           0
      4145 MEMB     32       POPC     C22      CTL2    -0.220000       12.0110           0
      4146 MEMB     32       POPC     H2R      HAL2     0.900000E-01   1.00800           0
      4147 MEMB     32       POPC     H2S      HAL2     0.900000E-01   1.00800           0
      4148 MEMB     32       POPC     C3       CTL2     0.800000E-01   12.0110           0
      4149 MEMB     32       POPC     HX       HAL2     0.900000E-01   1.00800           0
      4150 MEMB     32       POPC     HY       HAL2     0.900000E-01   1.00800           0
      4151 MEMB     32       POPC     O31      OSL     -0.490000       15.9994           0
      4152 MEMB     32       POPC     C31      CL       0.900000       12.0110           0
      4153 MEMB     32       POPC     O32      OBL     -0.630000       15.9994           0
      4154 MEMB     32       POPC     C32      CTL2    -0.220000       12.0110           0
      4155 MEMB     32       POPC     H2X      HAL2     0.900000E-01   1.00800           0
      4156 MEMB     32       POPC     H2Y      HAL2     0.900000E-01   1.00800           0
      4157 MEMB     32       POPC     C23      CTL2    -0.180000       12.0110           0
      4158 MEMB     32       POPC     H3R      HAL2     0.900000E-01   1.00800           0
      4159 MEMB     32       POPC     H3S      HAL2     0.900000E-01   1.00800           0
      4160 MEMB     32       POPC     C24      CTL2    -0.180000       12.0110           0
      4161 MEMB     32       POPC     H4R      HAL2     0.900000E-01   1.00800           0
      4162 MEMB     32       POPC     H4S      HAL2     0.900000E-01   1.00800           0
      4163 MEMB     32       POPC     C25      CTL2    -0.180000       12.0110           0
      4164 MEMB     32       POPC     H5R      HAL2     0.900000E-01   1.00800           0
      4165 MEMB     32       POPC     H5S      HAL2     0.900000E-01   1.00800           0
      4166 MEMB     32       POPC     C26      CTL2    -0.180000       12.0110           0
      4167 MEMB     32       POPC     H6R      HAL2     0.900000E-01   1.00800           0
      4168 MEMB     32       POPC     H6S      HAL2     0.900000E-01   1.00800           0
      4169 MEMB     32       POPC     C27      CTL2    -0.180000       12.0110           0
      4170 MEMB     32       POPC     H7R      HAL2     0.900000E-01   1.00800           0
      4171 MEMB     32       POPC     H7S      HAL2     0.900000E-01   1.00800           0
      4172 MEMB     32       POPC     C28      CTL2    -0.180000       12.0110           0
      4173 MEMB     32       POPC     H8R      HAL2     0.900000E-01   1.00800           0
      4174 MEMB     32       POPC     H8S      HAL2     0.900000E-01   1.00800           0
      4175 MEMB     32       POPC     C29      CEL1    -0.150000       12.0110           0
      4176 MEMB     32       POPC     H91      HEL1     0.150000       1.00800           0
      4177 MEMB     32       POPC     C210     CEL1    -0.150000       12.0110           0
      4178 MEMB     32       POPC     H101     HEL1     0.150000       1.00800           0
      4179 MEMB     32       POPC     C211     CTL2    -0.180000       12.0110           0
      4180 MEMB     32       POPC     H11R     HAL2     0.900000E-01   1.00800           0
      4181 MEMB     32       POPC     H11S     HAL2     0.900000E-01   1.00800           0
      4182 MEMB     32       POPC     C212     CTL2    -0.180000       12.0110           0
      4183 MEMB     32       POPC     H12R     HAL2     0.900000E-01   1.00800           0
      4184 MEMB     32       POPC     H12S     HAL2     0.900000E-01   1.00800           0
      4185 MEMB     32       POPC     C213     CTL2    -0.180000       12.0110           0
      4186 MEMB     32       POPC     H13R     HAL2     0.900000E-01   1.00800           0
      4187 MEMB     32       POPC     H13S     HAL2     0.900000E-01   1.00800           0
      4188 MEMB     32       POPC     C214     CTL2    -0.180000       12.0110           0
      4189 MEMB     32       POPC     H14R     HAL2     0.900000E-01   1.00800           0
      4190 MEMB     32       POPC     H14S     HAL2     0.900000E-01   1.00800           0
      4191 MEMB     32       POPC     C215     CTL2    -0.180000       12.0110           0
      4192 MEMB     32       POPC     H15R     HAL2     0.900000E-01   1.00800           0
      4193 MEMB     32       POPC     H15S     HAL2     0.900000E-01   1.00800           0
      4194 MEMB     32       POPC     C216     CTL2    -0.180000       12.0110           0
      4195 MEMB     32       POPC     H16R     HAL2     0.900000E-01   1.00800           0
      4196 MEMB     32       POPC     H16S     HAL2     0.900000E-01   1.00800           0
      4197 MEMB     32       POPC     C217     CTL2    -0.180000       12.0110           0
      4198 MEMB     32       POPC     H17R     HAL2     0.900000E-01   1.00800           0
      4199 MEMB     32       POPC     H17S     HAL2     0.900000E-01   1.00800           0
      4200 MEMB     32       POPC     C218     CTL3    -0.270000       12.0110           0
      4201 MEMB     32       POPC     H18R     HAL3     0.900000E-01   1.00800           0
      4202 MEMB     32       POPC     H18S     HAL3     0.900000E-01   1.00800           0
      4203 MEMB     32       POPC     H18T     HAL3     0.900000E-01   1.00800           0
      4204 MEMB     32       POPC     C33      CTL2    -0.180000       12.0110           0
      4205 MEMB     32       POPC     H3X      HAL2     0.900000E-01   1.00800           0
      4206 MEMB     32       POPC     H3Y      HAL2     0.900000E-01   1.00800           0
      4207 MEMB     32       POPC     C34      CTL2    -0.180000       12.0110           0
      4208 MEMB     32       POPC     H4X      HAL2     0.900000E-01   1.00800           0
      4209 MEMB     32       POPC     H4Y      HAL2     0.900000E-01   1.00800           0
      4210 MEMB     32       POPC     C35      CTL2    -0.180000       12.0110           0
      4211 MEMB     32       POPC     H5X      HAL2     0.900000E-01   1.00800           0
      4212 MEMB     32       POPC     H5Y      HAL2     0.900000E-01   1.00800           0
      4213 MEMB     32       POPC     C36      CTL2    -0.180000       12.0110           0
      4214 MEMB     32       POPC     H6X      HAL2     0.900000E-01   1.00800           0
      4215 MEMB     32       POPC     H6Y      HAL2     0.900000E-01   1.00800           0
      4216 MEMB     32       POPC     C37      CTL2    -0.180000       12.0110           0
      4217 MEMB     32       POPC     H7X      HAL2     0.900000E-01   1.00800           0
      4218 MEMB     32       POPC     H7Y      HAL2     0.900000E-01   1.00800           0
      4219 MEMB     32       POPC     C38      CTL2    -0.180000       12.0110           0
      4220 MEMB     32       POPC     H8X      HAL2     0.900000E-01   1.00800           0
      4221 MEMB     32       POPC     H8Y      HAL2     0.900000E-01   1.00800           0
      4222 MEMB     32       POPC     C39      CTL2    -0.180000       12.0110           0
      4223 MEMB     32       POPC     H9X      HAL2     0.900000E-01   1.00800           0
      4224 MEMB     32       POPC     H9Y      HAL2     0.900000E-01   1.00800           0
      4225 MEMB     32       POPC     C310     CTL2    -0.180000       12.0110           0
      4226 MEMB     32       POPC     H10X     HAL2     0.900000E-01   1.00800           0
      4227 MEMB     32       POPC     H10Y     HAL2     0.900000E-01   1.00800           0
      4228 MEMB     32       POPC     C311     CTL2    -0.180000       12.0110           0
      4229 MEMB     32       POPC     H11X     HAL2     0.900000E-01   1.00800           0
      4230 MEMB     32       POPC     H11Y     HAL2     0.900000E-01   1.00800           0
      4231 MEMB     32       POPC     C312     CTL2    -0.180000       12.0110           0
      4232 MEMB     32       POPC     H12X     HAL2     0.900000E-01   1.00800           0
      4233 MEMB     32       POPC     H12Y     HAL2     0.900000E-01   1.00800           0
      4234 MEMB     32       POPC     C313     CTL2    -0.180000       12.0110           0
      4235 MEMB     32       POPC     H13X     HAL2     0.900000E-01   1.00800           0
      4236 MEMB     32       POPC     H13Y     HAL2     0.900000E-01   1.00800           0
      4237 MEMB     32       POPC     C314     CTL2    -0.180000       12.0110           0
      4238 MEMB     32       POPC     H14X     HAL2     0.900000E-01   1.00800           0
      4239 MEMB     32       POPC     H14Y     HAL2     0.900000E-01   1.00800           0
      4240 MEMB     32       POPC     C315     CTL2    -0.180000       12.0110           0
      4241 MEMB     32       POPC     H15X     HAL2     0.900000E-01   1.00800           0
      4242 MEMB     32       POPC     H15Y     HAL2     0.900000E-01   1.00800           0
      4243 MEMB     32       POPC     C316     CTL3    -0.270000       12.0110           0
      4244 MEMB     32       POPC     H16X     HAL3     0.900000E-01   1.00800           0
      4245 MEMB     32       POPC     H16Y     HAL3     0.900000E-01   1.00800           0
      4246 MEMB     32       POPC     H16Z     HAL3     0.900000E-01   1.00800           0
      4247 MEMB     33       POPC     N        NTL     -0.600000       14.0070           0
      4248 MEMB     33       POPC     C12      CTL2    -0.100000       12.0110           0
      4249 MEMB     33       POPC     H12A     HL       0.250000       1.00800           0
      4250 MEMB     33       POPC     H12B     HL       0.250000       1.00800           0
      4251 MEMB     33       POPC     C13      CTL5    -0.350000       12.0110           0
      4252 MEMB     33       POPC     H13A     HL       0.250000       1.00800           0
      4253 MEMB     33       POPC     H13B     HL       0.250000       1.00800           0
      4254 MEMB     33       POPC     H13C     HL       0.250000       1.00800           0
      4255 MEMB     33       POPC     C14      CTL5    -0.350000       12.0110           0
      4256 MEMB     33       POPC     H14A     HL       0.250000       1.00800           0
      4257 MEMB     33       POPC     H14B     HL       0.250000       1.00800           0
      4258 MEMB     33       POPC     H14C     HL       0.250000       1.00800           0
      4259 MEMB     33       POPC     C15      CTL5    -0.350000       12.0110           0
      4260 MEMB     33       POPC     H15A     HL       0.250000       1.00800           0
      4261 MEMB     33       POPC     H15B     HL       0.250000       1.00800           0
      4262 MEMB     33       POPC     H15C     HL       0.250000       1.00800           0
      4263 MEMB     33       POPC     C11      CTL2    -0.800000E-01   12.0110           0
      4264 MEMB     33       POPC     H11A     HAL2     0.900000E-01   1.00800           0
      4265 MEMB     33       POPC     H11B     HAL2     0.900000E-01   1.00800           0
      4266 MEMB     33       POPC     P        PL        1.50000       30.9740           0
      4267 MEMB     33       POPC     O13      O2L     -0.780000       15.9994           0
      4268 MEMB     33       POPC     O14      O2L     -0.780000       15.9994           0
      4269 MEMB     33       POPC     O12      OSLP    -0.570000       15.9994           0
      4270 MEMB     33       POPC     O11      OSLP    -0.570000       15.9994           0
      4271 MEMB     33       POPC     C1       CTL2    -0.800000E-01   12.0110           0
      4272 MEMB     33       POPC     HA       HAL2     0.900000E-01   1.00800           0
      4273 MEMB     33       POPC     HB       HAL2     0.900000E-01   1.00800           0
      4274 MEMB     33       POPC     C2       CTL1     0.170000       12.0110           0
      4275 MEMB     33       POPC     HS       HAL1     0.900000E-01   1.00800           0
      4276 MEMB     33       POPC     O21      OSL     -0.490000       15.9994           0
      4277 MEMB     33       POPC     C21      CL       0.900000       12.0110           0
      4278 MEMB     33       POPC     O22      OBL     -0.630000       15.9994           0
      4279 MEMB     33       POPC     C22      CTL2    -0.220000       12.0110           0
      4280 MEMB     33       POPC     H2R      HAL2     0.900000E-01   1.00800           0
      4281 MEMB     33       POPC     H2S      HAL2     0.900000E-01   1.00800           0
      4282 MEMB     33       POPC     C3       CTL2     0.800000E-01   12.0110           0
      4283 MEMB     33       POPC     HX       HAL2     0.900000E-01   1.00800           0
      4284 MEMB     33       POPC     HY       HAL2     0.900000E-01   1.00800           0
      4285 MEMB     33       POPC     O31      OSL     -0.490000       15.9994           0
      4286 MEMB     33       POPC     C31      CL       0.900000       12.0110           0
      4287 MEMB     33       POPC     O32      OBL     -0.630000       15.9994           0
      4288 MEMB     33       POPC     C32      CTL2    -0.220000       12.0110           0
      4289 MEMB     33       POPC     H2X      HAL2     0.900000E-01   1.00800           0
      4290 MEMB     33       POPC     H2Y      HAL2     0.900000E-01   1.00800           0
      4291 MEMB     33       POPC     C23      CTL2    -0.180000       12.0110           0
      4292 MEMB     33       POPC     H3R      HAL2     0.900000E-01   1.00800           0
      4293 MEMB     33       POPC     H3S      HAL2     0.900000E-01   1.00800           0
      4294 MEMB     33       POPC     C24      CTL2    -0.180000       12.0110           0
      4295 MEMB     33       POPC     H4R      HAL2     0.900000E-01   1.00800           0
      4296 MEMB     33       POPC     H4S      HAL2     0.900000E-01   1.00800           0
      4297 MEMB     33       POPC     C25      CTL2    -0.180000       12.0110           0
      4298 MEMB     33       POPC     H5R      HAL2     0.900000E-01   1.00800           0
      4299 MEMB     33       POPC     H5S      HAL2     0.900000E-01   1.00800           0
      4300 MEMB     33       POPC     C26      CTL2    -0.180000       12.0110           0
      4301 MEMB     33       POPC     H6R      HAL2     0.900000E-01   1.00800           0
      4302 MEMB     33       POPC     H6S      HAL2     0.900000E-01   1.00800           0
      4303 MEMB     33       POPC     C27      CTL2    -0.180000       12.0110           0
      4304 MEMB     33       POPC     H7R      HAL2     0.900000E-01   1.00800           0
      4305 MEMB     33       POPC     H7S      HAL2     0.900000E-01   1.00800           0
      4306 MEMB     33       POPC     C28      CTL2    -0.180000       12.0110           0
      4307 MEMB     33       POPC     H8R      HAL2     0.900000E-01   1.00800           0
      4308 MEMB     33       POPC     H8S      HAL2     0.900000E-01   1.00800           0
      4309 MEMB     33       POPC     C29      CEL1    -0.150000       12.0110           0
      4310 MEMB     33       POPC     H91      HEL1     0.150000       1.00800           0
      4311 MEMB     33       POPC     C210     CEL1    -0.150000       12.0110           0
      4312 MEMB     33       POPC     H101     HEL1     0.150000       1.00800           0
      4313 MEMB     33       POPC     C211     CTL2    -0.180000       12.0110           0
      4314 MEMB     33       POPC     H11R     HAL2     0.900000E-01   1.00800           0
      4315 MEMB     33       POPC     H11S     HAL2     0.900000E-01   1.00800           0
      4316 MEMB     33       POPC     C212     CTL2    -0.180000       12.0110           0
      4317 MEMB     33       POPC     H12R     HAL2     0.900000E-01   1.00800           0
      4318 MEMB     33       POPC     H12S     HAL2     0.900000E-01   1.00800           0
      4319 MEMB     33       POPC     C213     CTL2    -0.180000       12.0110           0
      4320 MEMB     33       POPC     H13R     HAL2     0.900000E-01   1.00800           0
      4321 MEMB     33       POPC     H13S     HAL2     0.900000E-01   1.00800           0
      4322 MEMB     33       POPC     C214     CTL2    -0.180000       12.0110           0
      4323 MEMB     33       POPC     H14R     HAL2     0.900000E-01   1.00800           0
      4324 MEMB     33       POPC     H14S     HAL2     0.900000E-01   1.00800           0
      4325 MEMB     33       POPC     C215     CTL2    -0.180000       12.0110           0
      4326 MEMB     33       POPC     H15R     HAL2     0.900000E-01   1.00800           0
      4327 MEMB     33       POPC     H15S     HAL2     0.900000E-01   1.00800           0
      4328 MEMB     33       POPC     C216     CTL2    -0.180000       12.0110           0
      4329 MEMB     33       POPC     H16R     HAL2     0.900000E-01   1.00800           0
      4330 MEMB     33       POPC     H16S     HAL2     0.900000E-01   1.00800           0
      4331 MEMB     33       POPC     C217     CTL2    -0.180000       12.0110           0
      4332 MEMB     33       POPC     H17R     HAL2     0.900000E-01   1.00800           0
      4333 MEMB     33       POPC     H17S     HAL2     0.900000E-01   1.00800           0
      4334 MEMB     33       POPC     C218     CTL3    -0.270000       12.0110           0
      4335 MEMB     33       POPC     H18R     HAL3     0.900000E-01   1.00800           0
      4336 MEMB     33       POPC     H18S     HAL3     0.900000E-01   1.00800           0
      4337 MEMB     33       POPC     H18T     HAL3     0.900000E-01   1.00800           0
      4338 MEMB     33       POPC     C33      CTL2    -0.180000       12.0110           0
      4339 MEMB     33       POPC     H3X      HAL2     0.900000E-01   1.00800           0
      4340 MEMB     33       POPC     H3Y      HAL2     0.900000E-01   1.00800           0
      4341 MEMB     33       POPC     C34      CTL2    -0.180000       12.0110           0
      4342 MEMB     33       POPC     H4X      HAL2     0.900000E-01   1.00800           0
      4343 MEMB     33       POPC     H4Y      HAL2     0.900000E-01   1.00800           0
      4344 MEMB     33       POPC     C35      CTL2    -0.180000       12.0110           0
      4345 MEMB     33       POPC     H5X      HAL2     0.900000E-01   1.00800           0
      4346 MEMB     33       POPC     H5Y      HAL2     0.900000E-01   1.00800           0
      4347 MEMB     33       POPC     C36      CTL2    -0.180000       12.0110           0
      4348 MEMB     33       POPC     H6X      HAL2     0.900000E-01   1.00800           0
      4349 MEMB     33       POPC     H6Y      HAL2     0.900000E-01   1.00800           0
      4350 MEMB     33       POPC     C37      CTL2    -0.180000       12.0110           0
      4351 MEMB     33       POPC     H7X      HAL2     0.900000E-01   1.00800           0
      4352 MEMB     33       POPC     H7Y      HAL2     0.900000E-01   1.00800           0
      4353 MEMB     33       POPC     C38      CTL2    -0.180000       12.0110           0
      4354 MEMB     33       POPC     H8X      HAL2     0.900000E-01   1.00800           0
      4355 MEMB     33       POPC     H8Y      HAL2     0.900000E-01   1.00800           0
      4356 MEMB     33       POPC     C39      CTL2    -0.180000       12.0110           0
      4357 MEMB     33       POPC     H9X      HAL2     0.900000E-01   1.00800           0
      4358 MEMB     33       POPC     H9Y      HAL2     0.900000E-01   1.00800           0
      4359 MEMB     33       POPC     C310     CTL2    -0.180000       12.0110           0
      4360 MEMB     33       POPC     H10X     HAL2     0.900000E-01   1.00800           0
      4361 MEMB     33       POPC     H10Y     HAL2     0.900000E-01   1.00800           0
      4362 MEMB     33       POPC     C311     CTL2    -0.180000       12.0110           0
      4363 MEMB     33       POPC     H11X     HAL2     0.900000E-01   1.00800           0
      4364 MEMB     33       POPC     H11Y     HAL2     0.900000E-01   1.00800           0
      4365 MEMB     33       POPC     C312     CTL2    -0.180000       12.0110           0
      4366 MEMB     33       POPC     H12X     HAL2     0.900000E-01   1.00800           0
      4367 MEMB     33       POPC     H12Y     HAL2     0.900000E-01   1.00800           0
      4368 MEMB     33       POPC     C313     CTL2    -0.180000       12.0110           0
      4369 MEMB     33       POPC     H13X     HAL2     0.900000E-01   1.00800           0
      4370 MEMB     33       POPC     H13Y     HAL2     0.900000E-01   1.00800           0
      4371 MEMB     33       POPC     C314     CTL2    -0.180000       12.0110           0
      4372 MEMB     33       POPC     H14X     HAL2     0.900000E-01   1.00800           0
      4373 MEMB     33       POPC     H14Y     HAL2     0.900000E-01   1.00800           0
      4374 MEMB     33       POPC     C315     CTL2    -0.180000       12.0110           0
      4375 MEMB     33       POPC     H15X     HAL2     0.900000E-01   1.00800           0
      4376 MEMB     33       POPC     H15Y     HAL2     0.900000E-01   1.00800           0
      4377 MEMB     33       POPC     C316     CTL3    -0.270000       12.0110           0
      4378 MEMB     33       POPC     H16X     HAL3     0.900000E-01   1.00800           0
      4379 MEMB     33       POPC     H16Y     HAL3     0.900000E-01   1.00800           0
      4380 MEMB     33       POPC     H16Z     HAL3     0.900000E-01   1.00800           0
      4381 MEMB     34       POPS     N        NH3L    -0.300000       14.0070           0
      4382 MEMB     34       POPS     HN1      HCL      0.330000       1.00800           0
      4383 MEMB     34       POPS     HN2      HCL      0.330000       1.00800           0
      4384 MEMB     34       POPS     HN3      HCL      0.330000       1.00800           0
      4385 MEMB     34       POPS     C12      CTL1     0.210000       12.0110           0
      4386 MEMB     34       POPS     H12A     HBL      0.100000       1.00800           0
      4387 MEMB     34       POPS     C13      CCL      0.340000       12.0110           0
      4388 MEMB     34       POPS     O13A     OCL     -0.670000       15.9994           0
      4389 MEMB     34       POPS     O13B     OCL     -0.670000       15.9994           0
      4390 MEMB     34       POPS     C11      CTL2    -0.800000E-01   12.0110           0
      4391 MEMB     34       POPS     H11A     HAL2     0.900000E-01   1.00800           0
      4392 MEMB     34       POPS     H11B     HAL2     0.900000E-01   1.00800           0
      4393 MEMB     34       POPS     P        PL        1.50000       30.9740           0
      4394 MEMB     34       POPS     O13      O2L     -0.780000       15.9994           0
      4395 MEMB     34       POPS     O14      O2L     -0.780000       15.9994           0
      4396 MEMB     34       POPS     O12      OSLP    -0.570000       15.9994           0
      4397 MEMB     34       POPS     O11      OSLP    -0.570000       15.9994           0
      4398 MEMB     34       POPS     C1       CTL2    -0.800000E-01   12.0110           0
      4399 MEMB     34       POPS     HA       HAL2     0.900000E-01   1.00800           0
      4400 MEMB     34       POPS     HB       HAL2     0.900000E-01   1.00800           0
      4401 MEMB     34       POPS     C2       CTL1     0.170000       12.0110           0
      4402 MEMB     34       POPS     HS       HAL1     0.900000E-01   1.00800           0
      4403 MEMB     34       POPS     O21      OSL     -0.490000       15.9994           0
      4404 MEMB     34       POPS     C21      CL       0.900000       12.0110           0
      4405 MEMB     34       POPS     O22      OBL     -0.630000       15.9994           0
      4406 MEMB     34       POPS     C22      CTL2    -0.220000       12.0110           0
      4407 MEMB     34       POPS     H2R      HAL2     0.900000E-01   1.00800           0
      4408 MEMB     34       POPS     H2S      HAL2     0.900000E-01   1.00800           0
      4409 MEMB     34       POPS     C3       CTL2     0.800000E-01   12.0110           0
      4410 MEMB     34       POPS     HX       HAL2     0.900000E-01   1.00800           0
      4411 MEMB     34       POPS     HY       HAL2     0.900000E-01   1.00800           0
      4412 MEMB     34       POPS     O31      OSL     -0.490000       15.9994           0
      4413 MEMB     34       POPS     C31      CL       0.900000       12.0110           0
      4414 MEMB     34       POPS     O32      OBL     -0.630000       15.9994           0
      4415 MEMB     34       POPS     C32      CTL2    -0.220000       12.0110           0
      4416 MEMB     34       POPS     H2X      HAL2     0.900000E-01   1.00800           0
      4417 MEMB     34       POPS     H2Y      HAL2     0.900000E-01   1.00800           0
      4418 MEMB     34       POPS     C23      CTL2    -0.180000       12.0110           0
      4419 MEMB     34       POPS     H3R      HAL2     0.900000E-01   1.00800           0
      4420 MEMB     34       POPS     H3S      HAL2     0.900000E-01   1.00800           0
      4421 MEMB     34       POPS     C24      CTL2    -0.180000       12.0110           0
      4422 MEMB     34       POPS     H4R      HAL2     0.900000E-01   1.00800           0
      4423 MEMB     34       POPS     H4S      HAL2     0.900000E-01   1.00800           0
      4424 MEMB     34       POPS     C25      CTL2    -0.180000       12.0110           0
      4425 MEMB     34       POPS     H5R      HAL2     0.900000E-01   1.00800           0
      4426 MEMB     34       POPS     H5S      HAL2     0.900000E-01   1.00800           0
      4427 MEMB     34       POPS     C26      CTL2    -0.180000       12.0110           0
      4428 MEMB     34       POPS     H6R      HAL2     0.900000E-01   1.00800           0
      4429 MEMB     34       POPS     H6S      HAL2     0.900000E-01   1.00800           0
      4430 MEMB     34       POPS     C27      CTL2    -0.180000       12.0110           0
      4431 MEMB     34       POPS     H7R      HAL2     0.900000E-01   1.00800           0
      4432 MEMB     34       POPS     H7S      HAL2     0.900000E-01   1.00800           0
      4433 MEMB     34       POPS     C28      CTL2    -0.180000       12.0110           0
      4434 MEMB     34       POPS     H8R      HAL2     0.900000E-01   1.00800           0
      4435 MEMB     34       POPS     H8S      HAL2     0.900000E-01   1.00800           0
      4436 MEMB     34       POPS     C29      CEL1    -0.150000       12.0110           0
      4437 MEMB     34       POPS     H91      HEL1     0.150000       1.00800           0
      4438 MEMB     34       POPS     C210     CEL1    -0.150000       12.0110           0
      4439 MEMB     34       POPS     H101     HEL1     0.150000       1.00800           0
      4440 MEMB     34       POPS     C211     CTL2    -0.180000       12.0110           0
      4441 MEMB     34       POPS     H11R     HAL2     0.900000E-01   1.00800           0
      4442 MEMB     34       POPS     H11S     HAL2     0.900000E-01   1.00800           0
      4443 MEMB     34       POPS     C212     CTL2    -0.180000       12.0110           0
      4444 MEMB     34       POPS     H12R     HAL2     0.900000E-01   1.00800           0
      4445 MEMB     34       POPS     H12S     HAL2     0.900000E-01   1.00800           0
      4446 MEMB     34       POPS     C213     CTL2    -0.180000       12.0110           0
      4447 MEMB     34       POPS     H13R     HAL2     0.900000E-01   1.00800           0
      4448 MEMB     34       POPS     H13S     HAL2     0.900000E-01   1.00800           0
      4449 MEMB     34       POPS     C214     CTL2    -0.180000       12.0110           0
      4450 MEMB     34       POPS     H14R     HAL2     0.900000E-01   1.00800           0
      4451 MEMB     34       POPS     H14S     HAL2     0.900000E-01   1.00800           0
      4452 MEMB     34       POPS     C215     CTL2    -0.180000       12.0110           0
      4453 MEMB     34       POPS     H15R     HAL2     0.900000E-01   1.00800           0
      4454 MEMB     34       POPS     H15S     HAL2     0.900000E-01   1.00800           0
      4455 MEMB     34       POPS     C216     CTL2    -0.180000       12.0110           0
      4456 MEMB     34       POPS     H16R     HAL2     0.900000E-01   1.00800           0
      4457 MEMB     34       POPS     H16S     HAL2     0.900000E-01   1.00800           0
      4458 MEMB     34       POPS     C217     CTL2    -0.180000       12.0110           0
      4459 MEMB     34       POPS     H17R     HAL2     0.900000E-01   1.00800           0
      4460 MEMB     34       POPS     H17S     HAL2     0.900000E-01   1.00800           0
      4461 MEMB     34       POPS     C218     CTL3    -0.270000       12.0110           0
      4462 MEMB     34       POPS     H18R     HAL3     0.900000E-01   1.00800           0
      4463 MEMB     34       POPS     H18S     HAL3     0.900000E-01   1.00800           0
      4464 MEMB     34       POPS     H18T     HAL3     0.900000E-01   1.00800           0
      4465 MEMB     34       POPS     C33      CTL2    -0.180000       12.0110           0
      4466 MEMB     34       POPS     H3X      HAL2     0.900000E-01   1.00800           0
      4467 MEMB     34       POPS     H3Y      HAL2     0.900000E-01   1.00800           0
      4468 MEMB     34       POPS     C34      CTL2    -0.180000       12.0110           0
      4469 MEMB     34       POPS     H4X      HAL2     0.900000E-01   1.00800           0
      4470 MEMB     34       POPS     H4Y      HAL2     0.900000E-01   1.00800           0
      4471 MEMB     34       POPS     C35      CTL2    -0.180000       12.0110           0
      4472 MEMB     34       POPS     H5X      HAL2     0.900000E-01   1.00800           0
      4473 MEMB     34       POPS     H5Y      HAL2     0.900000E-01   1.00800           0
      4474 MEMB     34       POPS     C36      CTL2    -0.180000       12.0110           0
      4475 MEMB     34       POPS     H6X      HAL2     0.900000E-01   1.00800           0
      4476 MEMB     34       POPS     H6Y      HAL2     0.900000E-01   1.00800           0
      4477 MEMB     34       POPS     C37      CTL2    -0.180000       12.0110           0
      4478 MEMB     34       POPS     H7X      HAL2     0.900000E-01   1.00800           0
      4479 MEMB     34       POPS     H7Y      HAL2     0.900000E-01   1.00800           0
      4480 MEMB     34       POPS     C38      CTL2    -0.180000       12.0110           0
      4481 MEMB     34       POPS     H8X      HAL2     0.900000E-01   1.00800           0
      4482 MEMB     34       POPS     H8Y      HAL2     0.900000E-01   1.00800           0
      4483 MEMB     34       POPS     C39      CTL2    -0.180000       12.0110           0
      4484 MEMB     34       POPS     H9X      HAL2     0.900000E-01   1.00800           0
      4485 MEMB     34       POPS     H9Y      HAL2     0.900000E-01   1.00800           0
      4486 MEMB     34       POPS     C310     CTL2    -0.180000       12.0110           0
      4487 MEMB     34       POPS     H10X     HAL2     0.900000E-01   1.00800           0
      4488 MEMB     34       POPS     H10Y     HAL2     0.900000E-01   1.00800           0
      4489 MEMB     34       POPS     C311     CTL2    -0.180000       12.0110           0
      4490 MEMB     34       POPS     H11X     HAL2     0.900000E-01   1.00800           0
      4491 MEMB     34       POPS     H11Y     HAL2     0.900000E-01   1.00800           0
      4492 MEMB     34       POPS     C312     CTL2    -0.180000       12.0110           0
      4493 MEMB     34       POPS     H12X     HAL2     0.900000E-01   1.00800           0
      4494 MEMB     34       POPS     H12Y     HAL2     0.900000E-01   1.00800           0
      4495 MEMB     34       POPS     C313     CTL2    -0.180000       12.0110           0
      4496 MEMB     34       POPS     H13X     HAL2     0.900000E-01   1.00800           0
      4497 MEMB     34       POPS     H13Y     HAL2     0.900000E-01   1.00800           0
      4498 MEMB     34       POPS     C314     CTL2    -0.180000       12.0110           0
      4499 MEMB     34       POPS     H14X     HAL2     0.900000E-01   1.00800           0
      4500 MEMB     34       POPS     H14Y     HAL2     0.900000E-01   1.00800           0
      4501 MEMB     34       POPS     C315     CTL2    -0.180000       12.0110           0
      4502 MEMB     34       POPS     H15X     HAL2     0.900000E-01   1.00800           0
      4503 MEMB     34       POPS     H15Y     HAL2     0.900000E-01   1.00800           0
      4504 MEMB     34       POPS     C316     CTL3    -0.270000       12.0110           0
      4505 MEMB     34       POPS     H16X     HAL3     0.900000E-01   1.00800           0
      4506 MEMB     34       POPS     H16Y     HAL3     0.900000E-01   1.00800           0
      4507 MEMB     34       POPS     H16Z     HAL3     0.900000E-01   1.00800           0
      4508 MEMB     35       POPS     N        NH3L    -0.300000       14.0070           0
      4509 MEMB     35       POPS     HN1      HCL      0.330000       1.00800           0
      4510 MEMB     35       POPS     HN2      HCL      0.330000       1.00800           0
      4511 MEMB     35       POPS     HN3      HCL      0.330000       1.00800           0
      4512 MEMB     35       POPS     C12      CTL1     0.210000       12.0110           0
      4513 MEMB     35       POPS     H12A     HBL      0.100000       1.00800           0
      4514 MEMB     35       POPS     C13      CCL      0.340000       12.0110           0
      4515 MEMB     35       POPS     O13A     OCL     -0.670000       15.9994           0
      4516 MEMB     35       POPS     O13B     OCL     -0.670000       15.9994           0
      4517 MEMB     35       POPS     C11      CTL2    -0.800000E-01   12.0110           0
      4518 MEMB     35       POPS     H11A     HAL2     0.900000E-01   1.00800           0
      4519 MEMB     35       POPS     H11B     HAL2     0.900000E-01   1.00800           0
      4520 MEMB     35       POPS     P        PL        1.50000       30.9740           0
      4521 MEMB     35       POPS     O13      O2L     -0.780000       15.9994           0
      4522 MEMB     35       POPS     O14      O2L     -0.780000       15.9994           0
      4523 MEMB     35       POPS     O12      OSLP    -0.570000       15.9994           0
      4524 MEMB     35       POPS     O11      OSLP    -0.570000       15.9994           0
      4525 MEMB     35       POPS     C1       CTL2    -0.800000E-01   12.0110           0
      4526 MEMB     35       POPS     HA       HAL2     0.900000E-01   1.00800           0
      4527 MEMB     35       POPS     HB       HAL2     0.900000E-01   1.00800           0
      4528 MEMB     35       POPS     C2       CTL1     0.170000       12.0110           0
      4529 MEMB     35       POPS     HS       HAL1     0.900000E-01   1.00800           0
      4530 MEMB     35       POPS     O21      OSL     -0.490000       15.9994           0
      4531 MEMB     35       POPS     C21      CL       0.900000       12.0110           0
      4532 MEMB     35       POPS     O22      OBL     -0.630000       15.9994           0
      4533 MEMB     35       POPS     C22      CTL2    -0.220000       12.0110           0
      4534 MEMB     35       POPS     H2R      HAL2     0.900000E-01   1.00800           0
      4535 MEMB     35       POPS     H2S      HAL2     0.900000E-01   1.00800           0
      4536 MEMB     35       POPS     C3       CTL2     0.800000E-01   12.0110           0
      4537 MEMB     35       POPS     HX       HAL2     0.900000E-01   1.00800           0
      4538 MEMB     35       POPS     HY       HAL2     0.900000E-01   1.00800           0
      4539 MEMB     35       POPS     O31      OSL     -0.490000       15.9994           0
      4540 MEMB     35       POPS     C31      CL       0.900000       12.0110           0
      4541 MEMB     35       POPS     O32      OBL     -0.630000       15.9994           0
      4542 MEMB     35       POPS     C32      CTL2    -0.220000       12.0110           0
      4543 MEMB     35       POPS     H2X      HAL2     0.900000E-01   1.00800           0
      4544 MEMB     35       POPS     H2Y      HAL2     0.900000E-01   1.00800           0
      4545 MEMB     35       POPS     C23      CTL2    -0.180000       12.0110           0
      4546 MEMB     35       POPS     H3R      HAL2     0.900000E-01   1.00800           0
      4547 MEMB     35       POPS     H3S      HAL2     0.900000E-01   1.00800           0
      4548 MEMB     35       POPS     C24      CTL2    -0.180000       12.0110           0
      4549 MEMB     35       POPS     H4R      HAL2     0.900000E-01   1.00800           0
      4550 MEMB     35       POPS     H4S      HAL2     0.900000E-01   1.00800           0
      4551 MEMB     35       POPS     C25      CTL2    -0.180000       12.0110           0
      4552 MEMB     35       POPS     H5R      HAL2     0.900000E-01   1.00800           0
      4553 MEMB     35       POPS     H5S      HAL2     0.900000E-01   1.00800           0
      4554 MEMB     35       POPS     C26      CTL2    -0.180000       12.0110           0
      4555 MEMB     35       POPS     H6R      HAL2     0.900000E-01   1.00800           0
      4556 MEMB     35       POPS     H6S      HAL2     0.900000E-01   1.00800           0
      4557 MEMB     35       POPS     C27      CTL2    -0.180000       12.0110           0
      4558 MEMB     35       POPS     H7R      HAL2     0.900000E-01   1.00800           0
      4559 MEMB     35       POPS     H7S      HAL2     0.900000E-01   1.00800           0
      4560 MEMB     35       POPS     C28      CTL2    -0.180000       12.0110           0
      4561 MEMB     35       POPS     H8R      HAL2     0.900000E-01   1.00800           0
      4562 MEMB     35       POPS     H8S      HAL2     0.900000E-01   1.00800           0
      4563 MEMB     35       POPS     C29      CEL1    -0.150000       12.0110           0
      4564 MEMB     35       POPS     H91      HEL1     0.150000       1.00800           0
      4565 MEMB     35       POPS     C210     CEL1    -0.150000       12.0110           0
      4566 MEMB     35       POPS     H101     HEL1     0.150000       1.00800           0
      4567 MEMB     35       POPS     C211     CTL2    -0.180000       12.0110           0
      4568 MEMB     35       POPS     H11R     HAL2     0.900000E-01   1.00800           0
      4569 MEMB     35       POPS     H11S     HAL2     0.900000E-01   1.00800           0
      4570 MEMB     35       POPS     C212     CTL2    -0.180000       12.0110           0
      4571 MEMB     35       POPS     H12R     HAL2     0.900000E-01   1.00800           0
      4572 MEMB     35       POPS     H12S     HAL2     0.900000E-01   1.00800           0
      4573 MEMB     35       POPS     C213     CTL2    -0.180000       12.0110           0
      4574 MEMB     35       POPS     H13R     HAL2     0.900000E-01   1.00800           0
      4575 MEMB     35       POPS     H13S     HAL2     0.900000E-01   1.00800           0
      4576 MEMB     35       POPS     C214     CTL2    -0.180000       12.0110           0
      4577 MEMB     35       POPS     H14R     HAL2     0.900000E-01   1.00800           0
      4578 MEMB     35       POPS     H14S     HAL2     0.900000E-01   1.00800           0
      4579 MEMB     35       POPS     C215     CTL2    -0.180000       12.0110           0
      4580 MEMB     35       POPS     H15R     HAL2     0.900000E-01   1.00800           0
      4581 MEMB     35       POPS     H15S     HAL2     0.900000E-01   1.00800           0
      4582 MEMB     35       POPS     C216     CTL2    -0.180000       12.0110           0
      4583 MEMB     35       POPS     H16R     HAL2     0.900000E-01   1.00800           0
      4584 MEMB     35       POPS     H16S     HAL2     0.900000E-01   1.00800           0
      4585 MEMB     35       POPS     C217     CTL2    -0.180000       12.0110           0
      4586 MEMB     35       POPS     H17R     HAL2     0.900000E-01   1.00800           0
      4587 MEMB     35       POPS     H17S     HAL2     0.900000E-01   1.00800           0
      4588 MEMB     35       POPS     C218     CTL3    -0.270000       12.0110           0
      4589 MEMB     35       POPS     H18R     HAL3     0.900000E-01   1.00800           0
      4590 MEMB     35       POPS     H18S     HAL3     0.900000E-01   1.00800           0
      4591 MEMB     35       POPS     H18T     HAL3     0.900000E-01   1.00800           0
      4592 MEMB     35       POPS     C33      CTL2    -0.180000       12.0110           0
      4593 MEMB     35       POPS     H3X      HAL2     0.900000E-01   1.00800           0
      4594 MEMB     35       POPS     H3Y      HAL2     0.900000E-01   1.00800           0
      4595 MEMB     35       POPS     C34      CTL2    -0.180000       12.0110           0
      4596 MEMB     35       POPS     H4X      HAL2     0.900000E-01   1.00800           0
      4597 MEMB     35       POPS     H4Y      HAL2     0.900000E-01   1.00800           0
      4598 MEMB     35       POPS     C35      CTL2    -0.180000       12.0110           0
      4599 MEMB     35       POPS     H5X      HAL2     0.900000E-01   1.00800           0
      4600 MEMB     35       POPS     H5Y      HAL2     0.900000E-01   1.00800           0
      4601 MEMB     35       POPS     C36      CTL2    -0.180000       12.0110           0
      4602 MEMB     35       POPS     H6X      HAL2     0.900000E-01   1.00800           0
      4603 MEMB     35       POPS     H6Y      HAL2     0.900000E-01   1.00800           0
      4604 MEMB     35       POPS     C37      CTL2    -0.180000       12.0110           0
      4605 MEMB     35       POPS     H7X      HAL2     0.900000E-01   1.00800           0
      4606 MEMB     35       POPS     H7Y      HAL2     0.900000E-01   1.00800           0
      4607 MEMB     35       POPS     C38      CTL2    -0.180000       12.0110           0
      4608 MEMB     35       POPS     H8X      HAL2     0.900000E-01   1.00800           0
      4609 MEMB     35       POPS     H8Y      HAL2     0.900000E-01   1.00800           0
      4610 MEMB     35       POPS     C39      CTL2    -0.180000       12.0110           0
      4611 MEMB     35       POPS     H9X      HAL2     0.900000E-01   1.00800           0
      4612 MEMB     35       POPS     H9Y      HAL2     0.900000E-01   1.00800           0
      4613 MEMB     35       POPS     C310     CTL2    -0.180000       12.0110           0
      4614 MEMB     35       POPS     H10X     HAL2     0.900000E-01   1.00800           0
      4615 MEMB     35       POPS     H10Y     HAL2     0.900000E-01   1.00800           0
      4616 MEMB     35       POPS     C311     CTL2    -0.180000       12.0110           0
      4617 MEMB     35       POPS     H11X     HAL2     0.900000E-01   1.00800           0
      4618 MEMB     35       POPS     H11Y     HAL2     0.900000E-01   1.00800           0
      4619 MEMB     35       POPS     C312     CTL2    -0.180000       12.0110           0
      4620 MEMB     35       POPS     H12X     HAL2     0.900000E-01   1.00800           0
      4621 MEMB     35       POPS     H12Y     HAL2     0.900000E-01   1.00800           0
      4622 MEMB     35       POPS     C313     CTL2    -0.180000       12.0110           0
      4623 MEMB     35       POPS     H13X     HAL2     0.900000E-01   1.00800           0
      4624 MEMB     35       POPS     H13Y     HAL2     0.900000E-01   1.00800           0
      4625 MEMB     35       POPS     C314     CTL2    -0.180000       12.0110           0
      4626 MEMB     35       POPS     H14X     HAL2     0.900000E-01   1.00800           0
      4627 MEMB     35       POPS     H14Y     HAL2     0.900000E-01   1.00800           0
      4628 MEMB     35       POPS     C315     CTL2    -0.180000       12.0110           0
      4629 MEMB     35       POPS     H15X     HAL2     0.900000E-01   1.00800           0
      4630 MEMB     35       POPS     H15Y     HAL2     0.900000E-01   1.00800           0
      4631 MEMB     35       POPS     C316     CTL3    -0.270000       12.0110           0
      4632 MEMB     35       POPS     H16X     HAL3     0.900000E-01   1.00800           0
      4633 MEMB     35       POPS     H16Y     HAL3     0.900000E-01   1.00800           0
      4634 MEMB     35       POPS     H16Z     HAL3     0.900000E-01   1.00800           0
      4635 MEMB     36       POPC     N        NTL     -0.600000       14.0070           0
      4636 MEMB     36       POPC     C12      CTL2    -0.100000       12.0110           0
      4637 MEMB     36       POPC     H12A     HL       0.250000       1.00800           0
      4638 MEMB     36       POPC     H12B     HL       0.250000       1.00800           0
      4639 MEMB     36       POPC     C13      CTL5    -0.350000       12.0110           0
      4640 MEMB     36       POPC     H13A     HL       0.250000       1.00800           0
      4641 MEMB     36       POPC     H13B     HL       0.250000       1.00800           0
      4642 MEMB     36       POPC     H13C     HL       0.250000       1.00800           0
      4643 MEMB     36       POPC     C14      CTL5    -0.350000       12.0110           0
      4644 MEMB     36       POPC     H14A     HL       0.250000       1.00800           0
      4645 MEMB     36       POPC     H14B     HL       0.250000       1.00800           0
      4646 MEMB     36       POPC     H14C     HL       0.250000       1.00800           0
      4647 MEMB     36       POPC     C15      CTL5    -0.350000       12.0110           0
      4648 MEMB     36       POPC     H15A     HL       0.250000       1.00800           0
      4649 MEMB     36       POPC     H15B     HL       0.250000       1.00800           0
      4650 MEMB     36       POPC     H15C     HL       0.250000       1.00800           0
      4651 MEMB     36       POPC     C11      CTL2    -0.800000E-01   12.0110           0
      4652 MEMB     36       POPC     H11A     HAL2     0.900000E-01   1.00800           0
      4653 MEMB     36       POPC     H11B     HAL2     0.900000E-01   1.00800           0
      4654 MEMB     36       POPC     P        PL        1.50000       30.9740           0
      4655 MEMB     36       POPC     O13      O2L     -0.780000       15.9994           0
      4656 MEMB     36       POPC     O14      O2L     -0.780000       15.9994           0
      4657 MEMB     36       POPC     O12      OSLP    -0.570000       15.9994           0
      4658 MEMB     36       POPC     O11      OSLP    -0.570000       15.9994           0
      4659 MEMB     36       POPC     C1       CTL2    -0.800000E-01   12.0110           0
      4660 MEMB     36       POPC     HA       HAL2     0.900000E-01   1.00800           0
      4661 MEMB     36       POPC     HB       HAL2     0.900000E-01   1.00800           0
      4662 MEMB     36       POPC     C2       CTL1     0.170000       12.0110           0
      4663 MEMB     36       POPC     HS       HAL1     0.900000E-01   1.00800           0
      4664 MEMB     36       POPC     O21      OSL     -0.490000       15.9994           0
      4665 MEMB     36       POPC     C21      CL       0.900000       12.0110           0
      4666 MEMB     36       POPC     O22      OBL     -0.630000       15.9994           0
      4667 MEMB     36       POPC     C22      CTL2    -0.220000       12.0110           0
      4668 MEMB     36       POPC     H2R      HAL2     0.900000E-01   1.00800           0
      4669 MEMB     36       POPC     H2S      HAL2     0.900000E-01   1.00800           0
      4670 MEMB     36       POPC     C3       CTL2     0.800000E-01   12.0110           0
      4671 MEMB     36       POPC     HX       HAL2     0.900000E-01   1.00800           0
      4672 MEMB     36       POPC     HY       HAL2     0.900000E-01   1.00800           0
      4673 MEMB     36       POPC     O31      OSL     -0.490000       15.9994           0
      4674 MEMB     36       POPC     C31      CL       0.900000       12.0110           0
      4675 MEMB     36       POPC     O32      OBL     -0.630000       15.9994           0
      4676 MEMB     36       POPC     C32      CTL2    -0.220000       12.0110           0
      4677 MEMB     36       POPC     H2X      HAL2     0.900000E-01   1.00800           0
      4678 MEMB     36       POPC     H2Y      HAL2     0.900000E-01   1.00800           0
      4679 MEMB     36       POPC     C23      CTL2    -0.180000       12.0110           0
      4680 MEMB     36       POPC     H3R      HAL2     0.900000E-01   1.00800           0
      4681 MEMB     36       POPC     H3S      HAL2     0.900000E-01   1.00800           0
      4682 MEMB     36       POPC     C24      CTL2    -0.180000       12.0110           0
      4683 MEMB     36       POPC     H4R      HAL2     0.900000E-01   1.00800           0
      4684 MEMB     36       POPC     H4S      HAL2     0.900000E-01   1.00800           0
      4685 MEMB     36       POPC     C25      CTL2    -0.180000       12.0110           0
      4686 MEMB     36       POPC     H5R      HAL2     0.900000E-01   1.00800           0
      4687 MEMB     36       POPC     H5S      HAL2     0.900000E-01   1.00800           0
      4688 MEMB     36       POPC     C26      CTL2    -0.180000       12.0110           0
      4689 MEMB     36       POPC     H6R      HAL2     0.900000E-01   1.00800           0
      4690 MEMB     36       POPC     H6S      HAL2     0.900000E-01   1.00800           0
      4691 MEMB     36       POPC     C27      CTL2    -0.180000       12.0110           0
      4692 MEMB     36       POPC     H7R      HAL2     0.900000E-01   1.00800           0
      4693 MEMB     36       POPC     H7S      HAL2     0.900000E-01   1.00800           0
      4694 MEMB     36       POPC     C28      CTL2    -0.180000       12.0110           0
      4695 MEMB     36       POPC     H8R      HAL2     0.900000E-01   1.00800           0
      4696 MEMB     36       POPC     H8S      HAL2     0.900000E-01   1.00800           0
      4697 MEMB     36       POPC     C29      CEL1    -0.150000       12.0110           0
      4698 MEMB     36       POPC     H91      HEL1     0.150000       1.00800           0
      4699 MEMB     36       POPC     C210     CEL1    -0.150000       12.0110           0
      4700 MEMB     36       POPC     H101     HEL1     0.150000       1.00800           0
      4701 MEMB     36       POPC     C211     CTL2    -0.180000       12.0110           0
      4702 MEMB     36       POPC     H11R     HAL2     0.900000E-01   1.00800           0
      4703 MEMB     36       POPC     H11S     HAL2     0.900000E-01   1.00800           0
      4704 MEMB     36       POPC     C212     CTL2    -0.180000       12.0110           0
      4705 MEMB     36       POPC     H12R     HAL2     0.900000E-01   1.00800           0
      4706 MEMB     36       POPC     H12S     HAL2     0.900000E-01   1.00800           0
      4707 MEMB     36       POPC     C213     CTL2    -0.180000       12.0110           0
      4708 MEMB     36       POPC     H13R     HAL2     0.900000E-01   1.00800           0
      4709 MEMB     36       POPC     H13S     HAL2     0.900000E-01   1.00800           0
      4710 MEMB     36       POPC     C214     CTL2    -0.180000       12.0110           0
      4711 MEMB     36       POPC     H14R     HAL2     0.900000E-01   1.00800           0
      4712 MEMB     36       POPC     H14S     HAL2     0.900000E-01   1.00800           0
      4713 MEMB     36       POPC     C215     CTL2    -0.180000       12.0110           0
      4714 MEMB     36       POPC     H15R     HAL2     0.900000E-01   1.00800           0
      4715 MEMB     36       POPC     H15S     HAL2     0.900000E-01   1.00800           0
      4716 MEMB     36       POPC     C216     CTL2    -0.180000       12.0110           0
      4717 MEMB     36       POPC     H16R     HAL2     0.900000E-01   1.00800           0
      4718 MEMB     36       POPC     H16S     HAL2     0.900000E-01   1.00800           0
      4719 MEMB     36       POPC     C217     CTL2    -0.180000       12.0110           0
      4720 MEMB     36       POPC     H17R     HAL2     0.900000E-01   1.00800           0
      4721 MEMB     36       POPC     H17S     HAL2     0.900000E-01   1.00800           0
      4722 MEMB     36       POPC     C218     CTL3    -0.270000       12.0110           0
      4723 MEMB     36       POPC     H18R     HAL3     0.900000E-01   1.00800           0
      4724 MEMB     36       POPC     H18S     HAL3     0.900000E-01   1.00800           0
      4725 MEMB     36       POPC     H18T     HAL3     0.900000E-01   1.00800           0
      4726 MEMB     36       POPC     C33      CTL2    -0.180000       12.0110           0
      4727 MEMB     36       POPC     H3X      HAL2     0.900000E-01   1.00800           0
      4728 MEMB     36       POPC     H3Y      HAL2     0.900000E-01   1.00800           0
      4729 MEMB     36       POPC     C34      CTL2    -0.180000       12.0110           0
      4730 MEMB     36       POPC     H4X      HAL2     0.900000E-01   1.00800           0
      4731 MEMB     36       POPC     H4Y      HAL2     0.900000E-01   1.00800           0
      4732 MEMB     36       POPC     C35      CTL2    -0.180000       12.0110           0
      4733 MEMB     36       POPC     H5X      HAL2     0.900000E-01   1.00800           0
      4734 MEMB     36       POPC     H5Y      HAL2     0.900000E-01   1.00800           0
      4735 MEMB     36       POPC     C36      CTL2    -0.180000       12.0110           0
      4736 MEMB     36       POPC     H6X      HAL2     0.900000E-01   1.00800           0
      4737 MEMB     36       POPC     H6Y      HAL2     0.900000E-01   1.00800           0
      4738 MEMB     36       POPC     C37      CTL2    -0.180000       12.0110           0
      4739 MEMB     36       POPC     H7X      HAL2     0.900000E-01   1.00800           0
      4740 MEMB     36       POPC     H7Y      HAL2     0.900000E-01   1.00800           0
      4741 MEMB     36       POPC     C38      CTL2    -0.180000       12.0110           0
      4742 MEMB     36       POPC     H8X      HAL2     0.900000E-01   1.00800           0
      4743 MEMB     36       POPC     H8Y      HAL2     0.900000E-01   1.00800           0
      4744 MEMB     36       POPC     C39      CTL2    -0.180000       12.0110           0
      4745 MEMB     36       POPC     H9X      HAL2     0.900000E-01   1.00800           0
      4746 MEMB     36       POPC     H9Y      HAL2     0.900000E-01   1.00800           0
      4747 MEMB     36       POPC     C310     CTL2    -0.180000       12.0110           0
      4748 MEMB     36       POPC     H10X     HAL2     0.900000E-01   1.00800           0
      4749 MEMB     36       POPC     H10Y     HAL2     0.900000E-01   1.00800           0
      4750 MEMB     36       POPC     C311     CTL2    -0.180000       12.0110           0
      4751 MEMB     36       POPC     H11X     HAL2     0.900000E-01   1.00800           0
      4752 MEMB     36       POPC     H11Y     HAL2     0.900000E-01   1.00800           0
      4753 MEMB     36       POPC     C312     CTL2    -0.180000       12.0110           0
      4754 MEMB     36       POPC     H12X     HAL2     0.900000E-01   1.00800           0
      4755 MEMB     36       POPC     H12Y     HAL2     0.900000E-01   1.00800           0
      4756 MEMB     36       POPC     C313     CTL2    -0.180000       12.0110           0
      4757 MEMB     36       POPC     H13X     HAL2     0.900000E-01   1.00800           0
      4758 MEMB     36       POPC     H13Y     HAL2     0.900000E-01   1.00800           0
      4759 MEMB     36       POPC     C314     CTL2    -0.180000       12.0110           0
      4760 MEMB     36       POPC     H14X     HAL2     0.900000E-01   1.00800           0
      4761 MEMB     36       POPC     H14Y     HAL2     0.900000E-01   1.00800           0
      4762 MEMB     36       POPC     C315     CTL2    -0.180000       12.0110           0
      4763 MEMB     36       POPC     H15X     HAL2     0.900000E-01   1.00800           0
      4764 MEMB     36       POPC     H15Y     HAL2     0.900000E-01   1.00800           0
      4765 MEMB     36       POPC     C316     CTL3    -0.270000       12.0110           0
      4766 MEMB     36       POPC     H16X     HAL3     0.900000E-01   1.00800           0
      4767 MEMB     36       POPC     H16Y     HAL3     0.900000E-01   1.00800           0
      4768 MEMB     36       POPC     H16Z     HAL3     0.900000E-01   1.00800           0
      4769 MEMB     37       POPC     N        NTL     -0.600000       14.0070           0
      4770 MEMB     37       POPC     C12      CTL2    -0.100000       12.0110           0
      4771 MEMB     37       POPC     H12A     HL       0.250000       1.00800           0
      4772 MEMB     37       POPC     H12B     HL       0.250000       1.00800           0
      4773 MEMB     37       POPC     C13      CTL5    -0.350000       12.0110           0
      4774 MEMB     37       POPC     H13A     HL       0.250000       1.00800           0
      4775 MEMB     37       POPC     H13B     HL       0.250000       1.00800           0
      4776 MEMB     37       POPC     H13C     HL       0.250000       1.00800           0
      4777 MEMB     37       POPC     C14      CTL5    -0.350000       12.0110           0
      4778 MEMB     37       POPC     H14A     HL       0.250000       1.00800           0
      4779 MEMB     37       POPC     H14B     HL       0.250000       1.00800           0
      4780 MEMB     37       POPC     H14C     HL       0.250000       1.00800           0
      4781 MEMB     37       POPC     C15      CTL5    -0.350000       12.0110           0
      4782 MEMB     37       POPC     H15A     HL       0.250000       1.00800           0
      4783 MEMB     37       POPC     H15B     HL       0.250000       1.00800           0
      4784 MEMB     37       POPC     H15C     HL       0.250000       1.00800           0
      4785 MEMB     37       POPC     C11      CTL2    -0.800000E-01   12.0110           0
      4786 MEMB     37       POPC     H11A     HAL2     0.900000E-01   1.00800           0
      4787 MEMB     37       POPC     H11B     HAL2     0.900000E-01   1.00800           0
      4788 MEMB     37       POPC     P        PL        1.50000       30.9740           0
      4789 MEMB     37       POPC     O13      O2L     -0.780000       15.9994           0
      4790 MEMB     37       POPC     O14      O2L     -0.780000       15.9994           0
      4791 MEMB     37       POPC     O12      OSLP    -0.570000       15.9994           0
      4792 MEMB     37       POPC     O11      OSLP    -0.570000       15.9994           0
      4793 MEMB     37       POPC     C1       CTL2    -0.800000E-01   12.0110           0
      4794 MEMB     37       POPC     HA       HAL2     0.900000E-01   1.00800           0
      4795 MEMB     37       POPC     HB       HAL2     0.900000E-01   1.00800           0
      4796 MEMB     37       POPC     C2       CTL1     0.170000       12.0110           0
      4797 MEMB     37       POPC     HS       HAL1     0.900000E-01   1.00800           0
      4798 MEMB     37       POPC     O21      OSL     -0.490000       15.9994           0
      4799 MEMB     37       POPC     C21      CL       0.900000       12.0110           0
      4800 MEMB     37       POPC     O22      OBL     -0.630000       15.9994           0
      4801 MEMB     37       POPC     C22      CTL2    -0.220000       12.0110           0
      4802 MEMB     37       POPC     H2R      HAL2     0.900000E-01   1.00800           0
      4803 MEMB     37       POPC     H2S      HAL2     0.900000E-01   1.00800           0
      4804 MEMB     37       POPC     C3       CTL2     0.800000E-01   12.0110           0
      4805 MEMB     37       POPC     HX       HAL2     0.900000E-01   1.00800           0
      4806 MEMB     37       POPC     HY       HAL2     0.900000E-01   1.00800           0
      4807 MEMB     37       POPC     O31      OSL     -0.490000       15.9994           0
      4808 MEMB     37       POPC     C31      CL       0.900000       12.0110           0
      4809 MEMB     37       POPC     O32      OBL     -0.630000       15.9994           0
      4810 MEMB     37       POPC     C32      CTL2    -0.220000       12.0110           0
      4811 MEMB     37       POPC     H2X      HAL2     0.900000E-01   1.00800           0
      4812 MEMB     37       POPC     H2Y      HAL2     0.900000E-01   1.00800           0
      4813 MEMB     37       POPC     C23      CTL2    -0.180000       12.0110           0
      4814 MEMB     37       POPC     H3R      HAL2     0.900000E-01   1.00800           0
      4815 MEMB     37       POPC     H3S      HAL2     0.900000E-01   1.00800           0
      4816 MEMB     37       POPC     C24      CTL2    -0.180000       12.0110           0
      4817 MEMB     37       POPC     H4R      HAL2     0.900000E-01   1.00800           0
      4818 MEMB     37       POPC     H4S      HAL2     0.900000E-01   1.00800           0
      4819 MEMB     37       POPC     C25      CTL2    -0.180000       12.0110           0
      4820 MEMB     37       POPC     H5R      HAL2     0.900000E-01   1.00800           0
      4821 MEMB     37       POPC     H5S      HAL2     0.900000E-01   1.00800           0
      4822 MEMB     37       POPC     C26      CTL2    -0.180000       12.0110           0
      4823 MEMB     37       POPC     H6R      HAL2     0.900000E-01   1.00800           0
      4824 MEMB     37       POPC     H6S      HAL2     0.900000E-01   1.00800           0
      4825 MEMB     37       POPC     C27      CTL2    -0.180000       12.0110           0
      4826 MEMB     37       POPC     H7R      HAL2     0.900000E-01   1.00800           0
      4827 MEMB     37       POPC     H7S      HAL2     0.900000E-01   1.00800           0
      4828 MEMB     37       POPC     C28      CTL2    -0.180000       12.0110           0
      4829 MEMB     37       POPC     H8R      HAL2     0.900000E-01   1.00800           0
      4830 MEMB     37       POPC     H8S      HAL2     0.900000E-01   1.00800           0
      4831 MEMB     37       POPC     C29      CEL1    -0.150000       12.0110           0
      4832 MEMB     37       POPC     H91      HEL1     0.150000       1.00800           0
      4833 MEMB     37       POPC     C210     CEL1    -0.150000       12.0110           0
      4834 MEMB     37       POPC     H101     HEL1     0.150000       1.00800           0
      4835 MEMB     37       POPC     C211     CTL2    -0.180000       12.0110           0
      4836 MEMB     37       POPC     H11R     HAL2     0.900000E-01   1.00800           0
      4837 MEMB     37       POPC     H11S     HAL2     0.900000E-01   1.00800           0
      4838 MEMB     37       POPC     C212     CTL2    -0.180000       12.0110           0
      4839 MEMB     37       POPC     H12R     HAL2     0.900000E-01   1.00800           0
      4840 MEMB     37       POPC     H12S     HAL2     0.900000E-01   1.00800           0
      4841 MEMB     37       POPC     C213     CTL2    -0.180000       12.0110           0
      4842 MEMB     37       POPC     H13R     HAL2     0.900000E-01   1.00800           0
      4843 MEMB     37       POPC     H13S     HAL2     0.900000E-01   1.00800           0
      4844 MEMB     37       POPC     C214     CTL2    -0.180000       12.0110           0
      4845 MEMB     37       POPC     H14R     HAL2     0.900000E-01   1.00800           0
      4846 MEMB     37       POPC     H14S     HAL2     0.900000E-01   1.00800           0
      4847 MEMB     37       POPC     C215     CTL2    -0.180000       12.0110           0
      4848 MEMB     37       POPC     H15R     HAL2     0.900000E-01   1.00800           0
      4849 MEMB     37       POPC     H15S     HAL2     0.900000E-01   1.00800           0
      4850 MEMB     37       POPC     C216     CTL2    -0.180000       12.0110           0
      4851 MEMB     37       POPC     H16R     HAL2     0.900000E-01   1.00800           0
      4852 MEMB     37       POPC     H16S     HAL2     0.900000E-01   1.00800           0
      4853 MEMB     37       POPC     C217     CTL2    -0.180000       12.0110           0
      4854 MEMB     37       POPC     H17R     HAL2     0.900000E-01   1.00800           0
      4855 MEMB     37       POPC     H17S     HAL2     0.900000E-01   1.00800           0
      4856 MEMB     37       POPC     C218     CTL3    -0.270000       12.0110           0
      4857 MEMB     37       POPC     H18R     HAL3     0.900000E-01   1.00800           0
      4858 MEMB     37       POPC     H18S     HAL3     0.900000E-01   1.00800           0
      4859 MEMB     37       POPC     H18T     HAL3     0.900000E-01   1.00800           0
      4860 MEMB     37       POPC     C33      CTL2    -0.180000       12.0110           0
      4861 MEMB     37       POPC     H3X      HAL2     0.900000E-01   1.00800           0
      4862 MEMB     37       POPC     H3Y      HAL2     0.900000E-01   1.00800           0
      4863 MEMB     37       POPC     C34      CTL2    -0.180000       12.0110           0
      4864 MEMB     37       POPC     H4X      HAL2     0.900000E-01   1.00800           0
      4865 MEMB     37       POPC     H4Y      HAL2     0.900000E-01   1.00800           0
      4866 MEMB     37       POPC     C35      CTL2    -0.180000       12.0110           0
      4867 MEMB     37       POPC     H5X      HAL2     0.900000E-01   1.00800           0
      4868 MEMB     37       POPC     H5Y      HAL2     0.900000E-01   1.00800           0
      4869 MEMB     37       POPC     C36      CTL2    -0.180000       12.0110           0
      4870 MEMB     37       POPC     H6X      HAL2     0.900000E-01   1.00800           0
      4871 MEMB     37       POPC     H6Y      HAL2     0.900000E-01   1.00800           0
      4872 MEMB     37       POPC     C37      CTL2    -0.180000       12.0110           0
      4873 MEMB     37       POPC     H7X      HAL2     0.900000E-01   1.00800           0
      4874 MEMB     37       POPC     H7Y      HAL2     0.900000E-01   1.00800           0
      4875 MEMB     37       POPC     C38      CTL2    -0.180000       12.0110           0
      4876 MEMB     37       POPC     H8X      HAL2     0.900000E-01   1.00800           0
      4877 MEMB     37       POPC     H8Y      HAL2     0.900000E-01   1.00800           0
      4878 MEMB     37       POPC     C39      CTL2    -0.180000       12.0110           0
      4879 MEMB     37       POPC     H9X      HAL2     0.900000E-01   1.00800           0
      4880 MEMB     37       POPC     H9Y      HAL2     0.900000E-01   1.00800           0
      4881 MEMB     37       POPC     C310     CTL2    -0.180000       12.0110           0
      4882 MEMB     37       POPC     H10X     HAL2     0.900000E-01   1.00800           0
      4883 MEMB     37       POPC     H10Y     HAL2     0.900000E-01   1.00800           0
      4884 MEMB     37       POPC     C311     CTL2    -0.180000       12.0110           0
      4885 MEMB     37       POPC     H11X     HAL2     0.900000E-01   1.00800           0
      4886 MEMB     37       POPC     H11Y     HAL2     0.900000E-01   1.00800           0
      4887 MEMB     37       POPC     C312     CTL2    -0.180000       12.0110           0
      4888 MEMB     37       POPC     H12X     HAL2     0.900000E-01   1.00800           0
      4889 MEMB     37       POPC     H12Y     HAL2     0.900000E-01   1.00800           0
      4890 MEMB     37       POPC     C313     CTL2    -0.180000       12.0110           0
      4891 MEMB     37       POPC     H13X     HAL2     0.900000E-01   1.00800           0
      4892 MEMB     37       POPC     H13Y     HAL2     0.900000E-01   1.00800           0
      4893 MEMB     37       POPC     C314     CTL2    -0.180000       12.0110           0
      4894 MEMB     37       POPC     H14X     HAL2     0.900000E-01   1.00800           0
      4895 MEMB     37       POPC     H14Y     HAL2     0.900000E-01   1.00800           0
      4896 MEMB     37       POPC     C315     CTL2    -0.180000       12.0110           0
      4897 MEMB     37       POPC     H15X     HAL2     0.900000E-01   1.00800           0
      4898 MEMB     37       POPC     H15Y     HAL2     0.900000E-01   1.00800           0
      4899 MEMB     37       POPC     C316     CTL3    -0.270000       12.0110           0
      4900 MEMB     37       POPC     H16X     HAL3     0.900000E-01   1.00800           0
      4901 MEMB     37       POPC     H16Y     HAL3     0.900000E-01   1.00800           0
      4902 MEMB     37       POPC     H16Z     HAL3     0.900000E-01   1.00800           0
      4903 MEMB     38       POPS     N        NH3L    -0.300000       14.0070           0
      4904 MEMB     38       POPS     HN1      HCL      0.330000       1.00800           0
      4905 MEMB     38       POPS     HN2      HCL      0.330000       1.00800           0
      4906 MEMB     38       POPS     HN3      HCL      0.330000       1.00800           0
      4907 MEMB     38       POPS     C12      CTL1     0.210000       12.0110           0
      4908 MEMB     38       POPS     H12A     HBL      0.100000       1.00800           0
      4909 MEMB     38       POPS     C13      CCL      0.340000       12.0110           0
      4910 MEMB     38       POPS     O13A     OCL     -0.670000       15.9994           0
      4911 MEMB     38       POPS     O13B     OCL     -0.670000       15.9994           0
      4912 MEMB     38       POPS     C11      CTL2    -0.800000E-01   12.0110           0
      4913 MEMB     38       POPS     H11A     HAL2     0.900000E-01   1.00800           0
      4914 MEMB     38       POPS     H11B     HAL2     0.900000E-01   1.00800           0
      4915 MEMB     38       POPS     P        PL        1.50000       30.9740           0
      4916 MEMB     38       POPS     O13      O2L     -0.780000       15.9994           0
      4917 MEMB     38       POPS     O14      O2L     -0.780000       15.9994           0
      4918 MEMB     38       POPS     O12      OSLP    -0.570000       15.9994           0
      4919 MEMB     38       POPS     O11      OSLP    -0.570000       15.9994           0
      4920 MEMB     38       POPS     C1       CTL2    -0.800000E-01   12.0110           0
      4921 MEMB     38       POPS     HA       HAL2     0.900000E-01   1.00800           0
      4922 MEMB     38       POPS     HB       HAL2     0.900000E-01   1.00800           0
      4923 MEMB     38       POPS     C2       CTL1     0.170000       12.0110           0
      4924 MEMB     38       POPS     HS       HAL1     0.900000E-01   1.00800           0
      4925 MEMB     38       POPS     O21      OSL     -0.490000       15.9994           0
      4926 MEMB     38       POPS     C21      CL       0.900000       12.0110           0
      4927 MEMB     38       POPS     O22      OBL     -0.630000       15.9994           0
      4928 MEMB     38       POPS     C22      CTL2    -0.220000       12.0110           0
      4929 MEMB     38       POPS     H2R      HAL2     0.900000E-01   1.00800           0
      4930 MEMB     38       POPS     H2S      HAL2     0.900000E-01   1.00800           0
      4931 MEMB     38       POPS     C3       CTL2     0.800000E-01   12.0110           0
      4932 MEMB     38       POPS     HX       HAL2     0.900000E-01   1.00800           0
      4933 MEMB     38       POPS     HY       HAL2     0.900000E-01   1.00800           0
      4934 MEMB     38       POPS     O31      OSL     -0.490000       15.9994           0
      4935 MEMB     38       POPS     C31      CL       0.900000       12.0110           0
      4936 MEMB     38       POPS     O32      OBL     -0.630000       15.9994           0
      4937 MEMB     38       POPS     C32      CTL2    -0.220000       12.0110           0
      4938 MEMB     38       POPS     H2X      HAL2     0.900000E-01   1.00800           0
      4939 MEMB     38       POPS     H2Y      HAL2     0.900000E-01   1.00800           0
      4940 MEMB     38       POPS     C23      CTL2    -0.180000       12.0110           0
      4941 MEMB     38       POPS     H3R      HAL2     0.900000E-01   1.00800           0
      4942 MEMB     38       POPS     H3S      HAL2     0.900000E-01   1.00800           0
      4943 MEMB     38       POPS     C24      CTL2    -0.180000       12.0110           0
      4944 MEMB     38       POPS     H4R      HAL2     0.900000E-01   1.00800           0
      4945 MEMB     38       POPS     H4S      HAL2     0.900000E-01   1.00800           0
      4946 MEMB     38       POPS     C25      CTL2    -0.180000       12.0110           0
      4947 MEMB     38       POPS     H5R      HAL2     0.900000E-01   1.00800           0
      4948 MEMB     38       POPS     H5S      HAL2     0.900000E-01   1.00800           0
      4949 MEMB     38       POPS     C26      CTL2    -0.180000       12.0110           0
      4950 MEMB     38       POPS     H6R      HAL2     0.900000E-01   1.00800           0
      4951 MEMB     38       POPS     H6S      HAL2     0.900000E-01   1.00800           0
      4952 MEMB     38       POPS     C27      CTL2    -0.180000       12.0110           0
      4953 MEMB     38       POPS     H7R      HAL2     0.900000E-01   1.00800           0
      4954 MEMB     38       POPS     H7S      HAL2     0.900000E-01   1.00800           0
      4955 MEMB     38       POPS     C28      CTL2    -0.180000       12.0110           0
      4956 MEMB     38       POPS     H8R      HAL2     0.900000E-01   1.00800           0
      4957 MEMB     38       POPS     H8S      HAL2     0.900000E-01   1.00800           0
      4958 MEMB     38       POPS     C29      CEL1    -0.150000       12.0110           0
      4959 MEMB     38       POPS     H91      HEL1     0.150000       1.00800           0
      4960 MEMB     38       POPS     C210     CEL1    -0.150000       12.0110           0
      4961 MEMB     38       POPS     H101     HEL1     0.150000       1.00800           0
      4962 MEMB     38       POPS     C211     CTL2    -0.180000       12.0110           0
      4963 MEMB     38       POPS     H11R     HAL2     0.900000E-01   1.00800           0
      4964 MEMB     38       POPS     H11S     HAL2     0.900000E-01   1.00800           0
      4965 MEMB     38       POPS     C212     CTL2    -0.180000       12.0110           0
      4966 MEMB     38       POPS     H12R     HAL2     0.900000E-01   1.00800           0
      4967 MEMB     38       POPS     H12S     HAL2     0.900000E-01   1.00800           0
      4968 MEMB     38       POPS     C213     CTL2    -0.180000       12.0110           0
      4969 MEMB     38       POPS     H13R     HAL2     0.900000E-01   1.00800           0
      4970 MEMB     38       POPS     H13S     HAL2     0.900000E-01   1.00800           0
      4971 MEMB     38       POPS     C214     CTL2    -0.180000       12.0110           0
      4972 MEMB     38       POPS     H14R     HAL2     0.900000E-01   1.00800           0
      4973 MEMB     38       POPS     H14S     HAL2     0.900000E-01   1.00800           0
      4974 MEMB     38       POPS     C215     CTL2    -0.180000       12.0110           0
      4975 MEMB     38       POPS     H15R     HAL2     0.900000E-01   1.00800           0
      4976 MEMB     38       POPS     H15S     HAL2     0.900000E-01   1.00800           0
      4977 MEMB     38       POPS     C216     CTL2    -0.180000       12.0110           0
      4978 MEMB     38       POPS     H16R     HAL2     0.900000E-01   1.00800           0
      4979 MEMB     38       POPS     H16S     HAL2     0.900000E-01   1.00800           0
      4980 MEMB     38       POPS     C217     CTL2    -0.180000       12.0110           0
      4981 MEMB     38       POPS     H17R     HAL2     0.900000E-01   1.00800           0
      4982 MEMB     38       POPS     H17S     HAL2     0.900000E-01   1.00800           0
      4983 MEMB     38       POPS     C218     CTL3    -0.270000       12.0110           0
      4984 MEMB     38       POPS     H18R     HAL3     0.900000E-01   1.00800           0
      4985 MEMB     38       POPS     H18S     HAL3     0.900000E-01   1.00800           0
      4986 MEMB     38       POPS     H18T     HAL3     0.900000E-01   1.00800           0
      4987 MEMB     38       POPS     C33      CTL2    -0.180000       12.0110           0
      4988 MEMB     38       POPS     H3X      HAL2     0.900000E-01   1.00800           0
      4989 MEMB     38       POPS     H3Y      HAL2     0.900000E-01   1.00800           0
      4990 MEMB     38       POPS     C34      CTL2    -0.180000       12.0110           0
      4991 MEMB     38       POPS     H4X      HAL2     0.900000E-01   1.00800           0
      4992 MEMB     38       POPS     H4Y      HAL2     0.900000E-01   1.00800           0
      4993 MEMB     38       POPS     C35      CTL2    -0.180000       12.0110           0
      4994 MEMB     38       POPS     H5X      HAL2     0.900000E-01   1.00800           0
      4995 MEMB     38       POPS     H5Y      HAL2     0.900000E-01   1.00800           0
      4996 MEMB     38       POPS     C36      CTL2    -0.180000       12.0110           0
      4997 MEMB     38       POPS     H6X      HAL2     0.900000E-01   1.00800           0
      4998 MEMB     38       POPS     H6Y      HAL2     0.900000E-01   1.00800           0
      4999 MEMB     38       POPS     C37      CTL2    -0.180000       12.0110           0
      5000 MEMB     38       POPS     H7X      HAL2     0.900000E-01   1.00800           0
      5001 MEMB     38       POPS     H7Y      HAL2     0.900000E-01   1.00800           0
      5002 MEMB     38       POPS     C38      CTL2    -0.180000       12.0110           0
      5003 MEMB     38       POPS     H8X      HAL2     0.900000E-01   1.00800           0
      5004 MEMB     38       POPS     H8Y      HAL2     0.900000E-01   1.00800           0
      5005 MEMB     38       POPS     C39      CTL2    -0.180000       12.0110           0
      5006 MEMB     38       POPS     H9X      HAL2     0.900000E-01   1.00800           0
      5007 MEMB     38       POPS     H9Y      HAL2     0.900000E-01   1.00800           0
      5008 MEMB     38       POPS     C310     CTL2    -0.180000       12.0110           0
      5009 MEMB     38       POPS     H10X     HAL2     0.900000E-01   1.00800           0
      5010 MEMB     38       POPS     H10Y     HAL2     0.900000E-01   1.00800           0
      5011 MEMB     38       POPS     C311     CTL2    -0.180000       12.0110           0
      5012 MEMB     38       POPS     H11X     HAL2     0.900000E-01   1.00800           0
      5013 MEMB     38       POPS     H11Y     HAL2     0.900000E-01   1.00800           0
      5014 MEMB     38       POPS     C312     CTL2    -0.180000       12.0110           0
      5015 MEMB     38       POPS     H12X     HAL2     0.900000E-01   1.00800           0
      5016 MEMB     38       POPS     H12Y     HAL2     0.900000E-01   1.00800           0
      5017 MEMB     38       POPS     C313     CTL2    -0.180000       12.0110           0
      5018 MEMB     38       POPS     H13X     HAL2     0.900000E-01   1.00800           0
      5019 MEMB     38       POPS     H13Y     HAL2     0.900000E-01   1.00800           0
      5020 MEMB     38       POPS     C314     CTL2    -0.180000       12.0110           0
      5021 MEMB     38       POPS     H14X     HAL2     0.900000E-01   1.00800           0
      5022 MEMB     38       POPS     H14Y     HAL2     0.900000E-01   1.00800           0
      5023 MEMB     38       POPS     C315     CTL2    -0.180000       12.0110           0
      5024 MEMB     38       POPS     H15X     HAL2     0.900000E-01   1.00800           0
      5025 MEMB     38       POPS     H15Y     HAL2     0.900000E-01   1.00800           0
      5026 MEMB     38       POPS     C316     CTL3    -0.270000       12.0110           0
      5027 MEMB     38       POPS     H16X     HAL3     0.900000E-01   1.00800           0
      5028 MEMB     38       POPS     H16Y     HAL3     0.900000E-01   1.00800           0
      5029 MEMB     38       POPS     H16Z     HAL3     0.900000E-01   1.00800           0
      5030 MEMB     39       POPC     N        NTL     -0.600000       14.0070           0
      5031 MEMB     39       POPC     C12      CTL2    -0.100000       12.0110           0
      5032 MEMB     39       POPC     H12A     HL       0.250000       1.00800           0
      5033 MEMB     39       POPC     H12B     HL       0.250000       1.00800           0
      5034 MEMB     39       POPC     C13      CTL5    -0.350000       12.0110           0
      5035 MEMB     39       POPC     H13A     HL       0.250000       1.00800           0
      5036 MEMB     39       POPC     H13B     HL       0.250000       1.00800           0
      5037 MEMB     39       POPC     H13C     HL       0.250000       1.00800           0
      5038 MEMB     39       POPC     C14      CTL5    -0.350000       12.0110           0
      5039 MEMB     39       POPC     H14A     HL       0.250000       1.00800           0
      5040 MEMB     39       POPC     H14B     HL       0.250000       1.00800           0
      5041 MEMB     39       POPC     H14C     HL       0.250000       1.00800           0
      5042 MEMB     39       POPC     C15      CTL5    -0.350000       12.0110           0
      5043 MEMB     39       POPC     H15A     HL       0.250000       1.00800           0
      5044 MEMB     39       POPC     H15B     HL       0.250000       1.00800           0
      5045 MEMB     39       POPC     H15C     HL       0.250000       1.00800           0
      5046 MEMB     39       POPC     C11      CTL2    -0.800000E-01   12.0110           0
      5047 MEMB     39       POPC     H11A     HAL2     0.900000E-01   1.00800           0
      5048 MEMB     39       POPC     H11B     HAL2     0.900000E-01   1.00800           0
      5049 MEMB     39       POPC     P        PL        1.50000       30.9740           0
      5050 MEMB     39       POPC     O13      O2L     -0.780000       15.9994           0
      5051 MEMB     39       POPC     O14      O2L     -0.780000       15.9994           0
      5052 MEMB     39       POPC     O12      OSLP    -0.570000       15.9994           0
      5053 MEMB     39       POPC     O11      OSLP    -0.570000       15.9994           0
      5054 MEMB     39       POPC     C1       CTL2    -0.800000E-01   12.0110           0
      5055 MEMB     39       POPC     HA       HAL2     0.900000E-01   1.00800           0
      5056 MEMB     39       POPC     HB       HAL2     0.900000E-01   1.00800           0
      5057 MEMB     39       POPC     C2       CTL1     0.170000       12.0110           0
      5058 MEMB     39       POPC     HS       HAL1     0.900000E-01   1.00800           0
      5059 MEMB     39       POPC     O21      OSL     -0.490000       15.9994           0
      5060 MEMB     39       POPC     C21      CL       0.900000       12.0110           0
      5061 MEMB     39       POPC     O22      OBL     -0.630000       15.9994           0
      5062 MEMB     39       POPC     C22      CTL2    -0.220000       12.0110           0
      5063 MEMB     39       POPC     H2R      HAL2     0.900000E-01   1.00800           0
      5064 MEMB     39       POPC     H2S      HAL2     0.900000E-01   1.00800           0
      5065 MEMB     39       POPC     C3       CTL2     0.800000E-01   12.0110           0
      5066 MEMB     39       POPC     HX       HAL2     0.900000E-01   1.00800           0
      5067 MEMB     39       POPC     HY       HAL2     0.900000E-01   1.00800           0
      5068 MEMB     39       POPC     O31      OSL     -0.490000       15.9994           0
      5069 MEMB     39       POPC     C31      CL       0.900000       12.0110           0
      5070 MEMB     39       POPC     O32      OBL     -0.630000       15.9994           0
      5071 MEMB     39       POPC     C32      CTL2    -0.220000       12.0110           0
      5072 MEMB     39       POPC     H2X      HAL2     0.900000E-01   1.00800           0
      5073 MEMB     39       POPC     H2Y      HAL2     0.900000E-01   1.00800           0
      5074 MEMB     39       POPC     C23      CTL2    -0.180000       12.0110           0
      5075 MEMB     39       POPC     H3R      HAL2     0.900000E-01   1.00800           0
      5076 MEMB     39       POPC     H3S      HAL2     0.900000E-01   1.00800           0
      5077 MEMB     39       POPC     C24      CTL2    -0.180000       12.0110           0
      5078 MEMB     39       POPC     H4R      HAL2     0.900000E-01   1.00800           0
      5079 MEMB     39       POPC     H4S      HAL2     0.900000E-01   1.00800           0
      5080 MEMB     39       POPC     C25      CTL2    -0.180000       12.0110           0
      5081 MEMB     39       POPC     H5R      HAL2     0.900000E-01   1.00800           0
      5082 MEMB     39       POPC     H5S      HAL2     0.900000E-01   1.00800           0
      5083 MEMB     39       POPC     C26      CTL2    -0.180000       12.0110           0
      5084 MEMB     39       POPC     H6R      HAL2     0.900000E-01   1.00800           0
      5085 MEMB     39       POPC     H6S      HAL2     0.900000E-01   1.00800           0
      5086 MEMB     39       POPC     C27      CTL2    -0.180000       12.0110           0
      5087 MEMB     39       POPC     H7R      HAL2     0.900000E-01   1.00800           0
      5088 MEMB     39       POPC     H7S      HAL2     0.900000E-01   1.00800           0
      5089 MEMB     39       POPC     C28      CTL2    -0.180000       12.0110           0
      5090 MEMB     39       POPC     H8R      HAL2     0.900000E-01   1.00800           0
      5091 MEMB     39       POPC     H8S      HAL2     0.900000E-01   1.00800           0
      5092 MEMB     39       POPC     C29      CEL1    -0.150000       12.0110           0
      5093 MEMB     39       POPC     H91      HEL1     0.150000       1.00800           0
      5094 MEMB     39       POPC     C210     CEL1    -0.150000       12.0110           0
      5095 MEMB     39       POPC     H101     HEL1     0.150000       1.00800           0
      5096 MEMB     39       POPC     C211     CTL2    -0.180000       12.0110           0
      5097 MEMB     39       POPC     H11R     HAL2     0.900000E-01   1.00800           0
      5098 MEMB     39       POPC     H11S     HAL2     0.900000E-01   1.00800           0
      5099 MEMB     39       POPC     C212     CTL2    -0.180000       12.0110           0
      5100 MEMB     39       POPC     H12R     HAL2     0.900000E-01   1.00800           0
      5101 MEMB     39       POPC     H12S     HAL2     0.900000E-01   1.00800           0
      5102 MEMB     39       POPC     C213     CTL2    -0.180000       12.0110           0
      5103 MEMB     39       POPC     H13R     HAL2     0.900000E-01   1.00800           0
      5104 MEMB     39       POPC     H13S     HAL2     0.900000E-01   1.00800           0
      5105 MEMB     39       POPC     C214     CTL2    -0.180000       12.0110           0
      5106 MEMB     39       POPC     H14R     HAL2     0.900000E-01   1.00800           0
      5107 MEMB     39       POPC     H14S     HAL2     0.900000E-01   1.00800           0
      5108 MEMB     39       POPC     C215     CTL2    -0.180000       12.0110           0
      5109 MEMB     39       POPC     H15R     HAL2     0.900000E-01   1.00800           0
      5110 MEMB     39       POPC     H15S     HAL2     0.900000E-01   1.00800           0
      5111 MEMB     39       POPC     C216     CTL2    -0.180000       12.0110           0
      5112 MEMB     39       POPC     H16R     HAL2     0.900000E-01   1.00800           0
      5113 MEMB     39       POPC     H16S     HAL2     0.900000E-01   1.00800           0
      5114 MEMB     39       POPC     C217     CTL2    -0.180000       12.0110           0
      5115 MEMB     39       POPC     H17R     HAL2     0.900000E-01   1.00800           0
      5116 MEMB     39       POPC     H17S     HAL2     0.900000E-01   1.00800           0
      5117 MEMB     39       POPC     C218     CTL3    -0.270000       12.0110           0
      5118 MEMB     39       POPC     H18R     HAL3     0.900000E-01   1.00800           0
      5119 MEMB     39       POPC     H18S     HAL3     0.900000E-01   1.00800           0
      5120 MEMB     39       POPC     H18T     HAL3     0.900000E-01   1.00800           0
      5121 MEMB     39       POPC     C33      CTL2    -0.180000       12.0110           0
      5122 MEMB     39       POPC     H3X      HAL2     0.900000E-01   1.00800           0
      5123 MEMB     39       POPC     H3Y      HAL2     0.900000E-01   1.00800           0
      5124 MEMB     39       POPC     C34      CTL2    -0.180000       12.0110           0
      5125 MEMB     39       POPC     H4X      HAL2     0.900000E-01   1.00800           0
      5126 MEMB     39       POPC     H4Y      HAL2     0.900000E-01   1.00800           0
      5127 MEMB     39       POPC     C35      CTL2    -0.180000       12.0110           0
      5128 MEMB     39       POPC     H5X      HAL2     0.900000E-01   1.00800           0
      5129 MEMB     39       POPC     H5Y      HAL2     0.900000E-01   1.00800           0
      5130 MEMB     39       POPC     C36      CTL2    -0.180000       12.0110           0
      5131 MEMB     39       POPC     H6X      HAL2     0.900000E-01   1.00800           0
      5132 MEMB     39       POPC     H6Y      HAL2     0.900000E-01   1.00800           0
      5133 MEMB     39       POPC     C37      CTL2    -0.180000       12.0110           0
      5134 MEMB     39       POPC     H7X      HAL2     0.900000E-01   1.00800           0
      5135 MEMB     39       POPC     H7Y      HAL2     0.900000E-01   1.00800           0
      5136 MEMB     39       POPC     C38      CTL2    -0.180000       12.0110           0
      5137 MEMB     39       POPC     H8X      HAL2     0.900000E-01   1.00800           0
      5138 MEMB     39       POPC     H8Y      HAL2     0.900000E-01   1.00800           0
      5139 MEMB     39       POPC     C39      CTL2    -0.180000       12.0110           0
      5140 MEMB     39       POPC     H9X      HAL2     0.900000E-01   1.00800           0
      5141 MEMB     39       POPC     H9Y      HAL2     0.900000E-01   1.00800           0
      5142 MEMB     39       POPC     C310     CTL2    -0.180000       12.0110           0
      5143 MEMB     39       POPC     H10X     HAL2     0.900000E-01   1.00800           0
      5144 MEMB     39       POPC     H10Y     HAL2     0.900000E-01   1.00800           0
      5145 MEMB     39       POPC     C311     CTL2    -0.180000       12.0110           0
      5146 MEMB     39       POPC     H11X     HAL2     0.900000E-01   1.00800           0
      5147 MEMB     39       POPC     H11Y     HAL2     0.900000E-01   1.00800           0
      5148 MEMB     39       POPC     C312     CTL2    -0.180000       12.0110           0
      5149 MEMB     39       POPC     H12X     HAL2     0.900000E-01   1.00800           0
      5150 MEMB     39       POPC     H12Y     HAL2     0.900000E-01   1.00800           0
      5151 MEMB     39       POPC     C313     CTL2    -0.180000       12.0110           0
      5152 MEMB     39       POPC     H13X     HAL2     0.900000E-01   1.00800           0
      5153 MEMB     39       POPC     H13Y     HAL2     0.900000E-01   1.00800           0
      5154 MEMB     39       POPC     C314     CTL2    -0.180000       12.0110           0
      5155 MEMB     39       POPC     H14X     HAL2     0.900000E-01   1.00800           0
      5156 MEMB     39       POPC     H14Y     HAL2     0.900000E-01   1.00800           0
      5157 MEMB     39       POPC     C315     CTL2    -0.180000       12.0110           0
      5158 MEMB     39       POPC     H15X     HAL2     0.900000E-01   1.00800           0
      5159 MEMB     39       POPC     H15Y     HAL2     0.900000E-01   1.00800           0
      5160 MEMB     39       POPC     C316     CTL3    -0.270000       12.0110           0
      5161 MEMB     39       POPC     H16X     HAL3     0.900000E-01   1.00800           0
      5162 MEMB     39       POPC     H16Y     HAL3     0.900000E-01   1.00800           0
      5163 MEMB     39       POPC     H16Z     HAL3     0.900000E-01   1.00800           0
      5164 MEMB     40       POPC     N        NTL     -0.600000       14.0070           0
      5165 MEMB     40       POPC     C12      CTL2    -0.100000       12.0110           0
      5166 MEMB     40       POPC     H12A     HL       0.250000       1.00800           0
      5167 MEMB     40       POPC     H12B     HL       0.250000       1.00800           0
      5168 MEMB     40       POPC     C13      CTL5    -0.350000       12.0110           0
      5169 MEMB     40       POPC     H13A     HL       0.250000       1.00800           0
      5170 MEMB     40       POPC     H13B     HL       0.250000       1.00800           0
      5171 MEMB     40       POPC     H13C     HL       0.250000       1.00800           0
      5172 MEMB     40       POPC     C14      CTL5    -0.350000       12.0110           0
      5173 MEMB     40       POPC     H14A     HL       0.250000       1.00800           0
      5174 MEMB     40       POPC     H14B     HL       0.250000       1.00800           0
      5175 MEMB     40       POPC     H14C     HL       0.250000       1.00800           0
      5176 MEMB     40       POPC     C15      CTL5    -0.350000       12.0110           0
      5177 MEMB     40       POPC     H15A     HL       0.250000       1.00800           0
      5178 MEMB     40       POPC     H15B     HL       0.250000       1.00800           0
      5179 MEMB     40       POPC     H15C     HL       0.250000       1.00800           0
      5180 MEMB     40       POPC     C11      CTL2    -0.800000E-01   12.0110           0
      5181 MEMB     40       POPC     H11A     HAL2     0.900000E-01   1.00800           0
      5182 MEMB     40       POPC     H11B     HAL2     0.900000E-01   1.00800           0
      5183 MEMB     40       POPC     P        PL        1.50000       30.9740           0
      5184 MEMB     40       POPC     O13      O2L     -0.780000       15.9994           0
      5185 MEMB     40       POPC     O14      O2L     -0.780000       15.9994           0
      5186 MEMB     40       POPC     O12      OSLP    -0.570000       15.9994           0
      5187 MEMB     40       POPC     O11      OSLP    -0.570000       15.9994           0
      5188 MEMB     40       POPC     C1       CTL2    -0.800000E-01   12.0110           0
      5189 MEMB     40       POPC     HA       HAL2     0.900000E-01   1.00800           0
      5190 MEMB     40       POPC     HB       HAL2     0.900000E-01   1.00800           0
      5191 MEMB     40       POPC     C2       CTL1     0.170000       12.0110           0
      5192 MEMB     40       POPC     HS       HAL1     0.900000E-01   1.00800           0
      5193 MEMB     40       POPC     O21      OSL     -0.490000       15.9994           0
      5194 MEMB     40       POPC     C21      CL       0.900000       12.0110           0
      5195 MEMB     40       POPC     O22      OBL     -0.630000       15.9994           0
      5196 MEMB     40       POPC     C22      CTL2    -0.220000       12.0110           0
      5197 MEMB     40       POPC     H2R      HAL2     0.900000E-01   1.00800           0
      5198 MEMB     40       POPC     H2S      HAL2     0.900000E-01   1.00800           0
      5199 MEMB     40       POPC     C3       CTL2     0.800000E-01   12.0110           0
      5200 MEMB     40       POPC     HX       HAL2     0.900000E-01   1.00800           0
      5201 MEMB     40       POPC     HY       HAL2     0.900000E-01   1.00800           0
      5202 MEMB     40       POPC     O31      OSL     -0.490000       15.9994           0
      5203 MEMB     40       POPC     C31      CL       0.900000       12.0110           0
      5204 MEMB     40       POPC     O32      OBL     -0.630000       15.9994           0
      5205 MEMB     40       POPC     C32      CTL2    -0.220000       12.0110           0
      5206 MEMB     40       POPC     H2X      HAL2     0.900000E-01   1.00800           0
      5207 MEMB     40       POPC     H2Y      HAL2     0.900000E-01   1.00800           0
      5208 MEMB     40       POPC     C23      CTL2    -0.180000       12.0110           0
      5209 MEMB     40       POPC     H3R      HAL2     0.900000E-01   1.00800           0
      5210 MEMB     40       POPC     H3S      HAL2     0.900000E-01   1.00800           0
      5211 MEMB     40       POPC     C24      CTL2    -0.180000       12.0110           0
      5212 MEMB     40       POPC     H4R      HAL2     0.900000E-01   1.00800           0
      5213 MEMB     40       POPC     H4S      HAL2     0.900000E-01   1.00800           0
      5214 MEMB     40       POPC     C25      CTL2    -0.180000       12.0110           0
      5215 MEMB     40       POPC     H5R      HAL2     0.900000E-01   1.00800           0
      5216 MEMB     40       POPC     H5S      HAL2     0.900000E-01   1.00800           0
      5217 MEMB     40       POPC     C26      CTL2    -0.180000       12.0110           0
      5218 MEMB     40       POPC     H6R      HAL2     0.900000E-01   1.00800           0
      5219 MEMB     40       POPC     H6S      HAL2     0.900000E-01   1.00800           0
      5220 MEMB     40       POPC     C27      CTL2    -0.180000       12.0110           0
      5221 MEMB     40       POPC     H7R      HAL2     0.900000E-01   1.00800           0
      5222 MEMB     40       POPC     H7S      HAL2     0.900000E-01   1.00800           0
      5223 MEMB     40       POPC     C28      CTL2    -0.180000       12.0110           0
      5224 MEMB     40       POPC     H8R      HAL2     0.900000E-01   1.00800           0
      5225 MEMB     40       POPC     H8S      HAL2     0.900000E-01   1.00800           0
      5226 MEMB     40       POPC     C29      CEL1    -0.150000       12.0110           0
      5227 MEMB     40       POPC     H91      HEL1     0.150000       1.00800           0
      5228 MEMB     40       POPC     C210     CEL1    -0.150000       12.0110           0
      5229 MEMB     40       POPC     H101     HEL1     0.150000       1.00800           0
      5230 MEMB     40       POPC     C211     CTL2    -0.180000       12.0110           0
      5231 MEMB     40       POPC     H11R     HAL2     0.900000E-01   1.00800           0
      5232 MEMB     40       POPC     H11S     HAL2     0.900000E-01   1.00800           0
      5233 MEMB     40       POPC     C212     CTL2    -0.180000       12.0110           0
      5234 MEMB     40       POPC     H12R     HAL2     0.900000E-01   1.00800           0
      5235 MEMB     40       POPC     H12S     HAL2     0.900000E-01   1.00800           0
      5236 MEMB     40       POPC     C213     CTL2    -0.180000       12.0110           0
      5237 MEMB     40       POPC     H13R     HAL2     0.900000E-01   1.00800           0
      5238 MEMB     40       POPC     H13S     HAL2     0.900000E-01   1.00800           0
      5239 MEMB     40       POPC     C214     CTL2    -0.180000       12.0110           0
      5240 MEMB     40       POPC     H14R     HAL2     0.900000E-01   1.00800           0
      5241 MEMB     40       POPC     H14S     HAL2     0.900000E-01   1.00800           0
      5242 MEMB     40       POPC     C215     CTL2    -0.180000       12.0110           0
      5243 MEMB     40       POPC     H15R     HAL2     0.900000E-01   1.00800           0
      5244 MEMB     40       POPC     H15S     HAL2     0.900000E-01   1.00800           0
      5245 MEMB     40       POPC     C216     CTL2    -0.180000       12.0110           0
      5246 MEMB     40       POPC     H16R     HAL2     0.900000E-01   1.00800           0
      5247 MEMB     40       POPC     H16S     HAL2     0.900000E-01   1.00800           0
      5248 MEMB     40       POPC     C217     CTL2    -0.180000       12.0110           0
      5249 MEMB     40       POPC     H17R     HAL2     0.900000E-01   1.00800           0
      5250 MEMB     40       POPC     H17S     HAL2     0.900000E-01   1.00800           0
      5251 MEMB     40       POPC     C218     CTL3    -0.270000       12.0110           0
      5252 MEMB     40       POPC     H18R     HAL3     0.900000E-01   1.00800           0
      5253 MEMB     40       POPC     H18S     HAL3     0.900000E-01   1.00800           0
      5254 MEMB     40       POPC     H18T     HAL3     0.900000E-01   1.00800           0
      5255 MEMB     40       POPC     C33      CTL2    -0.180000       12.0110           0
      5256 MEMB     40       POPC     H3X      HAL2     0.900000E-01   1.00800           0
      5257 MEMB     40       POPC     H3Y      HAL2     0.900000E-01   1.00800           0
      5258 MEMB     40       POPC     C34      CTL2    -0.180000       12.0110           0
      5259 MEMB     40       POPC     H4X      HAL2     0.900000E-01   1.00800           0
      5260 MEMB     40       POPC     H4Y      HAL2     0.900000E-01   1.00800           0
      5261 MEMB     40       POPC     C35      CTL2    -0.180000       12.0110           0
      5262 MEMB     40       POPC     H5X      HAL2     0.900000E-01   1.00800           0
      5263 MEMB     40       POPC     H5Y      HAL2     0.900000E-01   1.00800           0
      5264 MEMB     40       POPC     C36      CTL2    -0.180000       12.0110           0
      5265 MEMB     40       POPC     H6X      HAL2     0.900000E-01   1.00800           0
      5266 MEMB     40       POPC     H6Y      HAL2     0.900000E-01   1.00800           0
      5267 MEMB     40       POPC     C37      CTL2    -0.180000       12.0110           0
      5268 MEMB     40       POPC     H7X      HAL2     0.900000E-01   1.00800           0
      5269 MEMB     40       POPC     H7Y      HAL2     0.900000E-01   1.00800           0
      5270 MEMB     40       POPC     C38      CTL2    -0.180000       12.0110           0
      5271 MEMB     40       POPC     H8X      HAL2     0.900000E-01   1.00800           0
      5272 MEMB     40       POPC     H8Y      HAL2     0.900000E-01   1.00800           0
      5273 MEMB     40       POPC     C39      CTL2    -0.180000       12.0110           0
      5274 MEMB     40       POPC     H9X      HAL2     0.900000E-01   1.00800           0
      5275 MEMB     40       POPC     H9Y      HAL2     0.900000E-01   1.00800           0
      5276 MEMB     40       POPC     C310     CTL2    -0.180000       12.0110           0
      5277 MEMB     40       POPC     H10X     HAL2     0.900000E-01   1.00800           0
      5278 MEMB     40       POPC     H10Y     HAL2     0.900000E-01   1.00800           0
      5279 MEMB     40       POPC     C311     CTL2    -0.180000       12.0110           0
      5280 MEMB     40       POPC     H11X     HAL2     0.900000E-01   1.00800           0
      5281 MEMB     40       POPC     H11Y     HAL2     0.900000E-01   1.00800           0
      5282 MEMB     40       POPC     C312     CTL2    -0.180000       12.0110           0
      5283 MEMB     40       POPC     H12X     HAL2     0.900000E-01   1.00800           0
      5284 MEMB     40       POPC     H12Y     HAL2     0.900000E-01   1.00800           0
      5285 MEMB     40       POPC     C313     CTL2    -0.180000       12.0110           0
      5286 MEMB     40       POPC     H13X     HAL2     0.900000E-01   1.00800           0
      5287 MEMB     40       POPC     H13Y     HAL2     0.900000E-01   1.00800           0
      5288 MEMB     40       POPC     C314     CTL2    -0.180000       12.0110           0
      5289 MEMB     40       POPC     H14X     HAL2     0.900000E-01   1.00800           0
      5290 MEMB     40       POPC     H14Y     HAL2     0.900000E-01   1.00800           0
      5291 MEMB     40       POPC     C315     CTL2    -0.180000       12.0110           0
      5292 MEMB     40       POPC     H15X     HAL2     0.900000E-01   1.00800           0
      5293 MEMB     40       POPC     H15Y     HAL2     0.900000E-01   1.00800           0
      5294 MEMB     40       POPC     C316     CTL3    -0.270000       12.0110           0
      5295 MEMB     40       POPC     H16X     HAL3     0.900000E-01   1.00800           0
      5296 MEMB     40       POPC     H16Y     HAL3     0.900000E-01   1.00800           0
      5297 MEMB     40       POPC     H16Z     HAL3     0.900000E-01   1.00800           0
      5298 MEMB     41       POPC     N        NTL     -0.600000       14.0070           0
      5299 MEMB     41       POPC     C12      CTL2    -0.100000       12.0110           0
      5300 MEMB     41       POPC     H12A     HL       0.250000       1.00800           0
      5301 MEMB     41       POPC     H12B     HL       0.250000       1.00800           0
      5302 MEMB     41       POPC     C13      CTL5    -0.350000       12.0110           0
      5303 MEMB     41       POPC     H13A     HL       0.250000       1.00800           0
      5304 MEMB     41       POPC     H13B     HL       0.250000       1.00800           0
      5305 MEMB     41       POPC     H13C     HL       0.250000       1.00800           0
      5306 MEMB     41       POPC     C14      CTL5    -0.350000       12.0110           0
      5307 MEMB     41       POPC     H14A     HL       0.250000       1.00800           0
      5308 MEMB     41       POPC     H14B     HL       0.250000       1.00800           0
      5309 MEMB     41       POPC     H14C     HL       0.250000       1.00800           0
      5310 MEMB     41       POPC     C15      CTL5    -0.350000       12.0110           0
      5311 MEMB     41       POPC     H15A     HL       0.250000       1.00800           0
      5312 MEMB     41       POPC     H15B     HL       0.250000       1.00800           0
      5313 MEMB     41       POPC     H15C     HL       0.250000       1.00800           0
      5314 MEMB     41       POPC     C11      CTL2    -0.800000E-01   12.0110           0
      5315 MEMB     41       POPC     H11A     HAL2     0.900000E-01   1.00800           0
      5316 MEMB     41       POPC     H11B     HAL2     0.900000E-01   1.00800           0
      5317 MEMB     41       POPC     P        PL        1.50000       30.9740           0
      5318 MEMB     41       POPC     O13      O2L     -0.780000       15.9994           0
      5319 MEMB     41       POPC     O14      O2L     -0.780000       15.9994           0
      5320 MEMB     41       POPC     O12      OSLP    -0.570000       15.9994           0
      5321 MEMB     41       POPC     O11      OSLP    -0.570000       15.9994           0
      5322 MEMB     41       POPC     C1       CTL2    -0.800000E-01   12.0110           0
      5323 MEMB     41       POPC     HA       HAL2     0.900000E-01   1.00800           0
      5324 MEMB     41       POPC     HB       HAL2     0.900000E-01   1.00800           0
      5325 MEMB     41       POPC     C2       CTL1     0.170000       12.0110           0
      5326 MEMB     41       POPC     HS       HAL1     0.900000E-01   1.00800           0
      5327 MEMB     41       POPC     O21      OSL     -0.490000       15.9994           0
      5328 MEMB     41       POPC     C21      CL       0.900000       12.0110           0
      5329 MEMB     41       POPC     O22      OBL     -0.630000       15.9994           0
      5330 MEMB     41       POPC     C22      CTL2    -0.220000       12.0110           0
      5331 MEMB     41       POPC     H2R      HAL2     0.900000E-01   1.00800           0
      5332 MEMB     41       POPC     H2S      HAL2     0.900000E-01   1.00800           0
      5333 MEMB     41       POPC     C3       CTL2     0.800000E-01   12.0110           0
      5334 MEMB     41       POPC     HX       HAL2     0.900000E-01   1.00800           0
      5335 MEMB     41       POPC     HY       HAL2     0.900000E-01   1.00800           0
      5336 MEMB     41       POPC     O31      OSL     -0.490000       15.9994           0
      5337 MEMB     41       POPC     C31      CL       0.900000       12.0110           0
      5338 MEMB     41       POPC     O32      OBL     -0.630000       15.9994           0
      5339 MEMB     41       POPC     C32      CTL2    -0.220000       12.0110           0
      5340 MEMB     41       POPC     H2X      HAL2     0.900000E-01   1.00800           0
      5341 MEMB     41       POPC     H2Y      HAL2     0.900000E-01   1.00800           0
      5342 MEMB     41       POPC     C23      CTL2    -0.180000       12.0110           0
      5343 MEMB     41       POPC     H3R      HAL2     0.900000E-01   1.00800           0
      5344 MEMB     41       POPC     H3S      HAL2     0.900000E-01   1.00800           0
      5345 MEMB     41       POPC     C24      CTL2    -0.180000       12.0110           0
      5346 MEMB     41       POPC     H4R      HAL2     0.900000E-01   1.00800           0
      5347 MEMB     41       POPC     H4S      HAL2     0.900000E-01   1.00800           0
      5348 MEMB     41       POPC     C25      CTL2    -0.180000       12.0110           0
      5349 MEMB     41       POPC     H5R      HAL2     0.900000E-01   1.00800           0
      5350 MEMB     41       POPC     H5S      HAL2     0.900000E-01   1.00800           0
      5351 MEMB     41       POPC     C26      CTL2    -0.180000       12.0110           0
      5352 MEMB     41       POPC     H6R      HAL2     0.900000E-01   1.00800           0
      5353 MEMB     41       POPC     H6S      HAL2     0.900000E-01   1.00800           0
      5354 MEMB     41       POPC     C27      CTL2    -0.180000       12.0110           0
      5355 MEMB     41       POPC     H7R      HAL2     0.900000E-01   1.00800           0
      5356 MEMB     41       POPC     H7S      HAL2     0.900000E-01   1.00800           0
      5357 MEMB     41       POPC     C28      CTL2    -0.180000       12.0110           0
      5358 MEMB     41       POPC     H8R      HAL2     0.900000E-01   1.00800           0
      5359 MEMB     41       POPC     H8S      HAL2     0.900000E-01   1.00800           0
      5360 MEMB     41       POPC     C29      CEL1    -0.150000       12.0110           0
      5361 MEMB     41       POPC     H91      HEL1     0.150000       1.00800           0
      5362 MEMB     41       POPC     C210     CEL1    -0.150000       12.0110           0
      5363 MEMB     41       POPC     H101     HEL1     0.150000       1.00800           0
      5364 MEMB     41       POPC     C211     CTL2    -0.180000       12.0110           0
      5365 MEMB     41       POPC     H11R     HAL2     0.900000E-01   1.00800           0
      5366 MEMB     41       POPC     H11S     HAL2     0.900000E-01   1.00800           0
      5367 MEMB     41       POPC     C212     CTL2    -0.180000       12.0110           0
      5368 MEMB     41       POPC     H12R     HAL2     0.900000E-01   1.00800           0
      5369 MEMB     41       POPC     H12S     HAL2     0.900000E-01   1.00800           0
      5370 MEMB     41       POPC     C213     CTL2    -0.180000       12.0110           0
      5371 MEMB     41       POPC     H13R     HAL2     0.900000E-01   1.00800           0
      5372 MEMB     41       POPC     H13S     HAL2     0.900000E-01   1.00800           0
      5373 MEMB     41       POPC     C214     CTL2    -0.180000       12.0110           0
      5374 MEMB     41       POPC     H14R     HAL2     0.900000E-01   1.00800           0
      5375 MEMB     41       POPC     H14S     HAL2     0.900000E-01   1.00800           0
      5376 MEMB     41       POPC     C215     CTL2    -0.180000       12.0110           0
      5377 MEMB     41       POPC     H15R     HAL2     0.900000E-01   1.00800           0
      5378 MEMB     41       POPC     H15S     HAL2     0.900000E-01   1.00800           0
      5379 MEMB     41       POPC     C216     CTL2    -0.180000       12.0110           0
      5380 MEMB     41       POPC     H16R     HAL2     0.900000E-01   1.00800           0
      5381 MEMB     41       POPC     H16S     HAL2     0.900000E-01   1.00800           0
      5382 MEMB     41       POPC     C217     CTL2    -0.180000       12.0110           0
      5383 MEMB     41       POPC     H17R     HAL2     0.900000E-01   1.00800           0
      5384 MEMB     41       POPC     H17S     HAL2     0.900000E-01   1.00800           0
      5385 MEMB     41       POPC     C218     CTL3    -0.270000       12.0110           0
      5386 MEMB     41       POPC     H18R     HAL3     0.900000E-01   1.00800           0
      5387 MEMB     41       POPC     H18S     HAL3     0.900000E-01   1.00800           0
      5388 MEMB     41       POPC     H18T     HAL3     0.900000E-01   1.00800           0
      5389 MEMB     41       POPC     C33      CTL2    -0.180000       12.0110           0
      5390 MEMB     41       POPC     H3X      HAL2     0.900000E-01   1.00800           0
      5391 MEMB     41       POPC     H3Y      HAL2     0.900000E-01   1.00800           0
      5392 MEMB     41       POPC     C34      CTL2    -0.180000       12.0110           0
      5393 MEMB     41       POPC     H4X      HAL2     0.900000E-01   1.00800           0
      5394 MEMB     41       POPC     H4Y      HAL2     0.900000E-01   1.00800           0
      5395 MEMB     41       POPC     C35      CTL2    -0.180000       12.0110           0
      5396 MEMB     41       POPC     H5X      HAL2     0.900000E-01   1.00800           0
      5397 MEMB     41       POPC     H5Y      HAL2     0.900000E-01   1.00800           0
      5398 MEMB     41       POPC     C36      CTL2    -0.180000       12.0110           0
      5399 MEMB     41       POPC     H6X      HAL2     0.900000E-01   1.00800           0
      5400 MEMB     41       POPC     H6Y      HAL2     0.900000E-01   1.00800           0
      5401 MEMB     41       POPC     C37      CTL2    -0.180000       12.0110           0
      5402 MEMB     41       POPC     H7X      HAL2     0.900000E-01   1.00800           0
      5403 MEMB     41       POPC     H7Y      HAL2     0.900000E-01   1.00800           0
      5404 MEMB     41       POPC     C38      CTL2    -0.180000       12.0110           0
      5405 MEMB     41       POPC     H8X      HAL2     0.900000E-01   1.00800           0
      5406 MEMB     41       POPC     H8Y      HAL2     0.900000E-01   1.00800           0
      5407 MEMB     41       POPC     C39      CTL2    -0.180000       12.0110           0
      5408 MEMB     41       POPC     H9X      HAL2     0.900000E-01   1.00800           0
      5409 MEMB     41       POPC     H9Y      HAL2     0.900000E-01   1.00800           0
      5410 MEMB     41       POPC     C310     CTL2    -0.180000       12.0110           0
      5411 MEMB     41       POPC     H10X     HAL2     0.900000E-01   1.00800           0
      5412 MEMB     41       POPC     H10Y     HAL2     0.900000E-01   1.00800           0
      5413 MEMB     41       POPC     C311     CTL2    -0.180000       12.0110           0
      5414 MEMB     41       POPC     H11X     HAL2     0.900000E-01   1.00800           0
      5415 MEMB     41       POPC     H11Y     HAL2     0.900000E-01   1.00800           0
      5416 MEMB     41       POPC     C312     CTL2    -0.180000       12.0110           0
      5417 MEMB     41       POPC     H12X     HAL2     0.900000E-01   1.00800           0
      5418 MEMB     41       POPC     H12Y     HAL2     0.900000E-01   1.00800           0
      5419 MEMB     41       POPC     C313     CTL2    -0.180000       12.0110           0
      5420 MEMB     41       POPC     H13X     HAL2     0.900000E-01   1.00800           0
      5421 MEMB     41       POPC     H13Y     HAL2     0.900000E-01   1.00800           0
      5422 MEMB     41       POPC     C314     CTL2    -0.180000       12.0110           0
      5423 MEMB     41       POPC     H14X     HAL2     0.900000E-01   1.00800           0
      5424 MEMB     41       POPC     H14Y     HAL2     0.900000E-01   1.00800           0
      5425 MEMB     41       POPC     C315     CTL2    -0.180000       12.0110           0
      5426 MEMB     41       POPC     H15X     HAL2     0.900000E-01   1.00800           0
      5427 MEMB     41       POPC     H15Y     HAL2     0.900000E-01   1.00800           0
      5428 MEMB     41       POPC     C316     CTL3    -0.270000       12.0110           0
      5429 MEMB     41       POPC     H16X     HAL3     0.900000E-01   1.00800           0
      5430 MEMB     41       POPC     H16Y     HAL3     0.900000E-01   1.00800           0
      5431 MEMB     41       POPC     H16Z     HAL3     0.900000E-01   1.00800           0
      5432 MEMB     42       POPC     N        NTL     -0.600000       14.0070           0
      5433 MEMB     42       POPC     C12      CTL2    -0.100000       12.0110           0
      5434 MEMB     42       POPC     H12A     HL       0.250000       1.00800           0
      5435 MEMB     42       POPC     H12B     HL       0.250000       1.00800           0
      5436 MEMB     42       POPC     C13      CTL5    -0.350000       12.0110           0
      5437 MEMB     42       POPC     H13A     HL       0.250000       1.00800           0
      5438 MEMB     42       POPC     H13B     HL       0.250000       1.00800           0
      5439 MEMB     42       POPC     H13C     HL       0.250000       1.00800           0
      5440 MEMB     42       POPC     C14      CTL5    -0.350000       12.0110           0
      5441 MEMB     42       POPC     H14A     HL       0.250000       1.00800           0
      5442 MEMB     42       POPC     H14B     HL       0.250000       1.00800           0
      5443 MEMB     42       POPC     H14C     HL       0.250000       1.00800           0
      5444 MEMB     42       POPC     C15      CTL5    -0.350000       12.0110           0
      5445 MEMB     42       POPC     H15A     HL       0.250000       1.00800           0
      5446 MEMB     42       POPC     H15B     HL       0.250000       1.00800           0
      5447 MEMB     42       POPC     H15C     HL       0.250000       1.00800           0
      5448 MEMB     42       POPC     C11      CTL2    -0.800000E-01   12.0110           0
      5449 MEMB     42       POPC     H11A     HAL2     0.900000E-01   1.00800           0
      5450 MEMB     42       POPC     H11B     HAL2     0.900000E-01   1.00800           0
      5451 MEMB     42       POPC     P        PL        1.50000       30.9740           0
      5452 MEMB     42       POPC     O13      O2L     -0.780000       15.9994           0
      5453 MEMB     42       POPC     O14      O2L     -0.780000       15.9994           0
      5454 MEMB     42       POPC     O12      OSLP    -0.570000       15.9994           0
      5455 MEMB     42       POPC     O11      OSLP    -0.570000       15.9994           0
      5456 MEMB     42       POPC     C1       CTL2    -0.800000E-01   12.0110           0
      5457 MEMB     42       POPC     HA       HAL2     0.900000E-01   1.00800           0
      5458 MEMB     42       POPC     HB       HAL2     0.900000E-01   1.00800           0
      5459 MEMB     42       POPC     C2       CTL1     0.170000       12.0110           0
      5460 MEMB     42       POPC     HS       HAL1     0.900000E-01   1.00800           0
      5461 MEMB     42       POPC     O21      OSL     -0.490000       15.9994           0
      5462 MEMB     42       POPC     C21      CL       0.900000       12.0110           0
      5463 MEMB     42       POPC     O22      OBL     -0.630000       15.9994           0
      5464 MEMB     42       POPC     C22      CTL2    -0.220000       12.0110           0
      5465 MEMB     42       POPC     H2R      HAL2     0.900000E-01   1.00800           0
      5466 MEMB     42       POPC     H2S      HAL2     0.900000E-01   1.00800           0
      5467 MEMB     42       POPC     C3       CTL2     0.800000E-01   12.0110           0
      5468 MEMB     42       POPC     HX       HAL2     0.900000E-01   1.00800           0
      5469 MEMB     42       POPC     HY       HAL2     0.900000E-01   1.00800           0
      5470 MEMB     42       POPC     O31      OSL     -0.490000       15.9994           0
      5471 MEMB     42       POPC     C31      CL       0.900000       12.0110           0
      5472 MEMB     42       POPC     O32      OBL     -0.630000       15.9994           0
      5473 MEMB     42       POPC     C32      CTL2    -0.220000       12.0110           0
      5474 MEMB     42       POPC     H2X      HAL2     0.900000E-01   1.00800           0
      5475 MEMB     42       POPC     H2Y      HAL2     0.900000E-01   1.00800           0
      5476 MEMB     42       POPC     C23      CTL2    -0.180000       12.0110           0
      5477 MEMB     42       POPC     H3R      HAL2     0.900000E-01   1.00800           0
      5478 MEMB     42       POPC     H3S      HAL2     0.900000E-01   1.00800           0
      5479 MEMB     42       POPC     C24      CTL2    -0.180000       12.0110           0
      5480 MEMB     42       POPC     H4R      HAL2     0.900000E-01   1.00800           0
      5481 MEMB     42       POPC     H4S      HAL2     0.900000E-01   1.00800           0
      5482 MEMB     42       POPC     C25      CTL2    -0.180000       12.0110           0
      5483 MEMB     42       POPC     H5R      HAL2     0.900000E-01   1.00800           0
      5484 MEMB     42       POPC     H5S      HAL2     0.900000E-01   1.00800           0
      5485 MEMB     42       POPC     C26      CTL2    -0.180000       12.0110           0
      5486 MEMB     42       POPC     H6R      HAL2     0.900000E-01   1.00800           0
      5487 MEMB     42       POPC     H6S      HAL2     0.900000E-01   1.00800           0
      5488 MEMB     42       POPC     C27      CTL2    -0.180000       12.0110           0
      5489 MEMB     42       POPC     H7R      HAL2     0.900000E-01   1.00800           0
      5490 MEMB     42       POPC     H7S      HAL2     0.900000E-01   1.00800           0
      5491 MEMB     42       POPC     C28      CTL2    -0.180000       12.0110           0
      5492 MEMB     42       POPC     H8R      HAL2     0.900000E-01   1.00800           0
      5493 MEMB     42       POPC     H8S      HAL2     0.900000E-01   1.00800           0
      5494 MEMB     42       POPC     C29      CEL1    -0.150000       12.0110           0
      5495 MEMB     42       POPC     H91      HEL1     0.150000       1.00800           0
      5496 MEMB     42       POPC     C210     CEL1    -0.150000       12.0110           0
      5497 MEMB     42       POPC     H101     HEL1     0.150000       1.00800           0
      5498 MEMB     42       POPC     C211     CTL2    -0.180000       12.0110           0
      5499 MEMB     42       POPC     H11R     HAL2     0.900000E-01   1.00800           0
      5500 MEMB     42       POPC     H11S     HAL2     0.900000E-01   1.00800           0
      5501 MEMB     42       POPC     C212     CTL2    -0.180000       12.0110           0
      5502 MEMB     42       POPC     H12R     HAL2     0.900000E-01   1.00800           0
      5503 MEMB     42       POPC     H12S     HAL2     0.900000E-01   1.00800           0
      5504 MEMB     42       POPC     C213     CTL2    -0.180000       12.0110           0
      5505 MEMB     42       POPC     H13R     HAL2     0.900000E-01   1.00800           0
      5506 MEMB     42       POPC     H13S     HAL2     0.900000E-01   1.00800           0
      5507 MEMB     42       POPC     C214     CTL2    -0.180000       12.0110           0
      5508 MEMB     42       POPC     H14R     HAL2     0.900000E-01   1.00800           0
      5509 MEMB     42       POPC     H14S     HAL2     0.900000E-01   1.00800           0
      5510 MEMB     42       POPC     C215     CTL2    -0.180000       12.0110           0
      5511 MEMB     42       POPC     H15R     HAL2     0.900000E-01   1.00800           0
      5512 MEMB     42       POPC     H15S     HAL2     0.900000E-01   1.00800           0
      5513 MEMB     42       POPC     C216     CTL2    -0.180000       12.0110           0
      5514 MEMB     42       POPC     H16R     HAL2     0.900000E-01   1.00800           0
      5515 MEMB     42       POPC     H16S     HAL2     0.900000E-01   1.00800           0
      5516 MEMB     42       POPC     C217     CTL2    -0.180000       12.0110           0
      5517 MEMB     42       POPC     H17R     HAL2     0.900000E-01   1.00800           0
      5518 MEMB     42       POPC     H17S     HAL2     0.900000E-01   1.00800           0
      5519 MEMB     42       POPC     C218     CTL3    -0.270000       12.0110           0
      5520 MEMB     42       POPC     H18R     HAL3     0.900000E-01   1.00800           0
      5521 MEMB     42       POPC     H18S     HAL3     0.900000E-01   1.00800           0
      5522 MEMB     42       POPC     H18T     HAL3     0.900000E-01   1.00800           0
      5523 MEMB     42       POPC     C33      CTL2    -0.180000       12.0110           0
      5524 MEMB     42       POPC     H3X      HAL2     0.900000E-01   1.00800           0
      5525 MEMB     42       POPC     H3Y      HAL2     0.900000E-01   1.00800           0
      5526 MEMB     42       POPC     C34      CTL2    -0.180000       12.0110           0
      5527 MEMB     42       POPC     H4X      HAL2     0.900000E-01   1.00800           0
      5528 MEMB     42       POPC     H4Y      HAL2     0.900000E-01   1.00800           0
      5529 MEMB     42       POPC     C35      CTL2    -0.180000       12.0110           0
      5530 MEMB     42       POPC     H5X      HAL2     0.900000E-01   1.00800           0
      5531 MEMB     42       POPC     H5Y      HAL2     0.900000E-01   1.00800           0
      5532 MEMB     42       POPC     C36      CTL2    -0.180000       12.0110           0
      5533 MEMB     42       POPC     H6X      HAL2     0.900000E-01   1.00800           0
      5534 MEMB     42       POPC     H6Y      HAL2     0.900000E-01   1.00800           0
      5535 MEMB     42       POPC     C37      CTL2    -0.180000       12.0110           0
      5536 MEMB     42       POPC     H7X      HAL2     0.900000E-01   1.00800           0
      5537 MEMB     42       POPC     H7Y      HAL2     0.900000E-01   1.00800           0
      5538 MEMB     42       POPC     C38      CTL2    -0.180000       12.0110           0
      5539 MEMB     42       POPC     H8X      HAL2     0.900000E-01   1.00800           0
      5540 MEMB     42       POPC     H8Y      HAL2     0.900000E-01   1.00800           0
      5541 MEMB     42       POPC     C39      CTL2    -0.180000       12.0110           0
      5542 MEMB     42       POPC     H9X      HAL2     0.900000E-01   1.00800           0
      5543 MEMB     42       POPC     H9Y      HAL2     0.900000E-01   1.00800           0
      5544 MEMB     42       POPC     C310     CTL2    -0.180000       12.0110           0
      5545 MEMB     42       POPC     H10X     HAL2     0.900000E-01   1.00800           0
      5546 MEMB     42       POPC     H10Y     HAL2     0.900000E-01   1.00800           0
      5547 MEMB     42       POPC     C311     CTL2    -0.180000       12.0110           0
      5548 MEMB     42       POPC     H11X     HAL2     0.900000E-01   1.00800           0
      5549 MEMB     42       POPC     H11Y     HAL2     0.900000E-01   1.00800           0
      5550 MEMB     42       POPC     C312     CTL2    -0.180000       12.0110           0
      5551 MEMB     42       POPC     H12X     HAL2     0.900000E-01   1.00800           0
      5552 MEMB     42       POPC     H12Y     HAL2     0.900000E-01   1.00800           0
      5553 MEMB     42       POPC     C313     CTL2    -0.180000       12.0110           0
      5554 MEMB     42       POPC     H13X     HAL2     0.900000E-01   1.00800           0
      5555 MEMB     42       POPC     H13Y     HAL2     0.900000E-01   1.00800           0
      5556 MEMB     42       POPC     C314     CTL2    -0.180000       12.0110           0
      5557 MEMB     42       POPC     H14X     HAL2     0.900000E-01   1.00800           0
      5558 MEMB     42       POPC     H14Y     HAL2     0.900000E-01   1.00800           0
      5559 MEMB     42       POPC     C315     CTL2    -0.180000       12.0110           0
      5560 MEMB     42       POPC     H15X     HAL2     0.900000E-01   1.00800           0
      5561 MEMB     42       POPC     H15Y     HAL2     0.900000E-01   1.00800           0
      5562 MEMB     42       POPC     C316     CTL3    -0.270000       12.0110           0
      5563 MEMB     42       POPC     H16X     HAL3     0.900000E-01   1.00800           0
      5564 MEMB     42       POPC     H16Y     HAL3     0.900000E-01   1.00800           0
      5565 MEMB     42       POPC     H16Z     HAL3     0.900000E-01   1.00800           0
      5566 MEMB     43       POPC     N        NTL     -0.600000       14.0070           0
      5567 MEMB     43       POPC     C12      CTL2    -0.100000       12.0110           0
      5568 MEMB     43       POPC     H12A     HL       0.250000       1.00800           0
      5569 MEMB     43       POPC     H12B     HL       0.250000       1.00800           0
      5570 MEMB     43       POPC     C13      CTL5    -0.350000       12.0110           0
      5571 MEMB     43       POPC     H13A     HL       0.250000       1.00800           0
      5572 MEMB     43       POPC     H13B     HL       0.250000       1.00800           0
      5573 MEMB     43       POPC     H13C     HL       0.250000       1.00800           0
      5574 MEMB     43       POPC     C14      CTL5    -0.350000       12.0110           0
      5575 MEMB     43       POPC     H14A     HL       0.250000       1.00800           0
      5576 MEMB     43       POPC     H14B     HL       0.250000       1.00800           0
      5577 MEMB     43       POPC     H14C     HL       0.250000       1.00800           0
      5578 MEMB     43       POPC     C15      CTL5    -0.350000       12.0110           0
      5579 MEMB     43       POPC     H15A     HL       0.250000       1.00800           0
      5580 MEMB     43       POPC     H15B     HL       0.250000       1.00800           0
      5581 MEMB     43       POPC     H15C     HL       0.250000       1.00800           0
      5582 MEMB     43       POPC     C11      CTL2    -0.800000E-01   12.0110           0
      5583 MEMB     43       POPC     H11A     HAL2     0.900000E-01   1.00800           0
      5584 MEMB     43       POPC     H11B     HAL2     0.900000E-01   1.00800           0
      5585 MEMB     43       POPC     P        PL        1.50000       30.9740           0
      5586 MEMB     43       POPC     O13      O2L     -0.780000       15.9994           0
      5587 MEMB     43       POPC     O14      O2L     -0.780000       15.9994           0
      5588 MEMB     43       POPC     O12      OSLP    -0.570000       15.9994           0
      5589 MEMB     43       POPC     O11      OSLP    -0.570000       15.9994           0
      5590 MEMB     43       POPC     C1       CTL2    -0.800000E-01   12.0110           0
      5591 MEMB     43       POPC     HA       HAL2     0.900000E-01   1.00800           0
      5592 MEMB     43       POPC     HB       HAL2     0.900000E-01   1.00800           0
      5593 MEMB     43       POPC     C2       CTL1     0.170000       12.0110           0
      5594 MEMB     43       POPC     HS       HAL1     0.900000E-01   1.00800           0
      5595 MEMB     43       POPC     O21      OSL     -0.490000       15.9994           0
      5596 MEMB     43       POPC     C21      CL       0.900000       12.0110           0
      5597 MEMB     43       POPC     O22      OBL     -0.630000       15.9994           0
      5598 MEMB     43       POPC     C22      CTL2    -0.220000       12.0110           0
      5599 MEMB     43       POPC     H2R      HAL2     0.900000E-01   1.00800           0
      5600 MEMB     43       POPC     H2S      HAL2     0.900000E-01   1.00800           0
      5601 MEMB     43       POPC     C3       CTL2     0.800000E-01   12.0110           0
      5602 MEMB     43       POPC     HX       HAL2     0.900000E-01   1.00800           0
      5603 MEMB     43       POPC     HY       HAL2     0.900000E-01   1.00800           0
      5604 MEMB     43       POPC     O31      OSL     -0.490000       15.9994           0
      5605 MEMB     43       POPC     C31      CL       0.900000       12.0110           0
      5606 MEMB     43       POPC     O32      OBL     -0.630000       15.9994           0
      5607 MEMB     43       POPC     C32      CTL2    -0.220000       12.0110           0
      5608 MEMB     43       POPC     H2X      HAL2     0.900000E-01   1.00800           0
      5609 MEMB     43       POPC     H2Y      HAL2     0.900000E-01   1.00800           0
      5610 MEMB     43       POPC     C23      CTL2    -0.180000       12.0110           0
      5611 MEMB     43       POPC     H3R      HAL2     0.900000E-01   1.00800           0
      5612 MEMB     43       POPC     H3S      HAL2     0.900000E-01   1.00800           0
      5613 MEMB     43       POPC     C24      CTL2    -0.180000       12.0110           0
      5614 MEMB     43       POPC     H4R      HAL2     0.900000E-01   1.00800           0
      5615 MEMB     43       POPC     H4S      HAL2     0.900000E-01   1.00800           0
      5616 MEMB     43       POPC     C25      CTL2    -0.180000       12.0110           0
      5617 MEMB     43       POPC     H5R      HAL2     0.900000E-01   1.00800           0
      5618 MEMB     43       POPC     H5S      HAL2     0.900000E-01   1.00800           0
      5619 MEMB     43       POPC     C26      CTL2    -0.180000       12.0110           0
      5620 MEMB     43       POPC     H6R      HAL2     0.900000E-01   1.00800           0
      5621 MEMB     43       POPC     H6S      HAL2     0.900000E-01   1.00800           0
      5622 MEMB     43       POPC     C27      CTL2    -0.180000       12.0110           0
      5623 MEMB     43       POPC     H7R      HAL2     0.900000E-01   1.00800           0
      5624 MEMB     43       POPC     H7S      HAL2     0.900000E-01   1.00800           0
      5625 MEMB     43       POPC     C28      CTL2    -0.180000       12.0110           0
      5626 MEMB     43       POPC     H8R      HAL2     0.900000E-01   1.00800           0
      5627 MEMB     43       POPC     H8S      HAL2     0.900000E-01   1.00800           0
      5628 MEMB     43       POPC     C29      CEL1    -0.150000       12.0110           0
      5629 MEMB     43       POPC     H91      HEL1     0.150000       1.00800           0
      5630 MEMB     43       POPC     C210     CEL1    -0.150000       12.0110           0
      5631 MEMB     43       POPC     H101     HEL1     0.150000       1.00800           0
      5632 MEMB     43       POPC     C211     CTL2    -0.180000       12.0110           0
      5633 MEMB     43       POPC     H11R     HAL2     0.900000E-01   1.00800           0
      5634 MEMB     43       POPC     H11S     HAL2     0.900000E-01   1.00800           0
      5635 MEMB     43       POPC     C212     CTL2    -0.180000       12.0110           0
      5636 MEMB     43       POPC     H12R     HAL2     0.900000E-01   1.00800           0
      5637 MEMB     43       POPC     H12S     HAL2     0.900000E-01   1.00800           0
      5638 MEMB     43       POPC     C213     CTL2    -0.180000       12.0110           0
      5639 MEMB     43       POPC     H13R     HAL2     0.900000E-01   1.00800           0
      5640 MEMB     43       POPC     H13S     HAL2     0.900000E-01   1.00800           0
      5641 MEMB     43       POPC     C214     CTL2    -0.180000       12.0110           0
      5642 MEMB     43       POPC     H14R     HAL2     0.900000E-01   1.00800           0
      5643 MEMB     43       POPC     H14S     HAL2     0.900000E-01   1.00800           0
      5644 MEMB     43       POPC     C215     CTL2    -0.180000       12.0110           0
      5645 MEMB     43       POPC     H15R     HAL2     0.900000E-01   1.00800           0
      5646 MEMB     43       POPC     H15S     HAL2     0.900000E-01   1.00800           0
      5647 MEMB     43       POPC     C216     CTL2    -0.180000       12.0110           0
      5648 MEMB     43       POPC     H16R     HAL2     0.900000E-01   1.00800           0
      5649 MEMB     43       POPC     H16S     HAL2     0.900000E-01   1.00800           0
      5650 MEMB     43       POPC     C217     CTL2    -0.180000       12.0110           0
      5651 MEMB     43       POPC     H17R     HAL2     0.900000E-01   1.00800           0
      5652 MEMB     43       POPC     H17S     HAL2     0.900000E-01   1.00800           0
      5653 MEMB     43       POPC     C218     CTL3    -0.270000       12.0110           0
      5654 MEMB     43       POPC     H18R     HAL3     0.900000E-01   1.00800           0
      5655 MEMB     43       POPC     H18S     HAL3     0.900000E-01   1.00800           0
      5656 MEMB     43       POPC     H18T     HAL3     0.900000E-01   1.00800           0
      5657 MEMB     43       POPC     C33      CTL2    -0.180000       12.0110           0
      5658 MEMB     43       POPC     H3X      HAL2     0.900000E-01   1.00800           0
      5659 MEMB     43       POPC     H3Y      HAL2     0.900000E-01   1.00800           0
      5660 MEMB     43       POPC     C34      CTL2    -0.180000       12.0110           0
      5661 MEMB     43       POPC     H4X      HAL2     0.900000E-01   1.00800           0
      5662 MEMB     43       POPC     H4Y      HAL2     0.900000E-01   1.00800           0
      5663 MEMB     43       POPC     C35      CTL2    -0.180000       12.0110           0
      5664 MEMB     43       POPC     H5X      HAL2     0.900000E-01   1.00800           0
      5665 MEMB     43       POPC     H5Y      HAL2     0.900000E-01   1.00800           0
      5666 MEMB     43       POPC     C36      CTL2    -0.180000       12.0110           0
      5667 MEMB     43       POPC     H6X      HAL2     0.900000E-01   1.00800           0
      5668 MEMB     43       POPC     H6Y      HAL2     0.900000E-01   1.00800           0
      5669 MEMB     43       POPC     C37      CTL2    -0.180000       12.0110           0
      5670 MEMB     43       POPC     H7X      HAL2     0.900000E-01   1.00800           0
      5671 MEMB     43       POPC     H7Y      HAL2     0.900000E-01   1.00800           0
      5672 MEMB     43       POPC     C38      CTL2    -0.180000       12.0110           0
      5673 MEMB     43       POPC     H8X      HAL2     0.900000E-01   1.00800           0
      5674 MEMB     43       POPC     H8Y      HAL2     0.900000E-01   1.00800           0
      5675 MEMB     43       POPC     C39      CTL2    -0.180000       12.0110           0
      5676 MEMB     43       POPC     H9X      HAL2     0.900000E-01   1.00800           0
      5677 MEMB     43       POPC     H9Y      HAL2     0.900000E-01   1.00800           0
      5678 MEMB     43       POPC     C310     CTL2    -0.180000       12.0110           0
      5679 MEMB     43       POPC     H10X     HAL2     0.900000E-01   1.00800           0
      5680 MEMB     43       POPC     H10Y     HAL2     0.900000E-01   1.00800           0
      5681 MEMB     43       POPC     C311     CTL2    -0.180000       12.0110           0
      5682 MEMB     43       POPC     H11X     HAL2     0.900000E-01   1.00800           0
      5683 MEMB     43       POPC     H11Y     HAL2     0.900000E-01   1.00800           0
      5684 MEMB     43       POPC     C312     CTL2    -0.180000       12.0110           0
      5685 MEMB     43       POPC     H12X     HAL2     0.900000E-01   1.00800           0
      5686 MEMB     43       POPC     H12Y     HAL2     0.900000E-01   1.00800           0
      5687 MEMB     43       POPC     C313     CTL2    -0.180000       12.0110           0
      5688 MEMB     43       POPC     H13X     HAL2     0.900000E-01   1.00800           0
      5689 MEMB     43       POPC     H13Y     HAL2     0.900000E-01   1.00800           0
      5690 MEMB     43       POPC     C314     CTL2    -0.180000       12.0110           0
      5691 MEMB     43       POPC     H14X     HAL2     0.900000E-01   1.00800           0
      5692 MEMB     43       POPC     H14Y     HAL2     0.900000E-01   1.00800           0
      5693 MEMB     43       POPC     C315     CTL2    -0.180000       12.0110           0
      5694 MEMB     43       POPC     H15X     HAL2     0.900000E-01   1.00800           0
      5695 MEMB     43       POPC     H15Y     HAL2     0.900000E-01   1.00800           0
      5696 MEMB     43       POPC     C316     CTL3    -0.270000       12.0110           0
      5697 MEMB     43       POPC     H16X     HAL3     0.900000E-01   1.00800           0
      5698 MEMB     43       POPC     H16Y     HAL3     0.900000E-01   1.00800           0
      5699 MEMB     43       POPC     H16Z     HAL3     0.900000E-01   1.00800           0
      5700 MEMB     44       POPC     N        NTL     -0.600000       14.0070           0
      5701 MEMB     44       POPC     C12      CTL2    -0.100000       12.0110           0
      5702 MEMB     44       POPC     H12A     HL       0.250000       1.00800           0
      5703 MEMB     44       POPC     H12B     HL       0.250000       1.00800           0
      5704 MEMB     44       POPC     C13      CTL5    -0.350000       12.0110           0
      5705 MEMB     44       POPC     H13A     HL       0.250000       1.00800           0
      5706 MEMB     44       POPC     H13B     HL       0.250000       1.00800           0
      5707 MEMB     44       POPC     H13C     HL       0.250000       1.00800           0
      5708 MEMB     44       POPC     C14      CTL5    -0.350000       12.0110           0
      5709 MEMB     44       POPC     H14A     HL       0.250000       1.00800           0
      5710 MEMB     44       POPC     H14B     HL       0.250000       1.00800           0
      5711 MEMB     44       POPC     H14C     HL       0.250000       1.00800           0
      5712 MEMB     44       POPC     C15      CTL5    -0.350000       12.0110           0
      5713 MEMB     44       POPC     H15A     HL       0.250000       1.00800           0
      5714 MEMB     44       POPC     H15B     HL       0.250000       1.00800           0
      5715 MEMB     44       POPC     H15C     HL       0.250000       1.00800           0
      5716 MEMB     44       POPC     C11      CTL2    -0.800000E-01   12.0110           0
      5717 MEMB     44       POPC     H11A     HAL2     0.900000E-01   1.00800           0
      5718 MEMB     44       POPC     H11B     HAL2     0.900000E-01   1.00800           0
      5719 MEMB     44       POPC     P        PL        1.50000       30.9740           0
      5720 MEMB     44       POPC     O13      O2L     -0.780000       15.9994           0
      5721 MEMB     44       POPC     O14      O2L     -0.780000       15.9994           0
      5722 MEMB     44       POPC     O12      OSLP    -0.570000       15.9994           0
      5723 MEMB     44       POPC     O11      OSLP    -0.570000       15.9994           0
      5724 MEMB     44       POPC     C1       CTL2    -0.800000E-01   12.0110           0
      5725 MEMB     44       POPC     HA       HAL2     0.900000E-01   1.00800           0
      5726 MEMB     44       POPC     HB       HAL2     0.900000E-01   1.00800           0
      5727 MEMB     44       POPC     C2       CTL1     0.170000       12.0110           0
      5728 MEMB     44       POPC     HS       HAL1     0.900000E-01   1.00800           0
      5729 MEMB     44       POPC     O21      OSL     -0.490000       15.9994           0
      5730 MEMB     44       POPC     C21      CL       0.900000       12.0110           0
      5731 MEMB     44       POPC     O22      OBL     -0.630000       15.9994           0
      5732 MEMB     44       POPC     C22      CTL2    -0.220000       12.0110           0
      5733 MEMB     44       POPC     H2R      HAL2     0.900000E-01   1.00800           0
      5734 MEMB     44       POPC     H2S      HAL2     0.900000E-01   1.00800           0
      5735 MEMB     44       POPC     C3       CTL2     0.800000E-01   12.0110           0
      5736 MEMB     44       POPC     HX       HAL2     0.900000E-01   1.00800           0
      5737 MEMB     44       POPC     HY       HAL2     0.900000E-01   1.00800           0
      5738 MEMB     44       POPC     O31      OSL     -0.490000       15.9994           0
      5739 MEMB     44       POPC     C31      CL       0.900000       12.0110           0
      5740 MEMB     44       POPC     O32      OBL     -0.630000       15.9994           0
      5741 MEMB     44       POPC     C32      CTL2    -0.220000       12.0110           0
      5742 MEMB     44       POPC     H2X      HAL2     0.900000E-01   1.00800           0
      5743 MEMB     44       POPC     H2Y      HAL2     0.900000E-01   1.00800           0
      5744 MEMB     44       POPC     C23      CTL2    -0.180000       12.0110           0
      5745 MEMB     44       POPC     H3R      HAL2     0.900000E-01   1.00800           0
      5746 MEMB     44       POPC     H3S      HAL2     0.900000E-01   1.00800           0
      5747 MEMB     44       POPC     C24      CTL2    -0.180000       12.0110           0
      5748 MEMB     44       POPC     H4R      HAL2     0.900000E-01   1.00800           0
      5749 MEMB     44       POPC     H4S      HAL2     0.900000E-01   1.00800           0
      5750 MEMB     44       POPC     C25      CTL2    -0.180000       12.0110           0
      5751 MEMB     44       POPC     H5R      HAL2     0.900000E-01   1.00800           0
      5752 MEMB     44       POPC     H5S      HAL2     0.900000E-01   1.00800           0
      5753 MEMB     44       POPC     C26      CTL2    -0.180000       12.0110           0
      5754 MEMB     44       POPC     H6R      HAL2     0.900000E-01   1.00800           0
      5755 MEMB     44       POPC     H6S      HAL2     0.900000E-01   1.00800           0
      5756 MEMB     44       POPC     C27      CTL2    -0.180000       12.0110           0
      5757 MEMB     44       POPC     H7R      HAL2     0.900000E-01   1.00800           0
      5758 MEMB     44       POPC     H7S      HAL2     0.900000E-01   1.00800           0
      5759 MEMB     44       POPC     C28      CTL2    -0.180000       12.0110           0
      5760 MEMB     44       POPC     H8R      HAL2     0.900000E-01   1.00800           0
      5761 MEMB     44       POPC     H8S      HAL2     0.900000E-01   1.00800           0
      5762 MEMB     44       POPC     C29      CEL1    -0.150000       12.0110           0
      5763 MEMB     44       POPC     H91      HEL1     0.150000       1.00800           0
      5764 MEMB     44       POPC     C210     CEL1    -0.150000       12.0110           0
      5765 MEMB     44       POPC     H101     HEL1     0.150000       1.00800           0
      5766 MEMB     44       POPC     C211     CTL2    -0.180000       12.0110           0
      5767 MEMB     44       POPC     H11R     HAL2     0.900000E-01   1.00800           0
      5768 MEMB     44       POPC     H11S     HAL2     0.900000E-01   1.00800           0
      5769 MEMB     44       POPC     C212     CTL2    -0.180000       12.0110           0
      5770 MEMB     44       POPC     H12R     HAL2     0.900000E-01   1.00800           0
      5771 MEMB     44       POPC     H12S     HAL2     0.900000E-01   1.00800           0
      5772 MEMB     44       POPC     C213     CTL2    -0.180000       12.0110           0
      5773 MEMB     44       POPC     H13R     HAL2     0.900000E-01   1.00800           0
      5774 MEMB     44       POPC     H13S     HAL2     0.900000E-01   1.00800           0
      5775 MEMB     44       POPC     C214     CTL2    -0.180000       12.0110           0
      5776 MEMB     44       POPC     H14R     HAL2     0.900000E-01   1.00800           0
      5777 MEMB     44       POPC     H14S     HAL2     0.900000E-01   1.00800           0
      5778 MEMB     44       POPC     C215     CTL2    -0.180000       12.0110           0
      5779 MEMB     44       POPC     H15R     HAL2     0.900000E-01   1.00800           0
      5780 MEMB     44       POPC     H15S     HAL2     0.900000E-01   1.00800           0
      5781 MEMB     44       POPC     C216     CTL2    -0.180000       12.0110           0
      5782 MEMB     44       POPC     H16R     HAL2     0.900000E-01   1.00800           0
      5783 MEMB     44       POPC     H16S     HAL2     0.900000E-01   1.00800           0
      5784 MEMB     44       POPC     C217     CTL2    -0.180000       12.0110           0
      5785 MEMB     44       POPC     H17R     HAL2     0.900000E-01   1.00800           0
      5786 MEMB     44       POPC     H17S     HAL2     0.900000E-01   1.00800           0
      5787 MEMB     44       POPC     C218     CTL3    -0.270000       12.0110           0
      5788 MEMB     44       POPC     H18R     HAL3     0.900000E-01   1.00800           0
      5789 MEMB     44       POPC     H18S     HAL3     0.900000E-01   1.00800           0
      5790 MEMB     44       POPC     H18T     HAL3     0.900000E-01   1.00800           0
      5791 MEMB     44       POPC     C33      CTL2    -0.180000       12.0110           0
      5792 MEMB     44       POPC     H3X      HAL2     0.900000E-01   1.00800           0
      5793 MEMB     44       POPC     H3Y      HAL2     0.900000E-01   1.00800           0
      5794 MEMB     44       POPC     C34      CTL2    -0.180000       12.0110           0
      5795 MEMB     44       POPC     H4X      HAL2     0.900000E-01   1.00800           0
      5796 MEMB     44       POPC     H4Y      HAL2     0.900000E-01   1.00800           0
      5797 MEMB     44       POPC     C35      CTL2    -0.180000       12.0110           0
      5798 MEMB     44       POPC     H5X      HAL2     0.900000E-01   1.00800           0
      5799 MEMB     44       POPC     H5Y      HAL2     0.900000E-01   1.00800           0
      5800 MEMB     44       POPC     C36      CTL2    -0.180000       12.0110           0
      5801 MEMB     44       POPC     H6X      HAL2     0.900000E-01   1.00800           0
      5802 MEMB     44       POPC     H6Y      HAL2     0.900000E-01   1.00800           0
      5803 MEMB     44       POPC     C37      CTL2    -0.180000       12.0110           0
      5804 MEMB     44       POPC     H7X      HAL2     0.900000E-01   1.00800           0
      5805 MEMB     44       POPC     H7Y      HAL2     0.900000E-01   1.00800           0
      5806 MEMB     44       POPC     C38      CTL2    -0.180000       12.0110           0
      5807 MEMB     44       POPC     H8X      HAL2     0.900000E-01   1.00800           0
      5808 MEMB     44       POPC     H8Y      HAL2     0.900000E-01   1.00800           0
      5809 MEMB     44       POPC     C39      CTL2    -0.180000       12.0110           0
      5810 MEMB     44       POPC     H9X      HAL2     0.900000E-01   1.00800           0
      5811 MEMB     44       POPC     H9Y      HAL2     0.900000E-01   1.00800           0
      5812 MEMB     44       POPC     C310     CTL2    -0.180000       12.0110           0
      5813 MEMB     44       POPC     H10X     HAL2     0.900000E-01   1.00800           0
      5814 MEMB     44       POPC     H10Y     HAL2     0.900000E-01   1.00800           0
      5815 MEMB     44       POPC     C311     CTL2    -0.180000       12.0110           0
      5816 MEMB     44       POPC     H11X     HAL2     0.900000E-01   1.00800           0
      5817 MEMB     44       POPC     H11Y     HAL2     0.900000E-01   1.00800           0
      5818 MEMB     44       POPC     C312     CTL2    -0.180000       12.0110           0
      5819 MEMB     44       POPC     H12X     HAL2     0.900000E-01   1.00800           0
      5820 MEMB     44       POPC     H12Y     HAL2     0.900000E-01   1.00800           0
      5821 MEMB     44       POPC     C313     CTL2    -0.180000       12.0110           0
      5822 MEMB     44       POPC     H13X     HAL2     0.900000E-01   1.00800           0
      5823 MEMB     44       POPC     H13Y     HAL2     0.900000E-01   1.00800           0
      5824 MEMB     44       POPC     C314     CTL2    -0.180000       12.0110           0
      5825 MEMB     44       POPC     H14X     HAL2     0.900000E-01   1.00800           0
      5826 MEMB     44       POPC     H14Y     HAL2     0.900000E-01   1.00800           0
      5827 MEMB     44       POPC     C315     CTL2    -0.180000       12.0110           0
      5828 MEMB     44       POPC     H15X     HAL2     0.900000E-01   1.00800           0
      5829 MEMB     44       POPC     H15Y     HAL2     0.900000E-01   1.00800           0
      5830 MEMB     44       POPC     C316     CTL3    -0.270000       12.0110           0
      5831 MEMB     44       POPC     H16X     HAL3     0.900000E-01   1.00800           0
      5832 MEMB     44       POPC     H16Y     HAL3     0.900000E-01   1.00800           0
      5833 MEMB     44       POPC     H16Z     HAL3     0.900000E-01   1.00800           0
      5834 MEMB     45       POPC     N        NTL     -0.600000       14.0070           0
      5835 MEMB     45       POPC     C12      CTL2    -0.100000       12.0110           0
      5836 MEMB     45       POPC     H12A     HL       0.250000       1.00800           0
      5837 MEMB     45       POPC     H12B     HL       0.250000       1.00800           0
      5838 MEMB     45       POPC     C13      CTL5    -0.350000       12.0110           0
      5839 MEMB     45       POPC     H13A     HL       0.250000       1.00800           0
      5840 MEMB     45       POPC     H13B     HL       0.250000       1.00800           0
      5841 MEMB     45       POPC     H13C     HL       0.250000       1.00800           0
      5842 MEMB     45       POPC     C14      CTL5    -0.350000       12.0110           0
      5843 MEMB     45       POPC     H14A     HL       0.250000       1.00800           0
      5844 MEMB     45       POPC     H14B     HL       0.250000       1.00800           0
      5845 MEMB     45       POPC     H14C     HL       0.250000       1.00800           0
      5846 MEMB     45       POPC     C15      CTL5    -0.350000       12.0110           0
      5847 MEMB     45       POPC     H15A     HL       0.250000       1.00800           0
      5848 MEMB     45       POPC     H15B     HL       0.250000       1.00800           0
      5849 MEMB     45       POPC     H15C     HL       0.250000       1.00800           0
      5850 MEMB     45       POPC     C11      CTL2    -0.800000E-01   12.0110           0
      5851 MEMB     45       POPC     H11A     HAL2     0.900000E-01   1.00800           0
      5852 MEMB     45       POPC     H11B     HAL2     0.900000E-01   1.00800           0
      5853 MEMB     45       POPC     P        PL        1.50000       30.9740           0
      5854 MEMB     45       POPC     O13      O2L     -0.780000       15.9994           0
      5855 MEMB     45       POPC     O14      O2L     -0.780000       15.9994           0
      5856 MEMB     45       POPC     O12      OSLP    -0.570000       15.9994           0
      5857 MEMB     45       POPC     O11      OSLP    -0.570000       15.9994           0
      5858 MEMB     45       POPC     C1       CTL2    -0.800000E-01   12.0110           0
      5859 MEMB     45       POPC     HA       HAL2     0.900000E-01   1.00800           0
      5860 MEMB     45       POPC     HB       HAL2     0.900000E-01   1.00800           0
      5861 MEMB     45       POPC     C2       CTL1     0.170000       12.0110           0
      5862 MEMB     45       POPC     HS       HAL1     0.900000E-01   1.00800           0
      5863 MEMB     45       POPC     O21      OSL     -0.490000       15.9994           0
      5864 MEMB     45       POPC     C21      CL       0.900000       12.0110           0
      5865 MEMB     45       POPC     O22      OBL     -0.630000       15.9994           0
      5866 MEMB     45       POPC     C22      CTL2    -0.220000       12.0110           0
      5867 MEMB     45       POPC     H2R      HAL2     0.900000E-01   1.00800           0
      5868 MEMB     45       POPC     H2S      HAL2     0.900000E-01   1.00800           0
      5869 MEMB     45       POPC     C3       CTL2     0.800000E-01   12.0110           0
      5870 MEMB     45       POPC     HX       HAL2     0.900000E-01   1.00800           0
      5871 MEMB     45       POPC     HY       HAL2     0.900000E-01   1.00800           0
      5872 MEMB     45       POPC     O31      OSL     -0.490000       15.9994           0
      5873 MEMB     45       POPC     C31      CL       0.900000       12.0110           0
      5874 MEMB     45       POPC     O32      OBL     -0.630000       15.9994           0
      5875 MEMB     45       POPC     C32      CTL2    -0.220000       12.0110           0
      5876 MEMB     45       POPC     H2X      HAL2     0.900000E-01   1.00800           0
      5877 MEMB     45       POPC     H2Y      HAL2     0.900000E-01   1.00800           0
      5878 MEMB     45       POPC     C23      CTL2    -0.180000       12.0110           0
      5879 MEMB     45       POPC     H3R      HAL2     0.900000E-01   1.00800           0
      5880 MEMB     45       POPC     H3S      HAL2     0.900000E-01   1.00800           0
      5881 MEMB     45       POPC     C24      CTL2    -0.180000       12.0110           0
      5882 MEMB     45       POPC     H4R      HAL2     0.900000E-01   1.00800           0
      5883 MEMB     45       POPC     H4S      HAL2     0.900000E-01   1.00800           0
      5884 MEMB     45       POPC     C25      CTL2    -0.180000       12.0110           0
      5885 MEMB     45       POPC     H5R      HAL2     0.900000E-01   1.00800           0
      5886 MEMB     45       POPC     H5S      HAL2     0.900000E-01   1.00800           0
      5887 MEMB     45       POPC     C26      CTL2    -0.180000       12.0110           0
      5888 MEMB     45       POPC     H6R      HAL2     0.900000E-01   1.00800           0
      5889 MEMB     45       POPC     H6S      HAL2     0.900000E-01   1.00800           0
      5890 MEMB     45       POPC     C27      CTL2    -0.180000       12.0110           0
      5891 MEMB     45       POPC     H7R      HAL2     0.900000E-01   1.00800           0
      5892 MEMB     45       POPC     H7S      HAL2     0.900000E-01   1.00800           0
      5893 MEMB     45       POPC     C28      CTL2    -0.180000       12.0110           0
      5894 MEMB     45       POPC     H8R      HAL2     0.900000E-01   1.00800           0
      5895 MEMB     45       POPC     H8S      HAL2     0.900000E-01   1.00800           0
      5896 MEMB     45       POPC     C29      CEL1    -0.150000       12.0110           0
      5897 MEMB     45       POPC     H91      HEL1     0.150000       1.00800           0
      5898 MEMB     45       POPC     C210     CEL1    -0.150000       12.0110           0
      5899 MEMB     45       POPC     H101     HEL1     0.150000       1.00800           0
      5900 MEMB     45       POPC     C211     CTL2    -0.180000       12.0110           0
      5901 MEMB     45       POPC     H11R     HAL2     0.900000E-01   1.00800           0
      5902 MEMB     45       POPC     H11S     HAL2     0.900000E-01   1.00800           0
      5903 MEMB     45       POPC     C212     CTL2    -0.180000       12.0110           0
      5904 MEMB     45       POPC     H12R     HAL2     0.900000E-01   1.00800           0
      5905 MEMB     45       POPC     H12S     HAL2     0.900000E-01   1.00800           0
      5906 MEMB     45       POPC     C213     CTL2    -0.180000       12.0110           0
      5907 MEMB     45       POPC     H13R     HAL2     0.900000E-01   1.00800           0
      5908 MEMB     45       POPC     H13S     HAL2     0.900000E-01   1.00800           0
      5909 MEMB     45       POPC     C214     CTL2    -0.180000       12.0110           0
      5910 MEMB     45       POPC     H14R     HAL2     0.900000E-01   1.00800           0
      5911 MEMB     45       POPC     H14S     HAL2     0.900000E-01   1.00800           0
      5912 MEMB     45       POPC     C215     CTL2    -0.180000       12.0110           0
      5913 MEMB     45       POPC     H15R     HAL2     0.900000E-01   1.00800           0
      5914 MEMB     45       POPC     H15S     HAL2     0.900000E-01   1.00800           0
      5915 MEMB     45       POPC     C216     CTL2    -0.180000       12.0110           0
      5916 MEMB     45       POPC     H16R     HAL2     0.900000E-01   1.00800           0
      5917 MEMB     45       POPC     H16S     HAL2     0.900000E-01   1.00800           0
      5918 MEMB     45       POPC     C217     CTL2    -0.180000       12.0110           0
      5919 MEMB     45       POPC     H17R     HAL2     0.900000E-01   1.00800           0
      5920 MEMB     45       POPC     H17S     HAL2     0.900000E-01   1.00800           0
      5921 MEMB     45       POPC     C218     CTL3    -0.270000       12.0110           0
      5922 MEMB     45       POPC     H18R     HAL3     0.900000E-01   1.00800           0
      5923 MEMB     45       POPC     H18S     HAL3     0.900000E-01   1.00800           0
      5924 MEMB     45       POPC     H18T     HAL3     0.900000E-01   1.00800           0
      5925 MEMB     45       POPC     C33      CTL2    -0.180000       12.0110           0
      5926 MEMB     45       POPC     H3X      HAL2     0.900000E-01   1.00800           0
      5927 MEMB     45       POPC     H3Y      HAL2     0.900000E-01   1.00800           0
      5928 MEMB     45       POPC     C34      CTL2    -0.180000       12.0110           0
      5929 MEMB     45       POPC     H4X      HAL2     0.900000E-01   1.00800           0
      5930 MEMB     45       POPC     H4Y      HAL2     0.900000E-01   1.00800           0
      5931 MEMB     45       POPC     C35      CTL2    -0.180000       12.0110           0
      5932 MEMB     45       POPC     H5X      HAL2     0.900000E-01   1.00800           0
      5933 MEMB     45       POPC     H5Y      HAL2     0.900000E-01   1.00800           0
      5934 MEMB     45       POPC     C36      CTL2    -0.180000       12.0110           0
      5935 MEMB     45       POPC     H6X      HAL2     0.900000E-01   1.00800           0
      5936 MEMB     45       POPC     H6Y      HAL2     0.900000E-01   1.00800           0
      5937 MEMB     45       POPC     C37      CTL2    -0.180000       12.0110           0
      5938 MEMB     45       POPC     H7X      HAL2     0.900000E-01   1.00800           0
      5939 MEMB     45       POPC     H7Y      HAL2     0.900000E-01   1.00800           0
      5940 MEMB     45       POPC     C38      CTL2    -0.180000       12.0110           0
      5941 MEMB     45       POPC     H8X      HAL2     0.900000E-01   1.00800           0
      5942 MEMB     45       POPC     H8Y      HAL2     0.900000E-01   1.00800           0
      5943 MEMB     45       POPC     C39      CTL2    -0.180000       12.0110           0
      5944 MEMB     45       POPC     H9X      HAL2     0.900000E-01   1.00800           0
      5945 MEMB     45       POPC     H9Y      HAL2     0.900000E-01   1.00800           0
      5946 MEMB     45       POPC     C310     CTL2    -0.180000       12.0110           0
      5947 MEMB     45       POPC     H10X     HAL2     0.900000E-01   1.00800           0
      5948 MEMB     45       POPC     H10Y     HAL2     0.900000E-01   1.00800           0
      5949 MEMB     45       POPC     C311     CTL2    -0.180000       12.0110           0
      5950 MEMB     45       POPC     H11X     HAL2     0.900000E-01   1.00800           0
      5951 MEMB     45       POPC     H11Y     HAL2     0.900000E-01   1.00800           0
      5952 MEMB     45       POPC     C312     CTL2    -0.180000       12.0110           0
      5953 MEMB     45       POPC     H12X     HAL2     0.900000E-01   1.00800           0
      5954 MEMB     45       POPC     H12Y     HAL2     0.900000E-01   1.00800           0
      5955 MEMB     45       POPC     C313     CTL2    -0.180000       12.0110           0
      5956 MEMB     45       POPC     H13X     HAL2     0.900000E-01   1.00800           0
      5957 MEMB     45       POPC     H13Y     HAL2     0.900000E-01   1.00800           0
      5958 MEMB     45       POPC     C314     CTL2    -0.180000       12.0110           0
      5959 MEMB     45       POPC     H14X     HAL2     0.900000E-01   1.00800           0
      5960 MEMB     45       POPC     H14Y     HAL2     0.900000E-01   1.00800           0
      5961 MEMB     45       POPC     C315     CTL2    -0.180000       12.0110           0
      5962 MEMB     45       POPC     H15X     HAL2     0.900000E-01   1.00800           0
      5963 MEMB     45       POPC     H15Y     HAL2     0.900000E-01   1.00800           0
      5964 MEMB     45       POPC     C316     CTL3    -0.270000       12.0110           0
      5965 MEMB     45       POPC     H16X     HAL3     0.900000E-01   1.00800           0
      5966 MEMB     45       POPC     H16Y     HAL3     0.900000E-01   1.00800           0
      5967 MEMB     45       POPC     H16Z     HAL3     0.900000E-01   1.00800           0
      5968 MEMB     46       POPC     N        NTL     -0.600000       14.0070           0
      5969 MEMB     46       POPC     C12      CTL2    -0.100000       12.0110           0
      5970 MEMB     46       POPC     H12A     HL       0.250000       1.00800           0
      5971 MEMB     46       POPC     H12B     HL       0.250000       1.00800           0
      5972 MEMB     46       POPC     C13      CTL5    -0.350000       12.0110           0
      5973 MEMB     46       POPC     H13A     HL       0.250000       1.00800           0
      5974 MEMB     46       POPC     H13B     HL       0.250000       1.00800           0
      5975 MEMB     46       POPC     H13C     HL       0.250000       1.00800           0
      5976 MEMB     46       POPC     C14      CTL5    -0.350000       12.0110           0
      5977 MEMB     46       POPC     H14A     HL       0.250000       1.00800           0
      5978 MEMB     46       POPC     H14B     HL       0.250000       1.00800           0
      5979 MEMB     46       POPC     H14C     HL       0.250000       1.00800           0
      5980 MEMB     46       POPC     C15      CTL5    -0.350000       12.0110           0
      5981 MEMB     46       POPC     H15A     HL       0.250000       1.00800           0
      5982 MEMB     46       POPC     H15B     HL       0.250000       1.00800           0
      5983 MEMB     46       POPC     H15C     HL       0.250000       1.00800           0
      5984 MEMB     46       POPC     C11      CTL2    -0.800000E-01   12.0110           0
      5985 MEMB     46       POPC     H11A     HAL2     0.900000E-01   1.00800           0
      5986 MEMB     46       POPC     H11B     HAL2     0.900000E-01   1.00800           0
      5987 MEMB     46       POPC     P        PL        1.50000       30.9740           0
      5988 MEMB     46       POPC     O13      O2L     -0.780000       15.9994           0
      5989 MEMB     46       POPC     O14      O2L     -0.780000       15.9994           0
      5990 MEMB     46       POPC     O12      OSLP    -0.570000       15.9994           0
      5991 MEMB     46       POPC     O11      OSLP    -0.570000       15.9994           0
      5992 MEMB     46       POPC     C1       CTL2    -0.800000E-01   12.0110           0
      5993 MEMB     46       POPC     HA       HAL2     0.900000E-01   1.00800           0
      5994 MEMB     46       POPC     HB       HAL2     0.900000E-01   1.00800           0
      5995 MEMB     46       POPC     C2       CTL1     0.170000       12.0110           0
      5996 MEMB     46       POPC     HS       HAL1     0.900000E-01   1.00800           0
      5997 MEMB     46       POPC     O21      OSL     -0.490000       15.9994           0
      5998 MEMB     46       POPC     C21      CL       0.900000       12.0110           0
      5999 MEMB     46       POPC     O22      OBL     -0.630000       15.9994           0
      6000 MEMB     46       POPC     C22      CTL2    -0.220000       12.0110           0
      6001 MEMB     46       POPC     H2R      HAL2     0.900000E-01   1.00800           0
      6002 MEMB     46       POPC     H2S      HAL2     0.900000E-01   1.00800           0
      6003 MEMB     46       POPC     C3       CTL2     0.800000E-01   12.0110           0
      6004 MEMB     46       POPC     HX       HAL2     0.900000E-01   1.00800           0
      6005 MEMB     46       POPC     HY       HAL2     0.900000E-01   1.00800           0
      6006 MEMB     46       POPC     O31      OSL     -0.490000       15.9994           0
      6007 MEMB     46       POPC     C31      CL       0.900000       12.0110           0
      6008 MEMB     46       POPC     O32      OBL     -0.630000       15.9994           0
      6009 MEMB     46       POPC     C32      CTL2    -0.220000       12.0110           0
      6010 MEMB     46       POPC     H2X      HAL2     0.900000E-01   1.00800           0
      6011 MEMB     46       POPC     H2Y      HAL2     0.900000E-01   1.00800           0
      6012 MEMB     46       POPC     C23      CTL2    -0.180000       12.0110           0
      6013 MEMB     46       POPC     H3R      HAL2     0.900000E-01   1.00800           0
      6014 MEMB     46       POPC     H3S      HAL2     0.900000E-01   1.00800           0
      6015 MEMB     46       POPC     C24      CTL2    -0.180000       12.0110           0
      6016 MEMB     46       POPC     H4R      HAL2     0.900000E-01   1.00800           0
      6017 MEMB     46       POPC     H4S      HAL2     0.900000E-01   1.00800           0
      6018 MEMB     46       POPC     C25      CTL2    -0.180000       12.0110           0
      6019 MEMB     46       POPC     H5R      HAL2     0.900000E-01   1.00800           0
      6020 MEMB     46       POPC     H5S      HAL2     0.900000E-01   1.00800           0
      6021 MEMB     46       POPC     C26      CTL2    -0.180000       12.0110           0
      6022 MEMB     46       POPC     H6R      HAL2     0.900000E-01   1.00800           0
      6023 MEMB     46       POPC     H6S      HAL2     0.900000E-01   1.00800           0
      6024 MEMB     46       POPC     C27      CTL2    -0.180000       12.0110           0
      6025 MEMB     46       POPC     H7R      HAL2     0.900000E-01   1.00800           0
      6026 MEMB     46       POPC     H7S      HAL2     0.900000E-01   1.00800           0
      6027 MEMB     46       POPC     C28      CTL2    -0.180000       12.0110           0
      6028 MEMB     46       POPC     H8R      HAL2     0.900000E-01   1.00800           0
      6029 MEMB     46       POPC     H8S      HAL2     0.900000E-01   1.00800           0
      6030 MEMB     46       POPC     C29      CEL1    -0.150000       12.0110           0
      6031 MEMB     46       POPC     H91      HEL1     0.150000       1.00800           0
      6032 MEMB     46       POPC     C210     CEL1    -0.150000       12.0110           0
      6033 MEMB     46       POPC     H101     HEL1     0.150000       1.00800           0
      6034 MEMB     46       POPC     C211     CTL2    -0.180000       12.0110           0
      6035 MEMB     46       POPC     H11R     HAL2     0.900000E-01   1.00800           0
      6036 MEMB     46       POPC     H11S     HAL2     0.900000E-01   1.00800           0
      6037 MEMB     46       POPC     C212     CTL2    -0.180000       12.0110           0
      6038 MEMB     46       POPC     H12R     HAL2     0.900000E-01   1.00800           0
      6039 MEMB     46       POPC     H12S     HAL2     0.900000E-01   1.00800           0
      6040 MEMB     46       POPC     C213     CTL2    -0.180000       12.0110           0
      6041 MEMB     46       POPC     H13R     HAL2     0.900000E-01   1.00800           0
      6042 MEMB     46       POPC     H13S     HAL2     0.900000E-01   1.00800           0
      6043 MEMB     46       POPC     C214     CTL2    -0.180000       12.0110           0
      6044 MEMB     46       POPC     H14R     HAL2     0.900000E-01   1.00800           0
      6045 MEMB     46       POPC     H14S     HAL2     0.900000E-01   1.00800           0
      6046 MEMB     46       POPC     C215     CTL2    -0.180000       12.0110           0
      6047 MEMB     46       POPC     H15R     HAL2     0.900000E-01   1.00800           0
      6048 MEMB     46       POPC     H15S     HAL2     0.900000E-01   1.00800           0
      6049 MEMB     46       POPC     C216     CTL2    -0.180000       12.0110           0
      6050 MEMB     46       POPC     H16R     HAL2     0.900000E-01   1.00800           0
      6051 MEMB     46       POPC     H16S     HAL2     0.900000E-01   1.00800           0
      6052 MEMB     46       POPC     C217     CTL2    -0.180000       12.0110           0
      6053 MEMB     46       POPC     H17R     HAL2     0.900000E-01   1.00800           0
      6054 MEMB     46       POPC     H17S     HAL2     0.900000E-01   1.00800           0
      6055 MEMB     46       POPC     C218     CTL3    -0.270000       12.0110           0
      6056 MEMB     46       POPC     H18R     HAL3     0.900000E-01   1.00800           0
      6057 MEMB     46       POPC     H18S     HAL3     0.900000E-01   1.00800           0
      6058 MEMB     46       POPC     H18T     HAL3     0.900000E-01   1.00800           0
      6059 MEMB     46       POPC     C33      CTL2    -0.180000       12.0110           0
      6060 MEMB     46       POPC     H3X      HAL2     0.900000E-01   1.00800           0
      6061 MEMB     46       POPC     H3Y      HAL2     0.900000E-01   1.00800           0
      6062 MEMB     46       POPC     C34      CTL2    -0.180000       12.0110           0
      6063 MEMB     46       POPC     H4X      HAL2     0.900000E-01   1.00800           0
      6064 MEMB     46       POPC     H4Y      HAL2     0.900000E-01   1.00800           0
      6065 MEMB     46       POPC     C35      CTL2    -0.180000       12.0110           0
      6066 MEMB     46       POPC     H5X      HAL2     0.900000E-01   1.00800           0
      6067 MEMB     46       POPC     H5Y      HAL2     0.900000E-01   1.00800           0
      6068 MEMB     46       POPC     C36      CTL2    -0.180000       12.0110           0
      6069 MEMB     46       POPC     H6X      HAL2     0.900000E-01   1.00800           0
      6070 MEMB     46       POPC     H6Y      HAL2     0.900000E-01   1.00800           0
      6071 MEMB     46       POPC     C37      CTL2    -0.180000       12.0110           0
      6072 MEMB     46       POPC     H7X      HAL2     0.900000E-01   1.00800           0
      6073 MEMB     46       POPC     H7Y      HAL2     0.900000E-01   1.00800           0
      6074 MEMB     46       POPC     C38      CTL2    -0.180000       12.0110           0
      6075 MEMB     46       POPC     H8X      HAL2     0.900000E-01   1.00800           0
      6076 MEMB     46       POPC     H8Y      HAL2     0.900000E-01   1.00800           0
      6077 MEMB     46       POPC     C39      CTL2    -0.180000       12.0110           0
      6078 MEMB     46       POPC     H9X      HAL2     0.900000E-01   1.00800           0
      6079 MEMB     46       POPC     H9Y      HAL2     0.900000E-01   1.00800           0
      6080 MEMB     46       POPC     C310     CTL2    -0.180000       12.0110           0
      6081 MEMB     46       POPC     H10X     HAL2     0.900000E-01   1.00800           0
      6082 MEMB     46       POPC     H10Y     HAL2     0.900000E-01   1.00800           0
      6083 MEMB     46       POPC     C311     CTL2    -0.180000       12.0110           0
      6084 MEMB     46       POPC     H11X     HAL2     0.900000E-01   1.00800           0
      6085 MEMB     46       POPC     H11Y     HAL2     0.900000E-01   1.00800           0
      6086 MEMB     46       POPC     C312     CTL2    -0.180000       12.0110           0
      6087 MEMB     46       POPC     H12X     HAL2     0.900000E-01   1.00800           0
      6088 MEMB     46       POPC     H12Y     HAL2     0.900000E-01   1.00800           0
      6089 MEMB     46       POPC     C313     CTL2    -0.180000       12.0110           0
      6090 MEMB     46       POPC     H13X     HAL2     0.900000E-01   1.00800           0
      6091 MEMB     46       POPC     H13Y     HAL2     0.900000E-01   1.00800           0
      6092 MEMB     46       POPC     C314     CTL2    -0.180000       12.0110           0
      6093 MEMB     46       POPC     H14X     HAL2     0.900000E-01   1.00800           0
      6094 MEMB     46       POPC     H14Y     HAL2     0.900000E-01   1.00800           0
      6095 MEMB     46       POPC     C315     CTL2    -0.180000       12.0110           0
      6096 MEMB     46       POPC     H15X     HAL2     0.900000E-01   1.00800           0
      6097 MEMB     46       POPC     H15Y     HAL2     0.900000E-01   1.00800           0
      6098 MEMB     46       POPC     C316     CTL3    -0.270000       12.0110           0
      6099 MEMB     46       POPC     H16X     HAL3     0.900000E-01   1.00800           0
      6100 MEMB     46       POPC     H16Y     HAL3     0.900000E-01   1.00800           0
      6101 MEMB     46       POPC     H16Z     HAL3     0.900000E-01   1.00800           0
      6102 MEMB     47       POPC     N        NTL     -0.600000       14.0070           0
      6103 MEMB     47       POPC     C12      CTL2    -0.100000       12.0110           0
      6104 MEMB     47       POPC     H12A     HL       0.250000       1.00800           0
      6105 MEMB     47       POPC     H12B     HL       0.250000       1.00800           0
      6106 MEMB     47       POPC     C13      CTL5    -0.350000       12.0110           0
      6107 MEMB     47       POPC     H13A     HL       0.250000       1.00800           0
      6108 MEMB     47       POPC     H13B     HL       0.250000       1.00800           0
      6109 MEMB     47       POPC     H13C     HL       0.250000       1.00800           0
      6110 MEMB     47       POPC     C14      CTL5    -0.350000       12.0110           0
      6111 MEMB     47       POPC     H14A     HL       0.250000       1.00800           0
      6112 MEMB     47       POPC     H14B     HL       0.250000       1.00800           0
      6113 MEMB     47       POPC     H14C     HL       0.250000       1.00800           0
      6114 MEMB     47       POPC     C15      CTL5    -0.350000       12.0110           0
      6115 MEMB     47       POPC     H15A     HL       0.250000       1.00800           0
      6116 MEMB     47       POPC     H15B     HL       0.250000       1.00800           0
      6117 MEMB     47       POPC     H15C     HL       0.250000       1.00800           0
      6118 MEMB     47       POPC     C11      CTL2    -0.800000E-01   12.0110           0
      6119 MEMB     47       POPC     H11A     HAL2     0.900000E-01   1.00800           0
      6120 MEMB     47       POPC     H11B     HAL2     0.900000E-01   1.00800           0
      6121 MEMB     47       POPC     P        PL        1.50000       30.9740           0
      6122 MEMB     47       POPC     O13      O2L     -0.780000       15.9994           0
      6123 MEMB     47       POPC     O14      O2L     -0.780000       15.9994           0
      6124 MEMB     47       POPC     O12      OSLP    -0.570000       15.9994           0
      6125 MEMB     47       POPC     O11      OSLP    -0.570000       15.9994           0
      6126 MEMB     47       POPC     C1       CTL2    -0.800000E-01   12.0110           0
      6127 MEMB     47       POPC     HA       HAL2     0.900000E-01   1.00800           0
      6128 MEMB     47       POPC     HB       HAL2     0.900000E-01   1.00800           0
      6129 MEMB     47       POPC     C2       CTL1     0.170000       12.0110           0
      6130 MEMB     47       POPC     HS       HAL1     0.900000E-01   1.00800           0
      6131 MEMB     47       POPC     O21      OSL     -0.490000       15.9994           0
      6132 MEMB     47       POPC     C21      CL       0.900000       12.0110           0
      6133 MEMB     47       POPC     O22      OBL     -0.630000       15.9994           0
      6134 MEMB     47       POPC     C22      CTL2    -0.220000       12.0110           0
      6135 MEMB     47       POPC     H2R      HAL2     0.900000E-01   1.00800           0
      6136 MEMB     47       POPC     H2S      HAL2     0.900000E-01   1.00800           0
      6137 MEMB     47       POPC     C3       CTL2     0.800000E-01   12.0110           0
      6138 MEMB     47       POPC     HX       HAL2     0.900000E-01   1.00800           0
      6139 MEMB     47       POPC     HY       HAL2     0.900000E-01   1.00800           0
      6140 MEMB     47       POPC     O31      OSL     -0.490000       15.9994           0
      6141 MEMB     47       POPC     C31      CL       0.900000       12.0110           0
      6142 MEMB     47       POPC     O32      OBL     -0.630000       15.9994           0
      6143 MEMB     47       POPC     C32      CTL2    -0.220000       12.0110           0
      6144 MEMB     47       POPC     H2X      HAL2     0.900000E-01   1.00800           0
      6145 MEMB     47       POPC     H2Y      HAL2     0.900000E-01   1.00800           0
      6146 MEMB     47       POPC     C23      CTL2    -0.180000       12.0110           0
      6147 MEMB     47       POPC     H3R      HAL2     0.900000E-01   1.00800           0
      6148 MEMB     47       POPC     H3S      HAL2     0.900000E-01   1.00800           0
      6149 MEMB     47       POPC     C24      CTL2    -0.180000       12.0110           0
      6150 MEMB     47       POPC     H4R      HAL2     0.900000E-01   1.00800           0
      6151 MEMB     47       POPC     H4S      HAL2     0.900000E-01   1.00800           0
      6152 MEMB     47       POPC     C25      CTL2    -0.180000       12.0110           0
      6153 MEMB     47       POPC     H5R      HAL2     0.900000E-01   1.00800           0
      6154 MEMB     47       POPC     H5S      HAL2     0.900000E-01   1.00800           0
      6155 MEMB     47       POPC     C26      CTL2    -0.180000       12.0110           0
      6156 MEMB     47       POPC     H6R      HAL2     0.900000E-01   1.00800           0
      6157 MEMB     47       POPC     H6S      HAL2     0.900000E-01   1.00800           0
      6158 MEMB     47       POPC     C27      CTL2    -0.180000       12.0110           0
      6159 MEMB     47       POPC     H7R      HAL2     0.900000E-01   1.00800           0
      6160 MEMB     47       POPC     H7S      HAL2     0.900000E-01   1.00800           0
      6161 MEMB     47       POPC     C28      CTL2    -0.180000       12.0110           0
      6162 MEMB     47       POPC     H8R      HAL2     0.900000E-01   1.00800           0
      6163 MEMB     47       POPC     H8S      HAL2     0.900000E-01   1.00800           0
      6164 MEMB     47       POPC     C29      CEL1    -0.150000       12.0110           0
      6165 MEMB     47       POPC     H91      HEL1     0.150000       1.00800           0
      6166 MEMB     47       POPC     C210     CEL1    -0.150000       12.0110           0
      6167 MEMB     47       POPC     H101     HEL1     0.150000       1.00800           0
      6168 MEMB     47       POPC     C211     CTL2    -0.180000       12.0110           0
      6169 MEMB     47       POPC     H11R     HAL2     0.900000E-01   1.00800           0
      6170 MEMB     47       POPC     H11S     HAL2     0.900000E-01   1.00800           0
      6171 MEMB     47       POPC     C212     CTL2    -0.180000       12.0110           0
      6172 MEMB     47       POPC     H12R     HAL2     0.900000E-01   1.00800           0
      6173 MEMB     47       POPC     H12S     HAL2     0.900000E-01   1.00800           0
      6174 MEMB     47       POPC     C213     CTL2    -0.180000       12.0110           0
      6175 MEMB     47       POPC     H13R     HAL2     0.900000E-01   1.00800           0
      6176 MEMB     47       POPC     H13S     HAL2     0.900000E-01   1.00800           0
      6177 MEMB     47       POPC     C214     CTL2    -0.180000       12.0110           0
      6178 MEMB     47       POPC     H14R     HAL2     0.900000E-01   1.00800           0
      6179 MEMB     47       POPC     H14S     HAL2     0.900000E-01   1.00800           0
      6180 MEMB     47       POPC     C215     CTL2    -0.180000       12.0110           0
      6181 MEMB     47       POPC     H15R     HAL2     0.900000E-01   1.00800           0
      6182 MEMB     47       POPC     H15S     HAL2     0.900000E-01   1.00800           0
      6183 MEMB     47       POPC     C216     CTL2    -0.180000       12.0110           0
      6184 MEMB     47       POPC     H16R     HAL2     0.900000E-01   1.00800           0
      6185 MEMB     47       POPC     H16S     HAL2     0.900000E-01   1.00800           0
      6186 MEMB     47       POPC     C217     CTL2    -0.180000       12.0110           0
      6187 MEMB     47       POPC     H17R     HAL2     0.900000E-01   1.00800           0
      6188 MEMB     47       POPC     H17S     HAL2     0.900000E-01   1.00800           0
      6189 MEMB     47       POPC     C218     CTL3    -0.270000       12.0110           0
      6190 MEMB     47       POPC     H18R     HAL3     0.900000E-01   1.00800           0
      6191 MEMB     47       POPC     H18S     HAL3     0.900000E-01   1.00800           0
      6192 MEMB     47       POPC     H18T     HAL3     0.900000E-01   1.00800           0
      6193 MEMB     47       POPC     C33      CTL2    -0.180000       12.0110           0
      6194 MEMB     47       POPC     H3X      HAL2     0.900000E-01   1.00800           0
      6195 MEMB     47       POPC     H3Y      HAL2     0.900000E-01   1.00800           0
      6196 MEMB     47       POPC     C34      CTL2    -0.180000       12.0110           0
      6197 MEMB     47       POPC     H4X      HAL2     0.900000E-01   1.00800           0
      6198 MEMB     47       POPC     H4Y      HAL2     0.900000E-01   1.00800           0
      6199 MEMB     47       POPC     C35      CTL2    -0.180000       12.0110           0
      6200 MEMB     47       POPC     H5X      HAL2     0.900000E-01   1.00800           0
      6201 MEMB     47       POPC     H5Y      HAL2     0.900000E-01   1.00800           0
      6202 MEMB     47       POPC     C36      CTL2    -0.180000       12.0110           0
      6203 MEMB     47       POPC     H6X      HAL2     0.900000E-01   1.00800           0
      6204 MEMB     47       POPC     H6Y      HAL2     0.900000E-01   1.00800           0
      6205 MEMB     47       POPC     C37      CTL2    -0.180000       12.0110           0
      6206 MEMB     47       POPC     H7X      HAL2     0.900000E-01   1.00800           0
      6207 MEMB     47       POPC     H7Y      HAL2     0.900000E-01   1.00800           0
      6208 MEMB     47       POPC     C38      CTL2    -0.180000       12.0110           0
      6209 MEMB     47       POPC     H8X      HAL2     0.900000E-01   1.00800           0
      6210 MEMB     47       POPC     H8Y      HAL2     0.900000E-01   1.00800           0
      6211 MEMB     47       POPC     C39      CTL2    -0.180000       12.0110           0
      6212 MEMB     47       POPC     H9X      HAL2     0.900000E-01   1.00800           0
      6213 MEMB     47       POPC     H9Y      HAL2     0.900000E-01   1.00800           0
      6214 MEMB     47       POPC     C310     CTL2    -0.180000       12.0110           0
      6215 MEMB     47       POPC     H10X     HAL2     0.900000E-01   1.00800           0
      6216 MEMB     47       POPC     H10Y     HAL2     0.900000E-01   1.00800           0
      6217 MEMB     47       POPC     C311     CTL2    -0.180000       12.0110           0
      6218 MEMB     47       POPC     H11X     HAL2     0.900000E-01   1.00800           0
      6219 MEMB     47       POPC     H11Y     HAL2     0.900000E-01   1.00800           0
      6220 MEMB     47       POPC     C312     CTL2    -0.180000       12.0110           0
      6221 MEMB     47       POPC     H12X     HAL2     0.900000E-01   1.00800           0
      6222 MEMB     47       POPC     H12Y     HAL2     0.900000E-01   1.00800           0
      6223 MEMB     47       POPC     C313     CTL2    -0.180000       12.0110           0
      6224 MEMB     47       POPC     H13X     HAL2     0.900000E-01   1.00800           0
      6225 MEMB     47       POPC     H13Y     HAL2     0.900000E-01   1.00800           0
      6226 MEMB     47       POPC     C314     CTL2    -0.180000       12.0110           0
      6227 MEMB     47       POPC     H14X     HAL2     0.900000E-01   1.00800           0
      6228 MEMB     47       POPC     H14Y     HAL2     0.900000E-01   1.00800           0
      6229 MEMB     47       POPC     C315     CTL2    -0.180000       12.0110           0
      6230 MEMB     47       POPC     H15X     HAL2     0.900000E-01   1.00800           0
      6231 MEMB     47       POPC     H15Y     HAL2     0.900000E-01   1.00800           0
      6232 MEMB     47       POPC     C316     CTL3    -0.270000       12.0110           0
      6233 MEMB     47       POPC     H16X     HAL3     0.900000E-01   1.00800           0
      6234 MEMB     47       POPC     H16Y     HAL3     0.900000E-01   1.00800           0
      6235 MEMB     47       POPC     H16Z     HAL3     0.900000E-01   1.00800           0
      6236 MEMB     48       POPC     N        NTL     -0.600000       14.0070           0
      6237 MEMB     48       POPC     C12      CTL2    -0.100000       12.0110           0
      6238 MEMB     48       POPC     H12A     HL       0.250000       1.00800           0
      6239 MEMB     48       POPC     H12B     HL       0.250000       1.00800           0
      6240 MEMB     48       POPC     C13      CTL5    -0.350000       12.0110           0
      6241 MEMB     48       POPC     H13A     HL       0.250000       1.00800           0
      6242 MEMB     48       POPC     H13B     HL       0.250000       1.00800           0
      6243 MEMB     48       POPC     H13C     HL       0.250000       1.00800           0
      6244 MEMB     48       POPC     C14      CTL5    -0.350000       12.0110           0
      6245 MEMB     48       POPC     H14A     HL       0.250000       1.00800           0
      6246 MEMB     48       POPC     H14B     HL       0.250000       1.00800           0
      6247 MEMB     48       POPC     H14C     HL       0.250000       1.00800           0
      6248 MEMB     48       POPC     C15      CTL5    -0.350000       12.0110           0
      6249 MEMB     48       POPC     H15A     HL       0.250000       1.00800           0
      6250 MEMB     48       POPC     H15B     HL       0.250000       1.00800           0
      6251 MEMB     48       POPC     H15C     HL       0.250000       1.00800           0
      6252 MEMB     48       POPC     C11      CTL2    -0.800000E-01   12.0110           0
      6253 MEMB     48       POPC     H11A     HAL2     0.900000E-01   1.00800           0
      6254 MEMB     48       POPC     H11B     HAL2     0.900000E-01   1.00800           0
      6255 MEMB     48       POPC     P        PL        1.50000       30.9740           0
      6256 MEMB     48       POPC     O13      O2L     -0.780000       15.9994           0
      6257 MEMB     48       POPC     O14      O2L     -0.780000       15.9994           0
      6258 MEMB     48       POPC     O12      OSLP    -0.570000       15.9994           0
      6259 MEMB     48       POPC     O11      OSLP    -0.570000       15.9994           0
      6260 MEMB     48       POPC     C1       CTL2    -0.800000E-01   12.0110           0
      6261 MEMB     48       POPC     HA       HAL2     0.900000E-01   1.00800           0
      6262 MEMB     48       POPC     HB       HAL2     0.900000E-01   1.00800           0
      6263 MEMB     48       POPC     C2       CTL1     0.170000       12.0110           0
      6264 MEMB     48       POPC     HS       HAL1     0.900000E-01   1.00800           0
      6265 MEMB     48       POPC     O21      OSL     -0.490000       15.9994           0
      6266 MEMB     48       POPC     C21      CL       0.900000       12.0110           0
      6267 MEMB     48       POPC     O22      OBL     -0.630000       15.9994           0
      6268 MEMB     48       POPC     C22      CTL2    -0.220000       12.0110           0
      6269 MEMB     48       POPC     H2R      HAL2     0.900000E-01   1.00800           0
      6270 MEMB     48       POPC     H2S      HAL2     0.900000E-01   1.00800           0
      6271 MEMB     48       POPC     C3       CTL2     0.800000E-01   12.0110           0
      6272 MEMB     48       POPC     HX       HAL2     0.900000E-01   1.00800           0
      6273 MEMB     48       POPC     HY       HAL2     0.900000E-01   1.00800           0
      6274 MEMB     48       POPC     O31      OSL     -0.490000       15.9994           0
      6275 MEMB     48       POPC     C31      CL       0.900000       12.0110           0
      6276 MEMB     48       POPC     O32      OBL     -0.630000       15.9994           0
      6277 MEMB     48       POPC     C32      CTL2    -0.220000       12.0110           0
      6278 MEMB     48       POPC     H2X      HAL2     0.900000E-01   1.00800           0
      6279 MEMB     48       POPC     H2Y      HAL2     0.900000E-01   1.00800           0
      6280 MEMB     48       POPC     C23      CTL2    -0.180000       12.0110           0
      6281 MEMB     48       POPC     H3R      HAL2     0.900000E-01   1.00800           0
      6282 MEMB     48       POPC     H3S      HAL2     0.900000E-01   1.00800           0
      6283 MEMB     48       POPC     C24      CTL2    -0.180000       12.0110           0
      6284 MEMB     48       POPC     H4R      HAL2     0.900000E-01   1.00800           0
      6285 MEMB     48       POPC     H4S      HAL2     0.900000E-01   1.00800           0
      6286 MEMB     48       POPC     C25      CTL2    -0.180000       12.0110           0
      6287 MEMB     48       POPC     H5R      HAL2     0.900000E-01   1.00800           0
      6288 MEMB     48       POPC     H5S      HAL2     0.900000E-01   1.00800           0
      6289 MEMB     48       POPC     C26      CTL2    -0.180000       12.0110           0
      6290 MEMB     48       POPC     H6R      HAL2     0.900000E-01   1.00800           0
      6291 MEMB     48       POPC     H6S      HAL2     0.900000E-01   1.00800           0
      6292 MEMB     48       POPC     C27      CTL2    -0.180000       12.0110           0
      6293 MEMB     48       POPC     H7R      HAL2     0.900000E-01   1.00800           0
      6294 MEMB     48       POPC     H7S      HAL2     0.900000E-01   1.00800           0
      6295 MEMB     48       POPC     C28      CTL2    -0.180000       12.0110           0
      6296 MEMB     48       POPC     H8R      HAL2     0.900000E-01   1.00800           0
      6297 MEMB     48       POPC     H8S      HAL2     0.900000E-01   1.00800           0
      6298 MEMB     48       POPC     C29      CEL1    -0.150000       12.0110           0
      6299 MEMB     48       POPC     H91      HEL1     0.150000       1.00800           0
      6300 MEMB     48       POPC     C210     CEL1    -0.150000       12.0110           0
      6301 MEMB     48       POPC     H101     HEL1     0.150000       1.00800           0
      6302 MEMB     48       POPC     C211     CTL2    -0.180000       12.0110           0
      6303 MEMB     48       POPC     H11R     HAL2     0.900000E-01   1.00800           0
      6304 MEMB     48       POPC     H11S     HAL2     0.900000E-01   1.00800           0
      6305 MEMB     48       POPC     C212     CTL2    -0.180000       12.0110           0
      6306 MEMB     48       POPC     H12R     HAL2     0.900000E-01   1.00800           0
      6307 MEMB     48       POPC     H12S     HAL2     0.900000E-01   1.00800           0
      6308 MEMB     48       POPC     C213     CTL2    -0.180000       12.0110           0
      6309 MEMB     48       POPC     H13R     HAL2     0.900000E-01   1.00800           0
      6310 MEMB     48       POPC     H13S     HAL2     0.900000E-01   1.00800           0
      6311 MEMB     48       POPC     C214     CTL2    -0.180000       12.0110           0
      6312 MEMB     48       POPC     H14R     HAL2     0.900000E-01   1.00800           0
      6313 MEMB     48       POPC     H14S     HAL2     0.900000E-01   1.00800           0
      6314 MEMB     48       POPC     C215     CTL2    -0.180000       12.0110           0
      6315 MEMB     48       POPC     H15R     HAL2     0.900000E-01   1.00800           0
      6316 MEMB     48       POPC     H15S     HAL2     0.900000E-01   1.00800           0
      6317 MEMB     48       POPC     C216     CTL2    -0.180000       12.0110           0
      6318 MEMB     48       POPC     H16R     HAL2     0.900000E-01   1.00800           0
      6319 MEMB     48       POPC     H16S     HAL2     0.900000E-01   1.00800           0
      6320 MEMB     48       POPC     C217     CTL2    -0.180000       12.0110           0
      6321 MEMB     48       POPC     H17R     HAL2     0.900000E-01   1.00800           0
      6322 MEMB     48       POPC     H17S     HAL2     0.900000E-01   1.00800           0
      6323 MEMB     48       POPC     C218     CTL3    -0.270000       12.0110           0
      6324 MEMB     48       POPC     H18R     HAL3     0.900000E-01   1.00800           0
      6325 MEMB     48       POPC     H18S     HAL3     0.900000E-01   1.00800           0
      6326 MEMB     48       POPC     H18T     HAL3     0.900000E-01   1.00800           0
      6327 MEMB     48       POPC     C33      CTL2    -0.180000       12.0110           0
      6328 MEMB     48       POPC     H3X      HAL2     0.900000E-01   1.00800           0
      6329 MEMB     48       POPC     H3Y      HAL2     0.900000E-01   1.00800           0
      6330 MEMB     48       POPC     C34      CTL2    -0.180000       12.0110           0
      6331 MEMB     48       POPC     H4X      HAL2     0.900000E-01   1.00800           0
      6332 MEMB     48       POPC     H4Y      HAL2     0.900000E-01   1.00800           0
      6333 MEMB     48       POPC     C35      CTL2    -0.180000       12.0110           0
      6334 MEMB     48       POPC     H5X      HAL2     0.900000E-01   1.00800           0
      6335 MEMB     48       POPC     H5Y      HAL2     0.900000E-01   1.00800           0
      6336 MEMB     48       POPC     C36      CTL2    -0.180000       12.0110           0
      6337 MEMB     48       POPC     H6X      HAL2     0.900000E-01   1.00800           0
      6338 MEMB     48       POPC     H6Y      HAL2     0.900000E-01   1.00800           0
      6339 MEMB     48       POPC     C37      CTL2    -0.180000       12.0110           0
      6340 MEMB     48       POPC     H7X      HAL2     0.900000E-01   1.00800           0
      6341 MEMB     48       POPC     H7Y      HAL2     0.900000E-01   1.00800           0
      6342 MEMB     48       POPC     C38      CTL2    -0.180000       12.0110           0
      6343 MEMB     48       POPC     H8X      HAL2     0.900000E-01   1.00800           0
      6344 MEMB     48       POPC     H8Y      HAL2     0.900000E-01   1.00800           0
      6345 MEMB     48       POPC     C39      CTL2    -0.180000       12.0110           0
      6346 MEMB     48       POPC     H9X      HAL2     0.900000E-01   1.00800           0
      6347 MEMB     48       POPC     H9Y      HAL2     0.900000E-01   1.00800           0
      6348 MEMB     48       POPC     C310     CTL2    -0.180000       12.0110           0
      6349 MEMB     48       POPC     H10X     HAL2     0.900000E-01   1.00800           0
      6350 MEMB     48       POPC     H10Y     HAL2     0.900000E-01   1.00800           0
      6351 MEMB     48       POPC     C311     CTL2    -0.180000       12.0110           0
      6352 MEMB     48       POPC     H11X     HAL2     0.900000E-01   1.00800           0
      6353 MEMB     48       POPC     H11Y     HAL2     0.900000E-01   1.00800           0
      6354 MEMB     48       POPC     C312     CTL2    -0.180000       12.0110           0
      6355 MEMB     48       POPC     H12X     HAL2     0.900000E-01   1.00800           0
      6356 MEMB     48       POPC     H12Y     HAL2     0.900000E-01   1.00800           0
      6357 MEMB     48       POPC     C313     CTL2    -0.180000       12.0110           0
      6358 MEMB     48       POPC     H13X     HAL2     0.900000E-01   1.00800           0
      6359 MEMB     48       POPC     H13Y     HAL2     0.900000E-01   1.00800           0
      6360 MEMB     48       POPC     C314     CTL2    -0.180000       12.0110           0
      6361 MEMB     48       POPC     H14X     HAL2     0.900000E-01   1.00800           0
      6362 MEMB     48       POPC     H14Y     HAL2     0.900000E-01   1.00800           0
      6363 MEMB     48       POPC     C315     CTL2    -0.180000       12.0110           0
      6364 MEMB     48       POPC     H15X     HAL2     0.900000E-01   1.00800           0
      6365 MEMB     48       POPC     H15Y     HAL2     0.900000E-01   1.00800           0
      6366 MEMB     48       POPC     C316     CTL3    -0.270000       12.0110           0
      6367 MEMB     48       POPC     H16X     HAL3     0.900000E-01   1.00800           0
      6368 MEMB     48       POPC     H16Y     HAL3     0.900000E-01   1.00800           0
      6369 MEMB     48       POPC     H16Z     HAL3     0.900000E-01   1.00800           0
      6370 MEMB     49       POPC     N        NTL     -0.600000       14.0070           0
      6371 MEMB     49       POPC     C12      CTL2    -0.100000       12.0110           0
      6372 MEMB     49       POPC     H12A     HL       0.250000       1.00800           0
      6373 MEMB     49       POPC     H12B     HL       0.250000       1.00800           0
      6374 MEMB     49       POPC     C13      CTL5    -0.350000       12.0110           0
      6375 MEMB     49       POPC     H13A     HL       0.250000       1.00800           0
      6376 MEMB     49       POPC     H13B     HL       0.250000       1.00800           0
      6377 MEMB     49       POPC     H13C     HL       0.250000       1.00800           0
      6378 MEMB     49       POPC     C14      CTL5    -0.350000       12.0110           0
      6379 MEMB     49       POPC     H14A     HL       0.250000       1.00800           0
      6380 MEMB     49       POPC     H14B     HL       0.250000       1.00800           0
      6381 MEMB     49       POPC     H14C     HL       0.250000       1.00800           0
      6382 MEMB     49       POPC     C15      CTL5    -0.350000       12.0110           0
      6383 MEMB     49       POPC     H15A     HL       0.250000       1.00800           0
      6384 MEMB     49       POPC     H15B     HL       0.250000       1.00800           0
      6385 MEMB     49       POPC     H15C     HL       0.250000       1.00800           0
      6386 MEMB     49       POPC     C11      CTL2    -0.800000E-01   12.0110           0
      6387 MEMB     49       POPC     H11A     HAL2     0.900000E-01   1.00800           0
      6388 MEMB     49       POPC     H11B     HAL2     0.900000E-01   1.00800           0
      6389 MEMB     49       POPC     P        PL        1.50000       30.9740           0
      6390 MEMB     49       POPC     O13      O2L     -0.780000       15.9994           0
      6391 MEMB     49       POPC     O14      O2L     -0.780000       15.9994           0
      6392 MEMB     49       POPC     O12      OSLP    -0.570000       15.9994           0
      6393 MEMB     49       POPC     O11      OSLP    -0.570000       15.9994           0
      6394 MEMB     49       POPC     C1       CTL2    -0.800000E-01   12.0110           0
      6395 MEMB     49       POPC     HA       HAL2     0.900000E-01   1.00800           0
      6396 MEMB     49       POPC     HB       HAL2     0.900000E-01   1.00800           0
      6397 MEMB     49       POPC     C2       CTL1     0.170000       12.0110           0
      6398 MEMB     49       POPC     HS       HAL1     0.900000E-01   1.00800           0
      6399 MEMB     49       POPC     O21      OSL     -0.490000       15.9994           0
      6400 MEMB     49       POPC     C21      CL       0.900000       12.0110           0
      6401 MEMB     49       POPC     O22      OBL     -0.630000       15.9994           0
      6402 MEMB     49       POPC     C22      CTL2    -0.220000       12.0110           0
      6403 MEMB     49       POPC     H2R      HAL2     0.900000E-01   1.00800           0
      6404 MEMB     49       POPC     H2S      HAL2     0.900000E-01   1.00800           0
      6405 MEMB     49       POPC     C3       CTL2     0.800000E-01   12.0110           0
      6406 MEMB     49       POPC     HX       HAL2     0.900000E-01   1.00800           0
      6407 MEMB     49       POPC     HY       HAL2     0.900000E-01   1.00800           0
      6408 MEMB     49       POPC     O31      OSL     -0.490000       15.9994           0
      6409 MEMB     49       POPC     C31      CL       0.900000       12.0110           0
      6410 MEMB     49       POPC     O32      OBL     -0.630000       15.9994           0
      6411 MEMB     49       POPC     C32      CTL2    -0.220000       12.0110           0
      6412 MEMB     49       POPC     H2X      HAL2     0.900000E-01   1.00800           0
      6413 MEMB     49       POPC     H2Y      HAL2     0.900000E-01   1.00800           0
      6414 MEMB     49       POPC     C23      CTL2    -0.180000       12.0110           0
      6415 MEMB     49       POPC     H3R      HAL2     0.900000E-01   1.00800           0
      6416 MEMB     49       POPC     H3S      HAL2     0.900000E-01   1.00800           0
      6417 MEMB     49       POPC     C24      CTL2    -0.180000       12.0110           0
      6418 MEMB     49       POPC     H4R      HAL2     0.900000E-01   1.00800           0
      6419 MEMB     49       POPC     H4S      HAL2     0.900000E-01   1.00800           0
      6420 MEMB     49       POPC     C25      CTL2    -0.180000       12.0110           0
      6421 MEMB     49       POPC     H5R      HAL2     0.900000E-01   1.00800           0
      6422 MEMB     49       POPC     H5S      HAL2     0.900000E-01   1.00800           0
      6423 MEMB     49       POPC     C26      CTL2    -0.180000       12.0110           0
      6424 MEMB     49       POPC     H6R      HAL2     0.900000E-01   1.00800           0
      6425 MEMB     49       POPC     H6S      HAL2     0.900000E-01   1.00800           0
      6426 MEMB     49       POPC     C27      CTL2    -0.180000       12.0110           0
      6427 MEMB     49       POPC     H7R      HAL2     0.900000E-01   1.00800           0
      6428 MEMB     49       POPC     H7S      HAL2     0.900000E-01   1.00800           0
      6429 MEMB     49       POPC     C28      CTL2    -0.180000       12.0110           0
      6430 MEMB     49       POPC     H8R      HAL2     0.900000E-01   1.00800           0
      6431 MEMB     49       POPC     H8S      HAL2     0.900000E-01   1.00800           0
      6432 MEMB     49       POPC     C29      CEL1    -0.150000       12.0110           0
      6433 MEMB     49       POPC     H91      HEL1     0.150000       1.00800           0
      6434 MEMB     49       POPC     C210     CEL1    -0.150000       12.0110           0
      6435 MEMB     49       POPC     H101     HEL1     0.150000       1.00800           0
      6436 MEMB     49       POPC     C211     CTL2    -0.180000       12.0110           0
      6437 MEMB     49       POPC     H11R     HAL2     0.900000E-01   1.00800           0
      6438 MEMB     49       POPC     H11S     HAL2     0.900000E-01   1.00800           0
      6439 MEMB     49       POPC     C212     CTL2    -0.180000       12.0110           0
      6440 MEMB     49       POPC     H12R     HAL2     0.900000E-01   1.00800           0
      6441 MEMB     49       POPC     H12S     HAL2     0.900000E-01   1.00800           0
      6442 MEMB     49       POPC     C213     CTL2    -0.180000       12.0110           0
      6443 MEMB     49       POPC     H13R     HAL2     0.900000E-01   1.00800           0
      6444 MEMB     49       POPC     H13S     HAL2     0.900000E-01   1.00800           0
      6445 MEMB     49       POPC     C214     CTL2    -0.180000       12.0110           0
      6446 MEMB     49       POPC     H14R     HAL2     0.900000E-01   1.00800           0
      6447 MEMB     49       POPC     H14S     HAL2     0.900000E-01   1.00800           0
      6448 MEMB     49       POPC     C215     CTL2    -0.180000       12.0110           0
      6449 MEMB     49       POPC     H15R     HAL2     0.900000E-01   1.00800           0
      6450 MEMB     49       POPC     H15S     HAL2     0.900000E-01   1.00800           0
      6451 MEMB     49       POPC     C216     CTL2    -0.180000       12.0110           0
      6452 MEMB     49       POPC     H16R     HAL2     0.900000E-01   1.00800           0
      6453 MEMB     49       POPC     H16S     HAL2     0.900000E-01   1.00800           0
      6454 MEMB     49       POPC     C217     CTL2    -0.180000       12.0110           0
      6455 MEMB     49       POPC     H17R     HAL2     0.900000E-01   1.00800           0
      6456 MEMB     49       POPC     H17S     HAL2     0.900000E-01   1.00800           0
      6457 MEMB     49       POPC     C218     CTL3    -0.270000       12.0110           0
      6458 MEMB     49       POPC     H18R     HAL3     0.900000E-01   1.00800           0
      6459 MEMB     49       POPC     H18S     HAL3     0.900000E-01   1.00800           0
      6460 MEMB     49       POPC     H18T     HAL3     0.900000E-01   1.00800           0
      6461 MEMB     49       POPC     C33      CTL2    -0.180000       12.0110           0
      6462 MEMB     49       POPC     H3X      HAL2     0.900000E-01   1.00800           0
      6463 MEMB     49       POPC     H3Y      HAL2     0.900000E-01   1.00800           0
      6464 MEMB     49       POPC     C34      CTL2    -0.180000       12.0110           0
      6465 MEMB     49       POPC     H4X      HAL2     0.900000E-01   1.00800           0
      6466 MEMB     49       POPC     H4Y      HAL2     0.900000E-01   1.00800           0
      6467 MEMB     49       POPC     C35      CTL2    -0.180000       12.0110           0
      6468 MEMB     49       POPC     H5X      HAL2     0.900000E-01   1.00800           0
      6469 MEMB     49       POPC     H5Y      HAL2     0.900000E-01   1.00800           0
      6470 MEMB     49       POPC     C36      CTL2    -0.180000       12.0110           0
      6471 MEMB     49       POPC     H6X      HAL2     0.900000E-01   1.00800           0
      6472 MEMB     49       POPC     H6Y      HAL2     0.900000E-01   1.00800           0
      6473 MEMB     49       POPC     C37      CTL2    -0.180000       12.0110           0
      6474 MEMB     49       POPC     H7X      HAL2     0.900000E-01   1.00800           0
      6475 MEMB     49       POPC     H7Y      HAL2     0.900000E-01   1.00800           0
      6476 MEMB     49       POPC     C38      CTL2    -0.180000       12.0110           0
      6477 MEMB     49       POPC     H8X      HAL2     0.900000E-01   1.00800           0
      6478 MEMB     49       POPC     H8Y      HAL2     0.900000E-01   1.00800           0
      6479 MEMB     49       POPC     C39      CTL2    -0.180000       12.0110           0
      6480 MEMB     49       POPC     H9X      HAL2     0.900000E-01   1.00800           0
      6481 MEMB     49       POPC     H9Y      HAL2     0.900000E-01   1.00800           0
      6482 MEMB     49       POPC     C310     CTL2    -0.180000       12.0110           0
      6483 MEMB     49       POPC     H10X     HAL2     0.900000E-01   1.00800           0
      6484 MEMB     49       POPC     H10Y     HAL2     0.900000E-01   1.00800           0
      6485 MEMB     49       POPC     C311     CTL2    -0.180000       12.0110           0
      6486 MEMB     49       POPC     H11X     HAL2     0.900000E-01   1.00800           0
      6487 MEMB     49       POPC     H11Y     HAL2     0.900000E-01   1.00800           0
      6488 MEMB     49       POPC     C312     CTL2    -0.180000       12.0110           0
      6489 MEMB     49       POPC     H12X     HAL2     0.900000E-01   1.00800           0
      6490 MEMB     49       POPC     H12Y     HAL2     0.900000E-01   1.00800           0
      6491 MEMB     49       POPC     C313     CTL2    -0.180000       12.0110           0
      6492 MEMB     49       POPC     H13X     HAL2     0.900000E-01   1.00800           0
      6493 MEMB     49       POPC     H13Y     HAL2     0.900000E-01   1.00800           0
      6494 MEMB     49       POPC     C314     CTL2    -0.180000       12.0110           0
      6495 MEMB     49       POPC     H14X     HAL2     0.900000E-01   1.00800           0
      6496 MEMB     49       POPC     H14Y     HAL2     0.900000E-01   1.00800           0
      6497 MEMB     49       POPC     C315     CTL2    -0.180000       12.0110           0
      6498 MEMB     49       POPC     H15X     HAL2     0.900000E-01   1.00800           0
      6499 MEMB     49       POPC     H15Y     HAL2     0.900000E-01   1.00800           0
      6500 MEMB     49       POPC     C316     CTL3    -0.270000       12.0110           0
      6501 MEMB     49       POPC     H16X     HAL3     0.900000E-01   1.00800           0
      6502 MEMB     49       POPC     H16Y     HAL3     0.900000E-01   1.00800           0
      6503 MEMB     49       POPC     H16Z     HAL3     0.900000E-01   1.00800           0
      6504 MEMB     50       POPC     N        NTL     -0.600000       14.0070           0
      6505 MEMB     50       POPC     C12      CTL2    -0.100000       12.0110           0
      6506 MEMB     50       POPC     H12A     HL       0.250000       1.00800           0
      6507 MEMB     50       POPC     H12B     HL       0.250000       1.00800           0
      6508 MEMB     50       POPC     C13      CTL5    -0.350000       12.0110           0
      6509 MEMB     50       POPC     H13A     HL       0.250000       1.00800           0
      6510 MEMB     50       POPC     H13B     HL       0.250000       1.00800           0
      6511 MEMB     50       POPC     H13C     HL       0.250000       1.00800           0
      6512 MEMB     50       POPC     C14      CTL5    -0.350000       12.0110           0
      6513 MEMB     50       POPC     H14A     HL       0.250000       1.00800           0
      6514 MEMB     50       POPC     H14B     HL       0.250000       1.00800           0
      6515 MEMB     50       POPC     H14C     HL       0.250000       1.00800           0
      6516 MEMB     50       POPC     C15      CTL5    -0.350000       12.0110           0
      6517 MEMB     50       POPC     H15A     HL       0.250000       1.00800           0
      6518 MEMB     50       POPC     H15B     HL       0.250000       1.00800           0
      6519 MEMB     50       POPC     H15C     HL       0.250000       1.00800           0
      6520 MEMB     50       POPC     C11      CTL2    -0.800000E-01   12.0110           0
      6521 MEMB     50       POPC     H11A     HAL2     0.900000E-01   1.00800           0
      6522 MEMB     50       POPC     H11B     HAL2     0.900000E-01   1.00800           0
      6523 MEMB     50       POPC     P        PL        1.50000       30.9740           0
      6524 MEMB     50       POPC     O13      O2L     -0.780000       15.9994           0
      6525 MEMB     50       POPC     O14      O2L     -0.780000       15.9994           0
      6526 MEMB     50       POPC     O12      OSLP    -0.570000       15.9994           0
      6527 MEMB     50       POPC     O11      OSLP    -0.570000       15.9994           0
      6528 MEMB     50       POPC     C1       CTL2    -0.800000E-01   12.0110           0
      6529 MEMB     50       POPC     HA       HAL2     0.900000E-01   1.00800           0
      6530 MEMB     50       POPC     HB       HAL2     0.900000E-01   1.00800           0
      6531 MEMB     50       POPC     C2       CTL1     0.170000       12.0110           0
      6532 MEMB     50       POPC     HS       HAL1     0.900000E-01   1.00800           0
      6533 MEMB     50       POPC     O21      OSL     -0.490000       15.9994           0
      6534 MEMB     50       POPC     C21      CL       0.900000       12.0110           0
      6535 MEMB     50       POPC     O22      OBL     -0.630000       15.9994           0
      6536 MEMB     50       POPC     C22      CTL2    -0.220000       12.0110           0
      6537 MEMB     50       POPC     H2R      HAL2     0.900000E-01   1.00800           0
      6538 MEMB     50       POPC     H2S      HAL2     0.900000E-01   1.00800           0
      6539 MEMB     50       POPC     C3       CTL2     0.800000E-01   12.0110           0
      6540 MEMB     50       POPC     HX       HAL2     0.900000E-01   1.00800           0
      6541 MEMB     50       POPC     HY       HAL2     0.900000E-01   1.00800           0
      6542 MEMB     50       POPC     O31      OSL     -0.490000       15.9994           0
      6543 MEMB     50       POPC     C31      CL       0.900000       12.0110           0
      6544 MEMB     50       POPC     O32      OBL     -0.630000       15.9994           0
      6545 MEMB     50       POPC     C32      CTL2    -0.220000       12.0110           0
      6546 MEMB     50       POPC     H2X      HAL2     0.900000E-01   1.00800           0
      6547 MEMB     50       POPC     H2Y      HAL2     0.900000E-01   1.00800           0
      6548 MEMB     50       POPC     C23      CTL2    -0.180000       12.0110           0
      6549 MEMB     50       POPC     H3R      HAL2     0.900000E-01   1.00800           0
      6550 MEMB     50       POPC     H3S      HAL2     0.900000E-01   1.00800           0
      6551 MEMB     50       POPC     C24      CTL2    -0.180000       12.0110           0
      6552 MEMB     50       POPC     H4R      HAL2     0.900000E-01   1.00800           0
      6553 MEMB     50       POPC     H4S      HAL2     0.900000E-01   1.00800           0
      6554 MEMB     50       POPC     C25      CTL2    -0.180000       12.0110           0
      6555 MEMB     50       POPC     H5R      HAL2     0.900000E-01   1.00800           0
      6556 MEMB     50       POPC     H5S      HAL2     0.900000E-01   1.00800           0
      6557 MEMB     50       POPC     C26      CTL2    -0.180000       12.0110           0
      6558 MEMB     50       POPC     H6R      HAL2     0.900000E-01   1.00800           0
      6559 MEMB     50       POPC     H6S      HAL2     0.900000E-01   1.00800           0
      6560 MEMB     50       POPC     C27      CTL2    -0.180000       12.0110           0
      6561 MEMB     50       POPC     H7R      HAL2     0.900000E-01   1.00800           0
      6562 MEMB     50       POPC     H7S      HAL2     0.900000E-01   1.00800           0
      6563 MEMB     50       POPC     C28      CTL2    -0.180000       12.0110           0
      6564 MEMB     50       POPC     H8R      HAL2     0.900000E-01   1.00800           0
      6565 MEMB     50       POPC     H8S      HAL2     0.900000E-01   1.00800           0
      6566 MEMB     50       POPC     C29      CEL1    -0.150000       12.0110           0
      6567 MEMB     50       POPC     H91      HEL1     0.150000       1.00800           0
      6568 MEMB     50       POPC     C210     CEL1    -0.150000       12.0110           0
      6569 MEMB     50       POPC     H101     HEL1     0.150000       1.00800           0
      6570 MEMB     50       POPC     C211     CTL2    -0.180000       12.0110           0
      6571 MEMB     50       POPC     H11R     HAL2     0.900000E-01   1.00800           0
      6572 MEMB     50       POPC     H11S     HAL2     0.900000E-01   1.00800           0
      6573 MEMB     50       POPC     C212     CTL2    -0.180000       12.0110           0
      6574 MEMB     50       POPC     H12R     HAL2     0.900000E-01   1.00800           0
      6575 MEMB     50       POPC     H12S     HAL2     0.900000E-01   1.00800           0
      6576 MEMB     50       POPC     C213     CTL2    -0.180000       12.0110           0
      6577 MEMB     50       POPC     H13R     HAL2     0.900000E-01   1.00800           0
      6578 MEMB     50       POPC     H13S     HAL2     0.900000E-01   1.00800           0
      6579 MEMB     50       POPC     C214     CTL2    -0.180000       12.0110           0
      6580 MEMB     50       POPC     H14R     HAL2     0.900000E-01   1.00800           0
      6581 MEMB     50       POPC     H14S     HAL2     0.900000E-01   1.00800           0
      6582 MEMB     50       POPC     C215     CTL2    -0.180000       12.0110           0
      6583 MEMB     50       POPC     H15R     HAL2     0.900000E-01   1.00800           0
      6584 MEMB     50       POPC     H15S     HAL2     0.900000E-01   1.00800           0
      6585 MEMB     50       POPC     C216     CTL2    -0.180000       12.0110           0
      6586 MEMB     50       POPC     H16R     HAL2     0.900000E-01   1.00800           0
      6587 MEMB     50       POPC     H16S     HAL2     0.900000E-01   1.00800           0
      6588 MEMB     50       POPC     C217     CTL2    -0.180000       12.0110           0
      6589 MEMB     50       POPC     H17R     HAL2     0.900000E-01   1.00800           0
      6590 MEMB     50       POPC     H17S     HAL2     0.900000E-01   1.00800           0
      6591 MEMB     50       POPC     C218     CTL3    -0.270000       12.0110           0
      6592 MEMB     50       POPC     H18R     HAL3     0.900000E-01   1.00800           0
      6593 MEMB     50       POPC     H18S     HAL3     0.900000E-01   1.00800           0
      6594 MEMB     50       POPC     H18T     HAL3     0.900000E-01   1.00800           0
      6595 MEMB     50       POPC     C33      CTL2    -0.180000       12.0110           0
      6596 MEMB     50       POPC     H3X      HAL2     0.900000E-01   1.00800           0
      6597 MEMB     50       POPC     H3Y      HAL2     0.900000E-01   1.00800           0
      6598 MEMB     50       POPC     C34      CTL2    -0.180000       12.0110           0
      6599 MEMB     50       POPC     H4X      HAL2     0.900000E-01   1.00800           0
      6600 MEMB     50       POPC     H4Y      HAL2     0.900000E-01   1.00800           0
      6601 MEMB     50       POPC     C35      CTL2    -0.180000       12.0110           0
      6602 MEMB     50       POPC     H5X      HAL2     0.900000E-01   1.00800           0
      6603 MEMB     50       POPC     H5Y      HAL2     0.900000E-01   1.00800           0
      6604 MEMB     50       POPC     C36      CTL2    -0.180000       12.0110           0
      6605 MEMB     50       POPC     H6X      HAL2     0.900000E-01   1.00800           0
      6606 MEMB     50       POPC     H6Y      HAL2     0.900000E-01   1.00800           0
      6607 MEMB     50       POPC     C37      CTL2    -0.180000       12.0110           0
      6608 MEMB     50       POPC     H7X      HAL2     0.900000E-01   1.00800           0
      6609 MEMB     50       POPC     H7Y      HAL2     0.900000E-01   1.00800           0
      6610 MEMB     50       POPC     C38      CTL2    -0.180000       12.0110           0
      6611 MEMB     50       POPC     H8X      HAL2     0.900000E-01   1.00800           0
      6612 MEMB     50       POPC     H8Y      HAL2     0.900000E-01   1.00800           0
      6613 MEMB     50       POPC     C39      CTL2    -0.180000       12.0110           0
      6614 MEMB     50       POPC     H9X      HAL2     0.900000E-01   1.00800           0
      6615 MEMB     50       POPC     H9Y      HAL2     0.900000E-01   1.00800           0
      6616 MEMB     50       POPC     C310     CTL2    -0.180000       12.0110           0
      6617 MEMB     50       POPC     H10X     HAL2     0.900000E-01   1.00800           0
      6618 MEMB     50       POPC     H10Y     HAL2     0.900000E-01   1.00800           0
      6619 MEMB     50       POPC     C311     CTL2    -0.180000       12.0110           0
      6620 MEMB     50       POPC     H11X     HAL2     0.900000E-01   1.00800           0
      6621 MEMB     50       POPC     H11Y     HAL2     0.900000E-01   1.00800           0
      6622 MEMB     50       POPC     C312     CTL2    -0.180000       12.0110           0
      6623 MEMB     50       POPC     H12X     HAL2     0.900000E-01   1.00800           0
      6624 MEMB     50       POPC     H12Y     HAL2     0.900000E-01   1.00800           0
      6625 MEMB     50       POPC     C313     CTL2    -0.180000       12.0110           0
      6626 MEMB     50       POPC     H13X     HAL2     0.900000E-01   1.00800           0
      6627 MEMB     50       POPC     H13Y     HAL2     0.900000E-01   1.00800           0
      6628 MEMB     50       POPC     C314     CTL2    -0.180000       12.0110           0
      6629 MEMB     50       POPC     H14X     HAL2     0.900000E-01   1.00800           0
      6630 MEMB     50       POPC     H14Y     HAL2     0.900000E-01   1.00800           0
      6631 MEMB     50       POPC     C315     CTL2    -0.180000       12.0110           0
      6632 MEMB     50       POPC     H15X     HAL2     0.900000E-01   1.00800           0
      6633 MEMB     50       POPC     H15Y     HAL2     0.900000E-01   1.00800           0
      6634 MEMB     50       POPC     C316     CTL3    -0.270000       12.0110           0
      6635 MEMB     50       POPC     H16X     HAL3     0.900000E-01   1.00800           0
      6636 MEMB     50       POPC     H16Y     HAL3     0.900000E-01   1.00800           0
      6637 MEMB     50       POPC     H16Z     HAL3     0.900000E-01   1.00800           0
      6638 MEMB     51       POPC     N        NTL     -0.600000       14.0070           0
      6639 MEMB     51       POPC     C12      CTL2    -0.100000       12.0110           0
      6640 MEMB     51       POPC     H12A     HL       0.250000       1.00800           0
      6641 MEMB     51       POPC     H12B     HL       0.250000       1.00800           0
      6642 MEMB     51       POPC     C13      CTL5    -0.350000       12.0110           0
      6643 MEMB     51       POPC     H13A     HL       0.250000       1.00800           0
      6644 MEMB     51       POPC     H13B     HL       0.250000       1.00800           0
      6645 MEMB     51       POPC     H13C     HL       0.250000       1.00800           0
      6646 MEMB     51       POPC     C14      CTL5    -0.350000       12.0110           0
      6647 MEMB     51       POPC     H14A     HL       0.250000       1.00800           0
      6648 MEMB     51       POPC     H14B     HL       0.250000       1.00800           0
      6649 MEMB     51       POPC     H14C     HL       0.250000       1.00800           0
      6650 MEMB     51       POPC     C15      CTL5    -0.350000       12.0110           0
      6651 MEMB     51       POPC     H15A     HL       0.250000       1.00800           0
      6652 MEMB     51       POPC     H15B     HL       0.250000       1.00800           0
      6653 MEMB     51       POPC     H15C     HL       0.250000       1.00800           0
      6654 MEMB     51       POPC     C11      CTL2    -0.800000E-01   12.0110           0
      6655 MEMB     51       POPC     H11A     HAL2     0.900000E-01   1.00800           0
      6656 MEMB     51       POPC     H11B     HAL2     0.900000E-01   1.00800           0
      6657 MEMB     51       POPC     P        PL        1.50000       30.9740           0
      6658 MEMB     51       POPC     O13      O2L     -0.780000       15.9994           0
      6659 MEMB     51       POPC     O14      O2L     -0.780000       15.9994           0
      6660 MEMB     51       POPC     O12      OSLP    -0.570000       15.9994           0
      6661 MEMB     51       POPC     O11      OSLP    -0.570000       15.9994           0
      6662 MEMB     51       POPC     C1       CTL2    -0.800000E-01   12.0110           0
      6663 MEMB     51       POPC     HA       HAL2     0.900000E-01   1.00800           0
      6664 MEMB     51       POPC     HB       HAL2     0.900000E-01   1.00800           0
      6665 MEMB     51       POPC     C2       CTL1     0.170000       12.0110           0
      6666 MEMB     51       POPC     HS       HAL1     0.900000E-01   1.00800           0
      6667 MEMB     51       POPC     O21      OSL     -0.490000       15.9994           0
      6668 MEMB     51       POPC     C21      CL       0.900000       12.0110           0
      6669 MEMB     51       POPC     O22      OBL     -0.630000       15.9994           0
      6670 MEMB     51       POPC     C22      CTL2    -0.220000       12.0110           0
      6671 MEMB     51       POPC     H2R      HAL2     0.900000E-01   1.00800           0
      6672 MEMB     51       POPC     H2S      HAL2     0.900000E-01   1.00800           0
      6673 MEMB     51       POPC     C3       CTL2     0.800000E-01   12.0110           0
      6674 MEMB     51       POPC     HX       HAL2     0.900000E-01   1.00800           0
      6675 MEMB     51       POPC     HY       HAL2     0.900000E-01   1.00800           0
      6676 MEMB     51       POPC     O31      OSL     -0.490000       15.9994           0
      6677 MEMB     51       POPC     C31      CL       0.900000       12.0110           0
      6678 MEMB     51       POPC     O32      OBL     -0.630000       15.9994           0
      6679 MEMB     51       POPC     C32      CTL2    -0.220000       12.0110           0
      6680 MEMB     51       POPC     H2X      HAL2     0.900000E-01   1.00800           0
      6681 MEMB     51       POPC     H2Y      HAL2     0.900000E-01   1.00800           0
      6682 MEMB     51       POPC     C23      CTL2    -0.180000       12.0110           0
      6683 MEMB     51       POPC     H3R      HAL2     0.900000E-01   1.00800           0
      6684 MEMB     51       POPC     H3S      HAL2     0.900000E-01   1.00800           0
      6685 MEMB     51       POPC     C24      CTL2    -0.180000       12.0110           0
      6686 MEMB     51       POPC     H4R      HAL2     0.900000E-01   1.00800           0
      6687 MEMB     51       POPC     H4S      HAL2     0.900000E-01   1.00800           0
      6688 MEMB     51       POPC     C25      CTL2    -0.180000       12.0110           0
      6689 MEMB     51       POPC     H5R      HAL2     0.900000E-01   1.00800           0
      6690 MEMB     51       POPC     H5S      HAL2     0.900000E-01   1.00800           0
      6691 MEMB     51       POPC     C26      CTL2    -0.180000       12.0110           0
      6692 MEMB     51       POPC     H6R      HAL2     0.900000E-01   1.00800           0
      6693 MEMB     51       POPC     H6S      HAL2     0.900000E-01   1.00800           0
      6694 MEMB     51       POPC     C27      CTL2    -0.180000       12.0110           0
      6695 MEMB     51       POPC     H7R      HAL2     0.900000E-01   1.00800           0
      6696 MEMB     51       POPC     H7S      HAL2     0.900000E-01   1.00800           0
      6697 MEMB     51       POPC     C28      CTL2    -0.180000       12.0110           0
      6698 MEMB     51       POPC     H8R      HAL2     0.900000E-01   1.00800           0
      6699 MEMB     51       POPC     H8S      HAL2     0.900000E-01   1.00800           0
      6700 MEMB     51       POPC     C29      CEL1    -0.150000       12.0110           0
      6701 MEMB     51       POPC     H91      HEL1     0.150000       1.00800           0
      6702 MEMB     51       POPC     C210     CEL1    -0.150000       12.0110           0
      6703 MEMB     51       POPC     H101     HEL1     0.150000       1.00800           0
      6704 MEMB     51       POPC     C211     CTL2    -0.180000       12.0110           0
      6705 MEMB     51       POPC     H11R     HAL2     0.900000E-01   1.00800           0
      6706 MEMB     51       POPC     H11S     HAL2     0.900000E-01   1.00800           0
      6707 MEMB     51       POPC     C212     CTL2    -0.180000       12.0110           0
      6708 MEMB     51       POPC     H12R     HAL2     0.900000E-01   1.00800           0
      6709 MEMB     51       POPC     H12S     HAL2     0.900000E-01   1.00800           0
      6710 MEMB     51       POPC     C213     CTL2    -0.180000       12.0110           0
      6711 MEMB     51       POPC     H13R     HAL2     0.900000E-01   1.00800           0
      6712 MEMB     51       POPC     H13S     HAL2     0.900000E-01   1.00800           0
      6713 MEMB     51       POPC     C214     CTL2    -0.180000       12.0110           0
      6714 MEMB     51       POPC     H14R     HAL2     0.900000E-01   1.00800           0
      6715 MEMB     51       POPC     H14S     HAL2     0.900000E-01   1.00800           0
      6716 MEMB     51       POPC     C215     CTL2    -0.180000       12.0110           0
      6717 MEMB     51       POPC     H15R     HAL2     0.900000E-01   1.00800           0
      6718 MEMB     51       POPC     H15S     HAL2     0.900000E-01   1.00800           0
      6719 MEMB     51       POPC     C216     CTL2    -0.180000       12.0110           0
      6720 MEMB     51       POPC     H16R     HAL2     0.900000E-01   1.00800           0
      6721 MEMB     51       POPC     H16S     HAL2     0.900000E-01   1.00800           0
      6722 MEMB     51       POPC     C217     CTL2    -0.180000       12.0110           0
      6723 MEMB     51       POPC     H17R     HAL2     0.900000E-01   1.00800           0
      6724 MEMB     51       POPC     H17S     HAL2     0.900000E-01   1.00800           0
      6725 MEMB     51       POPC     C218     CTL3    -0.270000       12.0110           0
      6726 MEMB     51       POPC     H18R     HAL3     0.900000E-01   1.00800           0
      6727 MEMB     51       POPC     H18S     HAL3     0.900000E-01   1.00800           0
      6728 MEMB     51       POPC     H18T     HAL3     0.900000E-01   1.00800           0
      6729 MEMB     51       POPC     C33      CTL2    -0.180000       12.0110           0
      6730 MEMB     51       POPC     H3X      HAL2     0.900000E-01   1.00800           0
      6731 MEMB     51       POPC     H3Y      HAL2     0.900000E-01   1.00800           0
      6732 MEMB     51       POPC     C34      CTL2    -0.180000       12.0110           0
      6733 MEMB     51       POPC     H4X      HAL2     0.900000E-01   1.00800           0
      6734 MEMB     51       POPC     H4Y      HAL2     0.900000E-01   1.00800           0
      6735 MEMB     51       POPC     C35      CTL2    -0.180000       12.0110           0
      6736 MEMB     51       POPC     H5X      HAL2     0.900000E-01   1.00800           0
      6737 MEMB     51       POPC     H5Y      HAL2     0.900000E-01   1.00800           0
      6738 MEMB     51       POPC     C36      CTL2    -0.180000       12.0110           0
      6739 MEMB     51       POPC     H6X      HAL2     0.900000E-01   1.00800           0
      6740 MEMB     51       POPC     H6Y      HAL2     0.900000E-01   1.00800           0
      6741 MEMB     51       POPC     C37      CTL2    -0.180000       12.0110           0
      6742 MEMB     51       POPC     H7X      HAL2     0.900000E-01   1.00800           0
      6743 MEMB     51       POPC     H7Y      HAL2     0.900000E-01   1.00800           0
      6744 MEMB     51       POPC     C38      CTL2    -0.180000       12.0110           0
      6745 MEMB     51       POPC     H8X      HAL2     0.900000E-01   1.00800           0
      6746 MEMB     51       POPC     H8Y      HAL2     0.900000E-01   1.00800           0
      6747 MEMB     51       POPC     C39      CTL2    -0.180000       12.0110           0
      6748 MEMB     51       POPC     H9X      HAL2     0.900000E-01   1.00800           0
      6749 MEMB     51       POPC     H9Y      HAL2     0.900000E-01   1.00800           0
      6750 MEMB     51       POPC     C310     CTL2    -0.180000       12.0110           0
      6751 MEMB     51       POPC     H10X     HAL2     0.900000E-01   1.00800           0
      6752 MEMB     51       POPC     H10Y     HAL2     0.900000E-01   1.00800           0
      6753 MEMB     51       POPC     C311     CTL2    -0.180000       12.0110           0
      6754 MEMB     51       POPC     H11X     HAL2     0.900000E-01   1.00800           0
      6755 MEMB     51       POPC     H11Y     HAL2     0.900000E-01   1.00800           0
      6756 MEMB     51       POPC     C312     CTL2    -0.180000       12.0110           0
      6757 MEMB     51       POPC     H12X     HAL2     0.900000E-01   1.00800           0
      6758 MEMB     51       POPC     H12Y     HAL2     0.900000E-01   1.00800           0
      6759 MEMB     51       POPC     C313     CTL2    -0.180000       12.0110           0
      6760 MEMB     51       POPC     H13X     HAL2     0.900000E-01   1.00800           0
      6761 MEMB     51       POPC     H13Y     HAL2     0.900000E-01   1.00800           0
      6762 MEMB     51       POPC     C314     CTL2    -0.180000       12.0110           0
      6763 MEMB     51       POPC     H14X     HAL2     0.900000E-01   1.00800           0
      6764 MEMB     51       POPC     H14Y     HAL2     0.900000E-01   1.00800           0
      6765 MEMB     51       POPC     C315     CTL2    -0.180000       12.0110           0
      6766 MEMB     51       POPC     H15X     HAL2     0.900000E-01   1.00800           0
      6767 MEMB     51       POPC     H15Y     HAL2     0.900000E-01   1.00800           0
      6768 MEMB     51       POPC     C316     CTL3    -0.270000       12.0110           0
      6769 MEMB     51       POPC     H16X     HAL3     0.900000E-01   1.00800           0
      6770 MEMB     51       POPC     H16Y     HAL3     0.900000E-01   1.00800           0
      6771 MEMB     51       POPC     H16Z     HAL3     0.900000E-01   1.00800           0
      6772 MEMB     52       POPC     N        NTL     -0.600000       14.0070           0
      6773 MEMB     52       POPC     C12      CTL2    -0.100000       12.0110           0
      6774 MEMB     52       POPC     H12A     HL       0.250000       1.00800           0
      6775 MEMB     52       POPC     H12B     HL       0.250000       1.00800           0
      6776 MEMB     52       POPC     C13      CTL5    -0.350000       12.0110           0
      6777 MEMB     52       POPC     H13A     HL       0.250000       1.00800           0
      6778 MEMB     52       POPC     H13B     HL       0.250000       1.00800           0
      6779 MEMB     52       POPC     H13C     HL       0.250000       1.00800           0
      6780 MEMB     52       POPC     C14      CTL5    -0.350000       12.0110           0
      6781 MEMB     52       POPC     H14A     HL       0.250000       1.00800           0
      6782 MEMB     52       POPC     H14B     HL       0.250000       1.00800           0
      6783 MEMB     52       POPC     H14C     HL       0.250000       1.00800           0
      6784 MEMB     52       POPC     C15      CTL5    -0.350000       12.0110           0
      6785 MEMB     52       POPC     H15A     HL       0.250000       1.00800           0
      6786 MEMB     52       POPC     H15B     HL       0.250000       1.00800           0
      6787 MEMB     52       POPC     H15C     HL       0.250000       1.00800           0
      6788 MEMB     52       POPC     C11      CTL2    -0.800000E-01   12.0110           0
      6789 MEMB     52       POPC     H11A     HAL2     0.900000E-01   1.00800           0
      6790 MEMB     52       POPC     H11B     HAL2     0.900000E-01   1.00800           0
      6791 MEMB     52       POPC     P        PL        1.50000       30.9740           0
      6792 MEMB     52       POPC     O13      O2L     -0.780000       15.9994           0
      6793 MEMB     52       POPC     O14      O2L     -0.780000       15.9994           0
      6794 MEMB     52       POPC     O12      OSLP    -0.570000       15.9994           0
      6795 MEMB     52       POPC     O11      OSLP    -0.570000       15.9994           0
      6796 MEMB     52       POPC     C1       CTL2    -0.800000E-01   12.0110           0
      6797 MEMB     52       POPC     HA       HAL2     0.900000E-01   1.00800           0
      6798 MEMB     52       POPC     HB       HAL2     0.900000E-01   1.00800           0
      6799 MEMB     52       POPC     C2       CTL1     0.170000       12.0110           0
      6800 MEMB     52       POPC     HS       HAL1     0.900000E-01   1.00800           0
      6801 MEMB     52       POPC     O21      OSL     -0.490000       15.9994           0
      6802 MEMB     52       POPC     C21      CL       0.900000       12.0110           0
      6803 MEMB     52       POPC     O22      OBL     -0.630000       15.9994           0
      6804 MEMB     52       POPC     C22      CTL2    -0.220000       12.0110           0
      6805 MEMB     52       POPC     H2R      HAL2     0.900000E-01   1.00800           0
      6806 MEMB     52       POPC     H2S      HAL2     0.900000E-01   1.00800           0
      6807 MEMB     52       POPC     C3       CTL2     0.800000E-01   12.0110           0
      6808 MEMB     52       POPC     HX       HAL2     0.900000E-01   1.00800           0
      6809 MEMB     52       POPC     HY       HAL2     0.900000E-01   1.00800           0
      6810 MEMB     52       POPC     O31      OSL     -0.490000       15.9994           0
      6811 MEMB     52       POPC     C31      CL       0.900000       12.0110           0
      6812 MEMB     52       POPC     O32      OBL     -0.630000       15.9994           0
      6813 MEMB     52       POPC     C32      CTL2    -0.220000       12.0110           0
      6814 MEMB     52       POPC     H2X      HAL2     0.900000E-01   1.00800           0
      6815 MEMB     52       POPC     H2Y      HAL2     0.900000E-01   1.00800           0
      6816 MEMB     52       POPC     C23      CTL2    -0.180000       12.0110           0
      6817 MEMB     52       POPC     H3R      HAL2     0.900000E-01   1.00800           0
      6818 MEMB     52       POPC     H3S      HAL2     0.900000E-01   1.00800           0
      6819 MEMB     52       POPC     C24      CTL2    -0.180000       12.0110           0
      6820 MEMB     52       POPC     H4R      HAL2     0.900000E-01   1.00800           0
      6821 MEMB     52       POPC     H4S      HAL2     0.900000E-01   1.00800           0
      6822 MEMB     52       POPC     C25      CTL2    -0.180000       12.0110           0
      6823 MEMB     52       POPC     H5R      HAL2     0.900000E-01   1.00800           0
      6824 MEMB     52       POPC     H5S      HAL2     0.900000E-01   1.00800           0
      6825 MEMB     52       POPC     C26      CTL2    -0.180000       12.0110           0
      6826 MEMB     52       POPC     H6R      HAL2     0.900000E-01   1.00800           0
      6827 MEMB     52       POPC     H6S      HAL2     0.900000E-01   1.00800           0
      6828 MEMB     52       POPC     C27      CTL2    -0.180000       12.0110           0
      6829 MEMB     52       POPC     H7R      HAL2     0.900000E-01   1.00800           0
      6830 MEMB     52       POPC     H7S      HAL2     0.900000E-01   1.00800           0
      6831 MEMB     52       POPC     C28      CTL2    -0.180000       12.0110           0
      6832 MEMB     52       POPC     H8R      HAL2     0.900000E-01   1.00800           0
      6833 MEMB     52       POPC     H8S      HAL2     0.900000E-01   1.00800           0
      6834 MEMB     52       POPC     C29      CEL1    -0.150000       12.0110           0
      6835 MEMB     52       POPC     H91      HEL1     0.150000       1.00800           0
      6836 MEMB     52       POPC     C210     CEL1    -0.150000       12.0110           0
      6837 MEMB     52       POPC     H101     HEL1     0.150000       1.00800           0
      6838 MEMB     52       POPC     C211     CTL2    -0.180000       12.0110           0
      6839 MEMB     52       POPC     H11R     HAL2     0.900000E-01   1.00800           0
      6840 MEMB     52       POPC     H11S     HAL2     0.900000E-01   1.00800           0
      6841 MEMB     52       POPC     C212     CTL2    -0.180000       12.0110           0
      6842 MEMB     52       POPC     H12R     HAL2     0.900000E-01   1.00800           0
      6843 MEMB     52       POPC     H12S     HAL2     0.900000E-01   1.00800           0
      6844 MEMB     52       POPC     C213     CTL2    -0.180000       12.0110           0
      6845 MEMB     52       POPC     H13R     HAL2     0.900000E-01   1.00800           0
      6846 MEMB     52       POPC     H13S     HAL2     0.900000E-01   1.00800           0
      6847 MEMB     52       POPC     C214     CTL2    -0.180000       12.0110           0
      6848 MEMB     52       POPC     H14R     HAL2     0.900000E-01   1.00800           0
      6849 MEMB     52       POPC     H14S     HAL2     0.900000E-01   1.00800           0
      6850 MEMB     52       POPC     C215     CTL2    -0.180000       12.0110           0
      6851 MEMB     52       POPC     H15R     HAL2     0.900000E-01   1.00800           0
      6852 MEMB     52       POPC     H15S     HAL2     0.900000E-01   1.00800           0
      6853 MEMB     52       POPC     C216     CTL2    -0.180000       12.0110           0
      6854 MEMB     52       POPC     H16R     HAL2     0.900000E-01   1.00800           0
      6855 MEMB     52       POPC     H16S     HAL2     0.900000E-01   1.00800           0
      6856 MEMB     52       POPC     C217     CTL2    -0.180000       12.0110           0
      6857 MEMB     52       POPC     H17R     HAL2     0.900000E-01   1.00800           0
      6858 MEMB     52       POPC     H17S     HAL2     0.900000E-01   1.00800           0
      6859 MEMB     52       POPC     C218     CTL3    -0.270000       12.0110           0
      6860 MEMB     52       POPC     H18R     HAL3     0.900000E-01   1.00800           0
      6861 MEMB     52       POPC     H18S     HAL3     0.900000E-01   1.00800           0
      6862 MEMB     52       POPC     H18T     HAL3     0.900000E-01   1.00800           0
      6863 MEMB     52       POPC     C33      CTL2    -0.180000       12.0110           0
      6864 MEMB     52       POPC     H3X      HAL2     0.900000E-01   1.00800           0
      6865 MEMB     52       POPC     H3Y      HAL2     0.900000E-01   1.00800           0
      6866 MEMB     52       POPC     C34      CTL2    -0.180000       12.0110           0
      6867 MEMB     52       POPC     H4X      HAL2     0.900000E-01   1.00800           0
      6868 MEMB     52       POPC     H4Y      HAL2     0.900000E-01   1.00800           0
      6869 MEMB     52       POPC     C35      CTL2    -0.180000       12.0110           0
      6870 MEMB     52       POPC     H5X      HAL2     0.900000E-01   1.00800           0
      6871 MEMB     52       POPC     H5Y      HAL2     0.900000E-01   1.00800           0
      6872 MEMB     52       POPC     C36      CTL2    -0.180000       12.0110           0
      6873 MEMB     52       POPC     H6X      HAL2     0.900000E-01   1.00800           0
      6874 MEMB     52       POPC     H6Y      HAL2     0.900000E-01   1.00800           0
      6875 MEMB     52       POPC     C37      CTL2    -0.180000       12.0110           0
      6876 MEMB     52       POPC     H7X      HAL2     0.900000E-01   1.00800           0
      6877 MEMB     52       POPC     H7Y      HAL2     0.900000E-01   1.00800           0
      6878 MEMB     52       POPC     C38      CTL2    -0.180000       12.0110           0
      6879 MEMB     52       POPC     H8X      HAL2     0.900000E-01   1.00800           0
      6880 MEMB     52       POPC     H8Y      HAL2     0.900000E-01   1.00800           0
      6881 MEMB     52       POPC     C39      CTL2    -0.180000       12.0110           0
      6882 MEMB     52       POPC     H9X      HAL2     0.900000E-01   1.00800           0
      6883 MEMB     52       POPC     H9Y      HAL2     0.900000E-01   1.00800           0
      6884 MEMB     52       POPC     C310     CTL2    -0.180000       12.0110           0
      6885 MEMB     52       POPC     H10X     HAL2     0.900000E-01   1.00800           0
      6886 MEMB     52       POPC     H10Y     HAL2     0.900000E-01   1.00800           0
      6887 MEMB     52       POPC     C311     CTL2    -0.180000       12.0110           0
      6888 MEMB     52       POPC     H11X     HAL2     0.900000E-01   1.00800           0
      6889 MEMB     52       POPC     H11Y     HAL2     0.900000E-01   1.00800           0
      6890 MEMB     52       POPC     C312     CTL2    -0.180000       12.0110           0
      6891 MEMB     52       POPC     H12X     HAL2     0.900000E-01   1.00800           0
      6892 MEMB     52       POPC     H12Y     HAL2     0.900000E-01   1.00800           0
      6893 MEMB     52       POPC     C313     CTL2    -0.180000       12.0110           0
      6894 MEMB     52       POPC     H13X     HAL2     0.900000E-01   1.00800           0
      6895 MEMB     52       POPC     H13Y     HAL2     0.900000E-01   1.00800           0
      6896 MEMB     52       POPC     C314     CTL2    -0.180000       12.0110           0
      6897 MEMB     52       POPC     H14X     HAL2     0.900000E-01   1.00800           0
      6898 MEMB     52       POPC     H14Y     HAL2     0.900000E-01   1.00800           0
      6899 MEMB     52       POPC     C315     CTL2    -0.180000       12.0110           0
      6900 MEMB     52       POPC     H15X     HAL2     0.900000E-01   1.00800           0
      6901 MEMB     52       POPC     H15Y     HAL2     0.900000E-01   1.00800           0
      6902 MEMB     52       POPC     C316     CTL3    -0.270000       12.0110           0
      6903 MEMB     52       POPC     H16X     HAL3     0.900000E-01   1.00800           0
      6904 MEMB     52       POPC     H16Y     HAL3     0.900000E-01   1.00800           0
      6905 MEMB     52       POPC     H16Z     HAL3     0.900000E-01   1.00800           0
      6906 MEMB     53       POPC     N        NTL     -0.600000       14.0070           0
      6907 MEMB     53       POPC     C12      CTL2    -0.100000       12.0110           0
      6908 MEMB     53       POPC     H12A     HL       0.250000       1.00800           0
      6909 MEMB     53       POPC     H12B     HL       0.250000       1.00800           0
      6910 MEMB     53       POPC     C13      CTL5    -0.350000       12.0110           0
      6911 MEMB     53       POPC     H13A     HL       0.250000       1.00800           0
      6912 MEMB     53       POPC     H13B     HL       0.250000       1.00800           0
      6913 MEMB     53       POPC     H13C     HL       0.250000       1.00800           0
      6914 MEMB     53       POPC     C14      CTL5    -0.350000       12.0110           0
      6915 MEMB     53       POPC     H14A     HL       0.250000       1.00800           0
      6916 MEMB     53       POPC     H14B     HL       0.250000       1.00800           0
      6917 MEMB     53       POPC     H14C     HL       0.250000       1.00800           0
      6918 MEMB     53       POPC     C15      CTL5    -0.350000       12.0110           0
      6919 MEMB     53       POPC     H15A     HL       0.250000       1.00800           0
      6920 MEMB     53       POPC     H15B     HL       0.250000       1.00800           0
      6921 MEMB     53       POPC     H15C     HL       0.250000       1.00800           0
      6922 MEMB     53       POPC     C11      CTL2    -0.800000E-01   12.0110           0
      6923 MEMB     53       POPC     H11A     HAL2     0.900000E-01   1.00800           0
      6924 MEMB     53       POPC     H11B     HAL2     0.900000E-01   1.00800           0
      6925 MEMB     53       POPC     P        PL        1.50000       30.9740           0
      6926 MEMB     53       POPC     O13      O2L     -0.780000       15.9994           0
      6927 MEMB     53       POPC     O14      O2L     -0.780000       15.9994           0
      6928 MEMB     53       POPC     O12      OSLP    -0.570000       15.9994           0
      6929 MEMB     53       POPC     O11      OSLP    -0.570000       15.9994           0
      6930 MEMB     53       POPC     C1       CTL2    -0.800000E-01   12.0110           0
      6931 MEMB     53       POPC     HA       HAL2     0.900000E-01   1.00800           0
      6932 MEMB     53       POPC     HB       HAL2     0.900000E-01   1.00800           0
      6933 MEMB     53       POPC     C2       CTL1     0.170000       12.0110           0
      6934 MEMB     53       POPC     HS       HAL1     0.900000E-01   1.00800           0
      6935 MEMB     53       POPC     O21      OSL     -0.490000       15.9994           0
      6936 MEMB     53       POPC     C21      CL       0.900000       12.0110           0
      6937 MEMB     53       POPC     O22      OBL     -0.630000       15.9994           0
      6938 MEMB     53       POPC     C22      CTL2    -0.220000       12.0110           0
      6939 MEMB     53       POPC     H2R      HAL2     0.900000E-01   1.00800           0
      6940 MEMB     53       POPC     H2S      HAL2     0.900000E-01   1.00800           0
      6941 MEMB     53       POPC     C3       CTL2     0.800000E-01   12.0110           0
      6942 MEMB     53       POPC     HX       HAL2     0.900000E-01   1.00800           0
      6943 MEMB     53       POPC     HY       HAL2     0.900000E-01   1.00800           0
      6944 MEMB     53       POPC     O31      OSL     -0.490000       15.9994           0
      6945 MEMB     53       POPC     C31      CL       0.900000       12.0110           0
      6946 MEMB     53       POPC     O32      OBL     -0.630000       15.9994           0
      6947 MEMB     53       POPC     C32      CTL2    -0.220000       12.0110           0
      6948 MEMB     53       POPC     H2X      HAL2     0.900000E-01   1.00800           0
      6949 MEMB     53       POPC     H2Y      HAL2     0.900000E-01   1.00800           0
      6950 MEMB     53       POPC     C23      CTL2    -0.180000       12.0110           0
      6951 MEMB     53       POPC     H3R      HAL2     0.900000E-01   1.00800           0
      6952 MEMB     53       POPC     H3S      HAL2     0.900000E-01   1.00800           0
      6953 MEMB     53       POPC     C24      CTL2    -0.180000       12.0110           0
      6954 MEMB     53       POPC     H4R      HAL2     0.900000E-01   1.00800           0
      6955 MEMB     53       POPC     H4S      HAL2     0.900000E-01   1.00800           0
      6956 MEMB     53       POPC     C25      CTL2    -0.180000       12.0110           0
      6957 MEMB     53       POPC     H5R      HAL2     0.900000E-01   1.00800           0
      6958 MEMB     53       POPC     H5S      HAL2     0.900000E-01   1.00800           0
      6959 MEMB     53       POPC     C26      CTL2    -0.180000       12.0110           0
      6960 MEMB     53       POPC     H6R      HAL2     0.900000E-01   1.00800           0
      6961 MEMB     53       POPC     H6S      HAL2     0.900000E-01   1.00800           0
      6962 MEMB     53       POPC     C27      CTL2    -0.180000       12.0110           0
      6963 MEMB     53       POPC     H7R      HAL2     0.900000E-01   1.00800           0
      6964 MEMB     53       POPC     H7S      HAL2     0.900000E-01   1.00800           0
      6965 MEMB     53       POPC     C28      CTL2    -0.180000       12.0110           0
      6966 MEMB     53       POPC     H8R      HAL2     0.900000E-01   1.00800           0
      6967 MEMB     53       POPC     H8S      HAL2     0.900000E-01   1.00800           0
      6968 MEMB     53       POPC     C29      CEL1    -0.150000       12.0110           0
      6969 MEMB     53       POPC     H91      HEL1     0.150000       1.00800           0
      6970 MEMB     53       POPC     C210     CEL1    -0.150000       12.0110           0
      6971 MEMB     53       POPC     H101     HEL1     0.150000       1.00800           0
      6972 MEMB     53       POPC     C211     CTL2    -0.180000       12.0110           0
      6973 MEMB     53       POPC     H11R     HAL2     0.900000E-01   1.00800           0
      6974 MEMB     53       POPC     H11S     HAL2     0.900000E-01   1.00800           0
      6975 MEMB     53       POPC     C212     CTL2    -0.180000       12.0110           0
      6976 MEMB     53       POPC     H12R     HAL2     0.900000E-01   1.00800           0
      6977 MEMB     53       POPC     H12S     HAL2     0.900000E-01   1.00800           0
      6978 MEMB     53       POPC     C213     CTL2    -0.180000       12.0110           0
      6979 MEMB     53       POPC     H13R     HAL2     0.900000E-01   1.00800           0
      6980 MEMB     53       POPC     H13S     HAL2     0.900000E-01   1.00800           0
      6981 MEMB     53       POPC     C214     CTL2    -0.180000       12.0110           0
      6982 MEMB     53       POPC     H14R     HAL2     0.900000E-01   1.00800           0
      6983 MEMB     53       POPC     H14S     HAL2     0.900000E-01   1.00800           0
      6984 MEMB     53       POPC     C215     CTL2    -0.180000       12.0110           0
      6985 MEMB     53       POPC     H15R     HAL2     0.900000E-01   1.00800           0
      6986 MEMB     53       POPC     H15S     HAL2     0.900000E-01   1.00800           0
      6987 MEMB     53       POPC     C216     CTL2    -0.180000       12.0110           0
      6988 MEMB     53       POPC     H16R     HAL2     0.900000E-01   1.00800           0
      6989 MEMB     53       POPC     H16S     HAL2     0.900000E-01   1.00800           0
      6990 MEMB     53       POPC     C217     CTL2    -0.180000       12.0110           0
      6991 MEMB     53       POPC     H17R     HAL2     0.900000E-01   1.00800           0
      6992 MEMB     53       POPC     H17S     HAL2     0.900000E-01   1.00800           0
      6993 MEMB     53       POPC     C218     CTL3    -0.270000       12.0110           0
      6994 MEMB     53       POPC     H18R     HAL3     0.900000E-01   1.00800           0
      6995 MEMB     53       POPC     H18S     HAL3     0.900000E-01   1.00800           0
      6996 MEMB     53       POPC     H18T     HAL3     0.900000E-01   1.00800           0
      6997 MEMB     53       POPC     C33      CTL2    -0.180000       12.0110           0
      6998 MEMB     53       POPC     H3X      HAL2     0.900000E-01   1.00800           0
      6999 MEMB     53       POPC     H3Y      HAL2     0.900000E-01   1.00800           0
      7000 MEMB     53       POPC     C34      CTL2    -0.180000       12.0110           0
      7001 MEMB     53       POPC     H4X      HAL2     0.900000E-01   1.00800           0
      7002 MEMB     53       POPC     H4Y      HAL2     0.900000E-01   1.00800           0
      7003 MEMB     53       POPC     C35      CTL2    -0.180000       12.0110           0
      7004 MEMB     53       POPC     H5X      HAL2     0.900000E-01   1.00800           0
      7005 MEMB     53       POPC     H5Y      HAL2     0.900000E-01   1.00800           0
      7006 MEMB     53       POPC     C36      CTL2    -0.180000       12.0110           0
      7007 MEMB     53       POPC     H6X      HAL2     0.900000E-01   1.00800           0
      7008 MEMB     53       POPC     H6Y      HAL2     0.900000E-01   1.00800           0
      7009 MEMB     53       POPC     C37      CTL2    -0.180000       12.0110           0
      7010 MEMB     53       POPC     H7X      HAL2     0.900000E-01   1.00800           0
      7011 MEMB     53       POPC     H7Y      HAL2     0.900000E-01   1.00800           0
      7012 MEMB     53       POPC     C38      CTL2    -0.180000       12.0110           0
      7013 MEMB     53       POPC     H8X      HAL2     0.900000E-01   1.00800           0
      7014 MEMB     53       POPC     H8Y      HAL2     0.900000E-01   1.00800           0
      7015 MEMB     53       POPC     C39      CTL2    -0.180000       12.0110           0
      7016 MEMB     53       POPC     H9X      HAL2     0.900000E-01   1.00800           0
      7017 MEMB     53       POPC     H9Y      HAL2     0.900000E-01   1.00800           0
      7018 MEMB     53       POPC     C310     CTL2    -0.180000       12.0110           0
      7019 MEMB     53       POPC     H10X     HAL2     0.900000E-01   1.00800           0
      7020 MEMB     53       POPC     H10Y     HAL2     0.900000E-01   1.00800           0
      7021 MEMB     53       POPC     C311     CTL2    -0.180000       12.0110           0
      7022 MEMB     53       POPC     H11X     HAL2     0.900000E-01   1.00800           0
      7023 MEMB     53       POPC     H11Y     HAL2     0.900000E-01   1.00800           0
      7024 MEMB     53       POPC     C312     CTL2    -0.180000       12.0110           0
      7025 MEMB     53       POPC     H12X     HAL2     0.900000E-01   1.00800           0
      7026 MEMB     53       POPC     H12Y     HAL2     0.900000E-01   1.00800           0
      7027 MEMB     53       POPC     C313     CTL2    -0.180000       12.0110           0
      7028 MEMB     53       POPC     H13X     HAL2     0.900000E-01   1.00800           0
      7029 MEMB     53       POPC     H13Y     HAL2     0.900000E-01   1.00800           0
      7030 MEMB     53       POPC     C314     CTL2    -0.180000       12.0110           0
      7031 MEMB     53       POPC     H14X     HAL2     0.900000E-01   1.00800           0
      7032 MEMB     53       POPC     H14Y     HAL2     0.900000E-01   1.00800           0
      7033 MEMB     53       POPC     C315     CTL2    -0.180000       12.0110           0
      7034 MEMB     53       POPC     H15X     HAL2     0.900000E-01   1.00800           0
      7035 MEMB     53       POPC     H15Y     HAL2     0.900000E-01   1.00800           0
      7036 MEMB     53       POPC     C316     CTL3    -0.270000       12.0110           0
      7037 MEMB     53       POPC     H16X     HAL3     0.900000E-01   1.00800           0
      7038 MEMB     53       POPC     H16Y     HAL3     0.900000E-01   1.00800           0
      7039 MEMB     53       POPC     H16Z     HAL3     0.900000E-01   1.00800           0
      7040 MEMB     54       POPC     N        NTL     -0.600000       14.0070           0
      7041 MEMB     54       POPC     C12      CTL2    -0.100000       12.0110           0
      7042 MEMB     54       POPC     H12A     HL       0.250000       1.00800           0
      7043 MEMB     54       POPC     H12B     HL       0.250000       1.00800           0
      7044 MEMB     54       POPC     C13      CTL5    -0.350000       12.0110           0
      7045 MEMB     54       POPC     H13A     HL       0.250000       1.00800           0
      7046 MEMB     54       POPC     H13B     HL       0.250000       1.00800           0
      7047 MEMB     54       POPC     H13C     HL       0.250000       1.00800           0
      7048 MEMB     54       POPC     C14      CTL5    -0.350000       12.0110           0
      7049 MEMB     54       POPC     H14A     HL       0.250000       1.00800           0
      7050 MEMB     54       POPC     H14B     HL       0.250000       1.00800           0
      7051 MEMB     54       POPC     H14C     HL       0.250000       1.00800           0
      7052 MEMB     54       POPC     C15      CTL5    -0.350000       12.0110           0
      7053 MEMB     54       POPC     H15A     HL       0.250000       1.00800           0
      7054 MEMB     54       POPC     H15B     HL       0.250000       1.00800           0
      7055 MEMB     54       POPC     H15C     HL       0.250000       1.00800           0
      7056 MEMB     54       POPC     C11      CTL2    -0.800000E-01   12.0110           0
      7057 MEMB     54       POPC     H11A     HAL2     0.900000E-01   1.00800           0
      7058 MEMB     54       POPC     H11B     HAL2     0.900000E-01   1.00800           0
      7059 MEMB     54       POPC     P        PL        1.50000       30.9740           0
      7060 MEMB     54       POPC     O13      O2L     -0.780000       15.9994           0
      7061 MEMB     54       POPC     O14      O2L     -0.780000       15.9994           0
      7062 MEMB     54       POPC     O12      OSLP    -0.570000       15.9994           0
      7063 MEMB     54       POPC     O11      OSLP    -0.570000       15.9994           0
      7064 MEMB     54       POPC     C1       CTL2    -0.800000E-01   12.0110           0
      7065 MEMB     54       POPC     HA       HAL2     0.900000E-01   1.00800           0
      7066 MEMB     54       POPC     HB       HAL2     0.900000E-01   1.00800           0
      7067 MEMB     54       POPC     C2       CTL1     0.170000       12.0110           0
      7068 MEMB     54       POPC     HS       HAL1     0.900000E-01   1.00800           0
      7069 MEMB     54       POPC     O21      OSL     -0.490000       15.9994           0
      7070 MEMB     54       POPC     C21      CL       0.900000       12.0110           0
      7071 MEMB     54       POPC     O22      OBL     -0.630000       15.9994           0
      7072 MEMB     54       POPC     C22      CTL2    -0.220000       12.0110           0
      7073 MEMB     54       POPC     H2R      HAL2     0.900000E-01   1.00800           0
      7074 MEMB     54       POPC     H2S      HAL2     0.900000E-01   1.00800           0
      7075 MEMB     54       POPC     C3       CTL2     0.800000E-01   12.0110           0
      7076 MEMB     54       POPC     HX       HAL2     0.900000E-01   1.00800           0
      7077 MEMB     54       POPC     HY       HAL2     0.900000E-01   1.00800           0
      7078 MEMB     54       POPC     O31      OSL     -0.490000       15.9994           0
      7079 MEMB     54       POPC     C31      CL       0.900000       12.0110           0
      7080 MEMB     54       POPC     O32      OBL     -0.630000       15.9994           0
      7081 MEMB     54       POPC     C32      CTL2    -0.220000       12.0110           0
      7082 MEMB     54       POPC     H2X      HAL2     0.900000E-01   1.00800           0
      7083 MEMB     54       POPC     H2Y      HAL2     0.900000E-01   1.00800           0
      7084 MEMB     54       POPC     C23      CTL2    -0.180000       12.0110           0
      7085 MEMB     54       POPC     H3R      HAL2     0.900000E-01   1.00800           0
      7086 MEMB     54       POPC     H3S      HAL2     0.900000E-01   1.00800           0
      7087 MEMB     54       POPC     C24      CTL2    -0.180000       12.0110           0
      7088 MEMB     54       POPC     H4R      HAL2     0.900000E-01   1.00800           0
      7089 MEMB     54       POPC     H4S      HAL2     0.900000E-01   1.00800           0
      7090 MEMB     54       POPC     C25      CTL2    -0.180000       12.0110           0
      7091 MEMB     54       POPC     H5R      HAL2     0.900000E-01   1.00800           0
      7092 MEMB     54       POPC     H5S      HAL2     0.900000E-01   1.00800           0
      7093 MEMB     54       POPC     C26      CTL2    -0.180000       12.0110           0
      7094 MEMB     54       POPC     H6R      HAL2     0.900000E-01   1.00800           0
      7095 MEMB     54       POPC     H6S      HAL2     0.900000E-01   1.00800           0
      7096 MEMB     54       POPC     C27      CTL2    -0.180000       12.0110           0
      7097 MEMB     54       POPC     H7R      HAL2     0.900000E-01   1.00800           0
      7098 MEMB     54       POPC     H7S      HAL2     0.900000E-01   1.00800           0
      7099 MEMB     54       POPC     C28      CTL2    -0.180000       12.0110           0
      7100 MEMB     54       POPC     H8R      HAL2     0.900000E-01   1.00800           0
      7101 MEMB     54       POPC     H8S      HAL2     0.900000E-01   1.00800           0
      7102 MEMB     54       POPC     C29      CEL1    -0.150000       12.0110           0
      7103 MEMB     54       POPC     H91      HEL1     0.150000       1.00800           0
      7104 MEMB     54       POPC     C210     CEL1    -0.150000       12.0110           0
      7105 MEMB     54       POPC     H101     HEL1     0.150000       1.00800           0
      7106 MEMB     54       POPC     C211     CTL2    -0.180000       12.0110           0
      7107 MEMB     54       POPC     H11R     HAL2     0.900000E-01   1.00800           0
      7108 MEMB     54       POPC     H11S     HAL2     0.900000E-01   1.00800           0
      7109 MEMB     54       POPC     C212     CTL2    -0.180000       12.0110           0
      7110 MEMB     54       POPC     H12R     HAL2     0.900000E-01   1.00800           0
      7111 MEMB     54       POPC     H12S     HAL2     0.900000E-01   1.00800           0
      7112 MEMB     54       POPC     C213     CTL2    -0.180000       12.0110           0
      7113 MEMB     54       POPC     H13R     HAL2     0.900000E-01   1.00800           0
      7114 MEMB     54       POPC     H13S     HAL2     0.900000E-01   1.00800           0
      7115 MEMB     54       POPC     C214     CTL2    -0.180000       12.0110           0
      7116 MEMB     54       POPC     H14R     HAL2     0.900000E-01   1.00800           0
      7117 MEMB     54       POPC     H14S     HAL2     0.900000E-01   1.00800           0
      7118 MEMB     54       POPC     C215     CTL2    -0.180000       12.0110           0
      7119 MEMB     54       POPC     H15R     HAL2     0.900000E-01   1.00800           0
      7120 MEMB     54       POPC     H15S     HAL2     0.900000E-01   1.00800           0
      7121 MEMB     54       POPC     C216     CTL2    -0.180000       12.0110           0
      7122 MEMB     54       POPC     H16R     HAL2     0.900000E-01   1.00800           0
      7123 MEMB     54       POPC     H16S     HAL2     0.900000E-01   1.00800           0
      7124 MEMB     54       POPC     C217     CTL2    -0.180000       12.0110           0
      7125 MEMB     54       POPC     H17R     HAL2     0.900000E-01   1.00800           0
      7126 MEMB     54       POPC     H17S     HAL2     0.900000E-01   1.00800           0
      7127 MEMB     54       POPC     C218     CTL3    -0.270000       12.0110           0
      7128 MEMB     54       POPC     H18R     HAL3     0.900000E-01   1.00800           0
      7129 MEMB     54       POPC     H18S     HAL3     0.900000E-01   1.00800           0
      7130 MEMB     54       POPC     H18T     HAL3     0.900000E-01   1.00800           0
      7131 MEMB     54       POPC     C33      CTL2    -0.180000       12.0110           0
      7132 MEMB     54       POPC     H3X      HAL2     0.900000E-01   1.00800           0
      7133 MEMB     54       POPC     H3Y      HAL2     0.900000E-01   1.00800           0
      7134 MEMB     54       POPC     C34      CTL2    -0.180000       12.0110           0
      7135 MEMB     54       POPC     H4X      HAL2     0.900000E-01   1.00800           0
      7136 MEMB     54       POPC     H4Y      HAL2     0.900000E-01   1.00800           0
      7137 MEMB     54       POPC     C35      CTL2    -0.180000       12.0110           0
      7138 MEMB     54       POPC     H5X      HAL2     0.900000E-01   1.00800           0
      7139 MEMB     54       POPC     H5Y      HAL2     0.900000E-01   1.00800           0
      7140 MEMB     54       POPC     C36      CTL2    -0.180000       12.0110           0
      7141 MEMB     54       POPC     H6X      HAL2     0.900000E-01   1.00800           0
      7142 MEMB     54       POPC     H6Y      HAL2     0.900000E-01   1.00800           0
      7143 MEMB     54       POPC     C37      CTL2    -0.180000       12.0110           0
      7144 MEMB     54       POPC     H7X      HAL2     0.900000E-01   1.00800           0
      7145 MEMB     54       POPC     H7Y      HAL2     0.900000E-01   1.00800           0
      7146 MEMB     54       POPC     C38      CTL2    -0.180000       12.0110           0
      7147 MEMB     54       POPC     H8X      HAL2     0.900000E-01   1.00800           0
      7148 MEMB     54       POPC     H8Y      HAL2     0.900000E-01   1.00800           0
      7149 MEMB     54       POPC     C39      CTL2    -0.180000       12.0110           0
      7150 MEMB     54       POPC     H9X      HAL2     0.900000E-01   1.00800           0
      7151 MEMB     54       POPC     H9Y      HAL2     0.900000E-01   1.00800           0
      7152 MEMB     54       POPC     C310     CTL2    -0.180000       12.0110           0
      7153 MEMB     54       POPC     H10X     HAL2     0.900000E-01   1.00800           0
      7154 MEMB     54       POPC     H10Y     HAL2     0.900000E-01   1.00800           0
      7155 MEMB     54       POPC     C311     CTL2    -0.180000       12.0110           0
      7156 MEMB     54       POPC     H11X     HAL2     0.900000E-01   1.00800           0
      7157 MEMB     54       POPC     H11Y     HAL2     0.900000E-01   1.00800           0
      7158 MEMB     54       POPC     C312     CTL2    -0.180000       12.0110           0
      7159 MEMB     54       POPC     H12X     HAL2     0.900000E-01   1.00800           0
      7160 MEMB     54       POPC     H12Y     HAL2     0.900000E-01   1.00800           0
      7161 MEMB     54       POPC     C313     CTL2    -0.180000       12.0110           0
      7162 MEMB     54       POPC     H13X     HAL2     0.900000E-01   1.00800           0
      7163 MEMB     54       POPC     H13Y     HAL2     0.900000E-01   1.00800           0
      7164 MEMB     54       POPC     C314     CTL2    -0.180000       12.0110           0
      7165 MEMB     54       POPC     H14X     HAL2     0.900000E-01   1.00800           0
      7166 MEMB     54       POPC     H14Y     HAL2     0.900000E-01   1.00800           0
      7167 MEMB     54       POPC     C315     CTL2    -0.180000       12.0110           0
      7168 MEMB     54       POPC     H15X     HAL2     0.900000E-01   1.00800           0
      7169 MEMB     54       POPC     H15Y     HAL2     0.900000E-01   1.00800           0
      7170 MEMB     54       POPC     C316     CTL3    -0.270000       12.0110           0
      7171 MEMB     54       POPC     H16X     HAL3     0.900000E-01   1.00800           0
      7172 MEMB     54       POPC     H16Y     HAL3     0.900000E-01   1.00800           0
      7173 MEMB     54       POPC     H16Z     HAL3     0.900000E-01   1.00800           0
      7174 MEMB     55       POPS     N        NH3L    -0.300000       14.0070           0
      7175 MEMB     55       POPS     HN1      HCL      0.330000       1.00800           0
      7176 MEMB     55       POPS     HN2      HCL      0.330000       1.00800           0
      7177 MEMB     55       POPS     HN3      HCL      0.330000       1.00800           0
      7178 MEMB     55       POPS     C12      CTL1     0.210000       12.0110           0
      7179 MEMB     55       POPS     H12A     HBL      0.100000       1.00800           0
      7180 MEMB     55       POPS     C13      CCL      0.340000       12.0110           0
      7181 MEMB     55       POPS     O13A     OCL     -0.670000       15.9994           0
      7182 MEMB     55       POPS     O13B     OCL     -0.670000       15.9994           0
      7183 MEMB     55       POPS     C11      CTL2    -0.800000E-01   12.0110           0
      7184 MEMB     55       POPS     H11A     HAL2     0.900000E-01   1.00800           0
      7185 MEMB     55       POPS     H11B     HAL2     0.900000E-01   1.00800           0
      7186 MEMB     55       POPS     P        PL        1.50000       30.9740           0
      7187 MEMB     55       POPS     O13      O2L     -0.780000       15.9994           0
      7188 MEMB     55       POPS     O14      O2L     -0.780000       15.9994           0
      7189 MEMB     55       POPS     O12      OSLP    -0.570000       15.9994           0
      7190 MEMB     55       POPS     O11      OSLP    -0.570000       15.9994           0
      7191 MEMB     55       POPS     C1       CTL2    -0.800000E-01   12.0110           0
      7192 MEMB     55       POPS     HA       HAL2     0.900000E-01   1.00800           0
      7193 MEMB     55       POPS     HB       HAL2     0.900000E-01   1.00800           0
      7194 MEMB     55       POPS     C2       CTL1     0.170000       12.0110           0
      7195 MEMB     55       POPS     HS       HAL1     0.900000E-01   1.00800           0
      7196 MEMB     55       POPS     O21      OSL     -0.490000       15.9994           0
      7197 MEMB     55       POPS     C21      CL       0.900000       12.0110           0
      7198 MEMB     55       POPS     O22      OBL     -0.630000       15.9994           0
      7199 MEMB     55       POPS     C22      CTL2    -0.220000       12.0110           0
      7200 MEMB     55       POPS     H2R      HAL2     0.900000E-01   1.00800           0
      7201 MEMB     55       POPS     H2S      HAL2     0.900000E-01   1.00800           0
      7202 MEMB     55       POPS     C3       CTL2     0.800000E-01   12.0110           0
      7203 MEMB     55       POPS     HX       HAL2     0.900000E-01   1.00800           0
      7204 MEMB     55       POPS     HY       HAL2     0.900000E-01   1.00800           0
      7205 MEMB     55       POPS     O31      OSL     -0.490000       15.9994           0
      7206 MEMB     55       POPS     C31      CL       0.900000       12.0110           0
      7207 MEMB     55       POPS     O32      OBL     -0.630000       15.9994           0
      7208 MEMB     55       POPS     C32      CTL2    -0.220000       12.0110           0
      7209 MEMB     55       POPS     H2X      HAL2     0.900000E-01   1.00800           0
      7210 MEMB     55       POPS     H2Y      HAL2     0.900000E-01   1.00800           0
      7211 MEMB     55       POPS     C23      CTL2    -0.180000       12.0110           0
      7212 MEMB     55       POPS     H3R      HAL2     0.900000E-01   1.00800           0
      7213 MEMB     55       POPS     H3S      HAL2     0.900000E-01   1.00800           0
      7214 MEMB     55       POPS     C24      CTL2    -0.180000       12.0110           0
      7215 MEMB     55       POPS     H4R      HAL2     0.900000E-01   1.00800           0
      7216 MEMB     55       POPS     H4S      HAL2     0.900000E-01   1.00800           0
      7217 MEMB     55       POPS     C25      CTL2    -0.180000       12.0110           0
      7218 MEMB     55       POPS     H5R      HAL2     0.900000E-01   1.00800           0
      7219 MEMB     55       POPS     H5S      HAL2     0.900000E-01   1.00800           0
      7220 MEMB     55       POPS     C26      CTL2    -0.180000       12.0110           0
      7221 MEMB     55       POPS     H6R      HAL2     0.900000E-01   1.00800           0
      7222 MEMB     55       POPS     H6S      HAL2     0.900000E-01   1.00800           0
      7223 MEMB     55       POPS     C27      CTL2    -0.180000       12.0110           0
      7224 MEMB     55       POPS     H7R      HAL2     0.900000E-01   1.00800           0
      7225 MEMB     55       POPS     H7S      HAL2     0.900000E-01   1.00800           0
      7226 MEMB     55       POPS     C28      CTL2    -0.180000       12.0110           0
      7227 MEMB     55       POPS     H8R      HAL2     0.900000E-01   1.00800           0
      7228 MEMB     55       POPS     H8S      HAL2     0.900000E-01   1.00800           0
      7229 MEMB     55       POPS     C29      CEL1    -0.150000       12.0110           0
      7230 MEMB     55       POPS     H91      HEL1     0.150000       1.00800           0
      7231 MEMB     55       POPS     C210     CEL1    -0.150000       12.0110           0
      7232 MEMB     55       POPS     H101     HEL1     0.150000       1.00800           0
      7233 MEMB     55       POPS     C211     CTL2    -0.180000       12.0110           0
      7234 MEMB     55       POPS     H11R     HAL2     0.900000E-01   1.00800           0
      7235 MEMB     55       POPS     H11S     HAL2     0.900000E-01   1.00800           0
      7236 MEMB     55       POPS     C212     CTL2    -0.180000       12.0110           0
      7237 MEMB     55       POPS     H12R     HAL2     0.900000E-01   1.00800           0
      7238 MEMB     55       POPS     H12S     HAL2     0.900000E-01   1.00800           0
      7239 MEMB     55       POPS     C213     CTL2    -0.180000       12.0110           0
      7240 MEMB     55       POPS     H13R     HAL2     0.900000E-01   1.00800           0
      7241 MEMB     55       POPS     H13S     HAL2     0.900000E-01   1.00800           0
      7242 MEMB     55       POPS     C214     CTL2    -0.180000       12.0110           0
      7243 MEMB     55       POPS     H14R     HAL2     0.900000E-01   1.00800           0
      7244 MEMB     55       POPS     H14S     HAL2     0.900000E-01   1.00800           0
      7245 MEMB     55       POPS     C215     CTL2    -0.180000       12.0110           0
      7246 MEMB     55       POPS     H15R     HAL2     0.900000E-01   1.00800           0
      7247 MEMB     55       POPS     H15S     HAL2     0.900000E-01   1.00800           0
      7248 MEMB     55       POPS     C216     CTL2    -0.180000       12.0110           0
      7249 MEMB     55       POPS     H16R     HAL2     0.900000E-01   1.00800           0
      7250 MEMB     55       POPS     H16S     HAL2     0.900000E-01   1.00800           0
      7251 MEMB     55       POPS     C217     CTL2    -0.180000       12.0110           0
      7252 MEMB     55       POPS     H17R     HAL2     0.900000E-01   1.00800           0
      7253 MEMB     55       POPS     H17S     HAL2     0.900000E-01   1.00800           0
      7254 MEMB     55       POPS     C218     CTL3    -0.270000       12.0110           0
      7255 MEMB     55       POPS     H18R     HAL3     0.900000E-01   1.00800           0
      7256 MEMB     55       POPS     H18S     HAL3     0.900000E-01   1.00800           0
      7257 MEMB     55       POPS     H18T     HAL3     0.900000E-01   1.00800           0
      7258 MEMB     55       POPS     C33      CTL2    -0.180000       12.0110           0
      7259 MEMB     55       POPS     H3X      HAL2     0.900000E-01   1.00800           0
      7260 MEMB     55       POPS     H3Y      HAL2     0.900000E-01   1.00800           0
      7261 MEMB     55       POPS     C34      CTL2    -0.180000       12.0110           0
      7262 MEMB     55       POPS     H4X      HAL2     0.900000E-01   1.00800           0
      7263 MEMB     55       POPS     H4Y      HAL2     0.900000E-01   1.00800           0
      7264 MEMB     55       POPS     C35      CTL2    -0.180000       12.0110           0
      7265 MEMB     55       POPS     H5X      HAL2     0.900000E-01   1.00800           0
      7266 MEMB     55       POPS     H5Y      HAL2     0.900000E-01   1.00800           0
      7267 MEMB     55       POPS     C36      CTL2    -0.180000       12.0110           0
      7268 MEMB     55       POPS     H6X      HAL2     0.900000E-01   1.00800           0
      7269 MEMB     55       POPS     H6Y      HAL2     0.900000E-01   1.00800           0
      7270 MEMB     55       POPS     C37      CTL2    -0.180000       12.0110           0
      7271 MEMB     55       POPS     H7X      HAL2     0.900000E-01   1.00800           0
      7272 MEMB     55       POPS     H7Y      HAL2     0.900000E-01   1.00800           0
      7273 MEMB     55       POPS     C38      CTL2    -0.180000       12.0110           0
      7274 MEMB     55       POPS     H8X      HAL2     0.900000E-01   1.00800           0
      7275 MEMB     55       POPS     H8Y      HAL2     0.900000E-01   1.00800           0
      7276 MEMB     55       POPS     C39      CTL2    -0.180000       12.0110           0
      7277 MEMB     55       POPS     H9X      HAL2     0.900000E-01   1.00800           0
      7278 MEMB     55       POPS     H9Y      HAL2     0.900000E-01   1.00800           0
      7279 MEMB     55       POPS     C310     CTL2    -0.180000       12.0110           0
      7280 MEMB     55       POPS     H10X     HAL2     0.900000E-01   1.00800           0
      7281 MEMB     55       POPS     H10Y     HAL2     0.900000E-01   1.00800           0
      7282 MEMB     55       POPS     C311     CTL2    -0.180000       12.0110           0
      7283 MEMB     55       POPS     H11X     HAL2     0.900000E-01   1.00800           0
      7284 MEMB     55       POPS     H11Y     HAL2     0.900000E-01   1.00800           0
      7285 MEMB     55       POPS     C312     CTL2    -0.180000       12.0110           0
      7286 MEMB     55       POPS     H12X     HAL2     0.900000E-01   1.00800           0
      7287 MEMB     55       POPS     H12Y     HAL2     0.900000E-01   1.00800           0
      7288 MEMB     55       POPS     C313     CTL2    -0.180000       12.0110           0
      7289 MEMB     55       POPS     H13X     HAL2     0.900000E-01   1.00800           0
      7290 MEMB     55       POPS     H13Y     HAL2     0.900000E-01   1.00800           0
      7291 MEMB     55       POPS     C314     CTL2    -0.180000       12.0110           0
      7292 MEMB     55       POPS     H14X     HAL2     0.900000E-01   1.00800           0
      7293 MEMB     55       POPS     H14Y     HAL2     0.900000E-01   1.00800           0
      7294 MEMB     55       POPS     C315     CTL2    -0.180000       12.0110           0
      7295 MEMB     55       POPS     H15X     HAL2     0.900000E-01   1.00800           0
      7296 MEMB     55       POPS     H15Y     HAL2     0.900000E-01   1.00800           0
      7297 MEMB     55       POPS     C316     CTL3    -0.270000       12.0110           0
      7298 MEMB     55       POPS     H16X     HAL3     0.900000E-01   1.00800           0
      7299 MEMB     55       POPS     H16Y     HAL3     0.900000E-01   1.00800           0
      7300 MEMB     55       POPS     H16Z     HAL3     0.900000E-01   1.00800           0
      7301 MEMB     56       POPS     N        NH3L    -0.300000       14.0070           0
      7302 MEMB     56       POPS     HN1      HCL      0.330000       1.00800           0
      7303 MEMB     56       POPS     HN2      HCL      0.330000       1.00800           0
      7304 MEMB     56       POPS     HN3      HCL      0.330000       1.00800           0
      7305 MEMB     56       POPS     C12      CTL1     0.210000       12.0110           0
      7306 MEMB     56       POPS     H12A     HBL      0.100000       1.00800           0
      7307 MEMB     56       POPS     C13      CCL      0.340000       12.0110           0
      7308 MEMB     56       POPS     O13A     OCL     -0.670000       15.9994           0
      7309 MEMB     56       POPS     O13B     OCL     -0.670000       15.9994           0
      7310 MEMB     56       POPS     C11      CTL2    -0.800000E-01   12.0110           0
      7311 MEMB     56       POPS     H11A     HAL2     0.900000E-01   1.00800           0
      7312 MEMB     56       POPS     H11B     HAL2     0.900000E-01   1.00800           0
      7313 MEMB     56       POPS     P        PL        1.50000       30.9740           0
      7314 MEMB     56       POPS     O13      O2L     -0.780000       15.9994           0
      7315 MEMB     56       POPS     O14      O2L     -0.780000       15.9994           0
      7316 MEMB     56       POPS     O12      OSLP    -0.570000       15.9994           0
      7317 MEMB     56       POPS     O11      OSLP    -0.570000       15.9994           0
      7318 MEMB     56       POPS     C1       CTL2    -0.800000E-01   12.0110           0
      7319 MEMB     56       POPS     HA       HAL2     0.900000E-01   1.00800           0
      7320 MEMB     56       POPS     HB       HAL2     0.900000E-01   1.00800           0
      7321 MEMB     56       POPS     C2       CTL1     0.170000       12.0110           0
      7322 MEMB     56       POPS     HS       HAL1     0.900000E-01   1.00800           0
      7323 MEMB     56       POPS     O21      OSL     -0.490000       15.9994           0
      7324 MEMB     56       POPS     C21      CL       0.900000       12.0110           0
      7325 MEMB     56       POPS     O22      OBL     -0.630000       15.9994           0
      7326 MEMB     56       POPS     C22      CTL2    -0.220000       12.0110           0
      7327 MEMB     56       POPS     H2R      HAL2     0.900000E-01   1.00800           0
      7328 MEMB     56       POPS     H2S      HAL2     0.900000E-01   1.00800           0
      7329 MEMB     56       POPS     C3       CTL2     0.800000E-01   12.0110           0
      7330 MEMB     56       POPS     HX       HAL2     0.900000E-01   1.00800           0
      7331 MEMB     56       POPS     HY       HAL2     0.900000E-01   1.00800           0
      7332 MEMB     56       POPS     O31      OSL     -0.490000       15.9994           0
      7333 MEMB     56       POPS     C31      CL       0.900000       12.0110           0
      7334 MEMB     56       POPS     O32      OBL     -0.630000       15.9994           0
      7335 MEMB     56       POPS     C32      CTL2    -0.220000       12.0110           0
      7336 MEMB     56       POPS     H2X      HAL2     0.900000E-01   1.00800           0
      7337 MEMB     56       POPS     H2Y      HAL2     0.900000E-01   1.00800           0
      7338 MEMB     56       POPS     C23      CTL2    -0.180000       12.0110           0
      7339 MEMB     56       POPS     H3R      HAL2     0.900000E-01   1.00800           0
      7340 MEMB     56       POPS     H3S      HAL2     0.900000E-01   1.00800           0
      7341 MEMB     56       POPS     C24      CTL2    -0.180000       12.0110           0
      7342 MEMB     56       POPS     H4R      HAL2     0.900000E-01   1.00800           0
      7343 MEMB     56       POPS     H4S      HAL2     0.900000E-01   1.00800           0
      7344 MEMB     56       POPS     C25      CTL2    -0.180000       12.0110           0
      7345 MEMB     56       POPS     H5R      HAL2     0.900000E-01   1.00800           0
      7346 MEMB     56       POPS     H5S      HAL2     0.900000E-01   1.00800           0
      7347 MEMB     56       POPS     C26      CTL2    -0.180000       12.0110           0
      7348 MEMB     56       POPS     H6R      HAL2     0.900000E-01   1.00800           0
      7349 MEMB     56       POPS     H6S      HAL2     0.900000E-01   1.00800           0
      7350 MEMB     56       POPS     C27      CTL2    -0.180000       12.0110           0
      7351 MEMB     56       POPS     H7R      HAL2     0.900000E-01   1.00800           0
      7352 MEMB     56       POPS     H7S      HAL2     0.900000E-01   1.00800           0
      7353 MEMB     56       POPS     C28      CTL2    -0.180000       12.0110           0
      7354 MEMB     56       POPS     H8R      HAL2     0.900000E-01   1.00800           0
      7355 MEMB     56       POPS     H8S      HAL2     0.900000E-01   1.00800           0
      7356 MEMB     56       POPS     C29      CEL1    -0.150000       12.0110           0
      7357 MEMB     56       POPS     H91      HEL1     0.150000       1.00800           0
      7358 MEMB     56       POPS     C210     CEL1    -0.150000       12.0110           0
      7359 MEMB     56       POPS     H101     HEL1     0.150000       1.00800           0
      7360 MEMB     56       POPS     C211     CTL2    -0.180000       12.0110           0
      7361 MEMB     56       POPS     H11R     HAL2     0.900000E-01   1.00800           0
      7362 MEMB     56       POPS     H11S     HAL2     0.900000E-01   1.00800           0
      7363 MEMB     56       POPS     C212     CTL2    -0.180000       12.0110           0
      7364 MEMB     56       POPS     H12R     HAL2     0.900000E-01   1.00800           0
      7365 MEMB     56       POPS     H12S     HAL2     0.900000E-01   1.00800           0
      7366 MEMB     56       POPS     C213     CTL2    -0.180000       12.0110           0
      7367 MEMB     56       POPS     H13R     HAL2     0.900000E-01   1.00800           0
      7368 MEMB     56       POPS     H13S     HAL2     0.900000E-01   1.00800           0
      7369 MEMB     56       POPS     C214     CTL2    -0.180000       12.0110           0
      7370 MEMB     56       POPS     H14R     HAL2     0.900000E-01   1.00800           0
      7371 MEMB     56       POPS     H14S     HAL2     0.900000E-01   1.00800           0
      7372 MEMB     56       POPS     C215     CTL2    -0.180000       12.0110           0
      7373 MEMB     56       POPS     H15R     HAL2     0.900000E-01   1.00800           0
      7374 MEMB     56       POPS     H15S     HAL2     0.900000E-01   1.00800           0
      7375 MEMB     56       POPS     C216     CTL2    -0.180000       12.0110           0
      7376 MEMB     56       POPS     H16R     HAL2     0.900000E-01   1.00800           0
      7377 MEMB     56       POPS     H16S     HAL2     0.900000E-01   1.00800           0
      7378 MEMB     56       POPS     C217     CTL2    -0.180000       12.0110           0
      7379 MEMB     56       POPS     H17R     HAL2     0.900000E-01   1.00800           0
      7380 MEMB     56       POPS     H17S     HAL2     0.900000E-01   1.00800           0
      7381 MEMB     56       POPS     C218     CTL3    -0.270000       12.0110           0
      7382 MEMB     56       POPS     H18R     HAL3     0.900000E-01   1.00800           0
      7383 MEMB     56       POPS     H18S     HAL3     0.900000E-01   1.00800           0
      7384 MEMB     56       POPS     H18T     HAL3     0.900000E-01   1.00800           0
      7385 MEMB     56       POPS     C33      CTL2    -0.180000       12.0110           0
      7386 MEMB     56       POPS     H3X      HAL2     0.900000E-01   1.00800           0
      7387 MEMB     56       POPS     H3Y      HAL2     0.900000E-01   1.00800           0
      7388 MEMB     56       POPS     C34      CTL2    -0.180000       12.0110           0
      7389 MEMB     56       POPS     H4X      HAL2     0.900000E-01   1.00800           0
      7390 MEMB     56       POPS     H4Y      HAL2     0.900000E-01   1.00800           0
      7391 MEMB     56       POPS     C35      CTL2    -0.180000       12.0110           0
      7392 MEMB     56       POPS     H5X      HAL2     0.900000E-01   1.00800           0
      7393 MEMB     56       POPS     H5Y      HAL2     0.900000E-01   1.00800           0
      7394 MEMB     56       POPS     C36      CTL2    -0.180000       12.0110           0
      7395 MEMB     56       POPS     H6X      HAL2     0.900000E-01   1.00800           0
      7396 MEMB     56       POPS     H6Y      HAL2     0.900000E-01   1.00800           0
      7397 MEMB     56       POPS     C37      CTL2    -0.180000       12.0110           0
      7398 MEMB     56       POPS     H7X      HAL2     0.900000E-01   1.00800           0
      7399 MEMB     56       POPS     H7Y      HAL2     0.900000E-01   1.00800           0
      7400 MEMB     56       POPS     C38      CTL2    -0.180000       12.0110           0
      7401 MEMB     56       POPS     H8X      HAL2     0.900000E-01   1.00800           0
      7402 MEMB     56       POPS     H8Y      HAL2     0.900000E-01   1.00800           0
      7403 MEMB     56       POPS     C39      CTL2    -0.180000       12.0110           0
      7404 MEMB     56       POPS     H9X      HAL2     0.900000E-01   1.00800           0
      7405 MEMB     56       POPS     H9Y      HAL2     0.900000E-01   1.00800           0
      7406 MEMB     56       POPS     C310     CTL2    -0.180000       12.0110           0
      7407 MEMB     56       POPS     H10X     HAL2     0.900000E-01   1.00800           0
      7408 MEMB     56       POPS     H10Y     HAL2     0.900000E-01   1.00800           0
      7409 MEMB     56       POPS     C311     CTL2    -0.180000       12.0110           0
      7410 MEMB     56       POPS     H11X     HAL2     0.900000E-01   1.00800           0
      7411 MEMB     56       POPS     H11Y     HAL2     0.900000E-01   1.00800           0
      7412 MEMB     56       POPS     C312     CTL2    -0.180000       12.0110           0
      7413 MEMB     56       POPS     H12X     HAL2     0.900000E-01   1.00800           0
      7414 MEMB     56       POPS     H12Y     HAL2     0.900000E-01   1.00800           0
      7415 MEMB     56       POPS     C313     CTL2    -0.180000       12.0110           0
      7416 MEMB     56       POPS     H13X     HAL2     0.900000E-01   1.00800           0
      7417 MEMB     56       POPS     H13Y     HAL2     0.900000E-01   1.00800           0
      7418 MEMB     56       POPS     C314     CTL2    -0.180000       12.0110           0
      7419 MEMB     56       POPS     H14X     HAL2     0.900000E-01   1.00800           0
      7420 MEMB     56       POPS     H14Y     HAL2     0.900000E-01   1.00800           0
      7421 MEMB     56       POPS     C315     CTL2    -0.180000       12.0110           0
      7422 MEMB     56       POPS     H15X     HAL2     0.900000E-01   1.00800           0
      7423 MEMB     56       POPS     H15Y     HAL2     0.900000E-01   1.00800           0
      7424 MEMB     56       POPS     C316     CTL3    -0.270000       12.0110           0
      7425 MEMB     56       POPS     H16X     HAL3     0.900000E-01   1.00800           0
      7426 MEMB     56       POPS     H16Y     HAL3     0.900000E-01   1.00800           0
      7427 MEMB     56       POPS     H16Z     HAL3     0.900000E-01   1.00800           0
      7428 MEMB     57       POPC     N        NTL     -0.600000       14.0070           0
      7429 MEMB     57       POPC     C12      CTL2    -0.100000       12.0110           0
      7430 MEMB     57       POPC     H12A     HL       0.250000       1.00800           0
      7431 MEMB     57       POPC     H12B     HL       0.250000       1.00800           0
      7432 MEMB     57       POPC     C13      CTL5    -0.350000       12.0110           0
      7433 MEMB     57       POPC     H13A     HL       0.250000       1.00800           0
      7434 MEMB     57       POPC     H13B     HL       0.250000       1.00800           0
      7435 MEMB     57       POPC     H13C     HL       0.250000       1.00800           0
      7436 MEMB     57       POPC     C14      CTL5    -0.350000       12.0110           0
      7437 MEMB     57       POPC     H14A     HL       0.250000       1.00800           0
      7438 MEMB     57       POPC     H14B     HL       0.250000       1.00800           0
      7439 MEMB     57       POPC     H14C     HL       0.250000       1.00800           0
      7440 MEMB     57       POPC     C15      CTL5    -0.350000       12.0110           0
      7441 MEMB     57       POPC     H15A     HL       0.250000       1.00800           0
      7442 MEMB     57       POPC     H15B     HL       0.250000       1.00800           0
      7443 MEMB     57       POPC     H15C     HL       0.250000       1.00800           0
      7444 MEMB     57       POPC     C11      CTL2    -0.800000E-01   12.0110           0
      7445 MEMB     57       POPC     H11A     HAL2     0.900000E-01   1.00800           0
      7446 MEMB     57       POPC     H11B     HAL2     0.900000E-01   1.00800           0
      7447 MEMB     57       POPC     P        PL        1.50000       30.9740           0
      7448 MEMB     57       POPC     O13      O2L     -0.780000       15.9994           0
      7449 MEMB     57       POPC     O14      O2L     -0.780000       15.9994           0
      7450 MEMB     57       POPC     O12      OSLP    -0.570000       15.9994           0
      7451 MEMB     57       POPC     O11      OSLP    -0.570000       15.9994           0
      7452 MEMB     57       POPC     C1       CTL2    -0.800000E-01   12.0110           0
      7453 MEMB     57       POPC     HA       HAL2     0.900000E-01   1.00800           0
      7454 MEMB     57       POPC     HB       HAL2     0.900000E-01   1.00800           0
      7455 MEMB     57       POPC     C2       CTL1     0.170000       12.0110           0
      7456 MEMB     57       POPC     HS       HAL1     0.900000E-01   1.00800           0
      7457 MEMB     57       POPC     O21      OSL     -0.490000       15.9994           0
      7458 MEMB     57       POPC     C21      CL       0.900000       12.0110           0
      7459 MEMB     57       POPC     O22      OBL     -0.630000       15.9994           0
      7460 MEMB     57       POPC     C22      CTL2    -0.220000       12.0110           0
      7461 MEMB     57       POPC     H2R      HAL2     0.900000E-01   1.00800           0
      7462 MEMB     57       POPC     H2S      HAL2     0.900000E-01   1.00800           0
      7463 MEMB     57       POPC     C3       CTL2     0.800000E-01   12.0110           0
      7464 MEMB     57       POPC     HX       HAL2     0.900000E-01   1.00800           0
      7465 MEMB     57       POPC     HY       HAL2     0.900000E-01   1.00800           0
      7466 MEMB     57       POPC     O31      OSL     -0.490000       15.9994           0
      7467 MEMB     57       POPC     C31      CL       0.900000       12.0110           0
      7468 MEMB     57       POPC     O32      OBL     -0.630000       15.9994           0
      7469 MEMB     57       POPC     C32      CTL2    -0.220000       12.0110           0
      7470 MEMB     57       POPC     H2X      HAL2     0.900000E-01   1.00800           0
      7471 MEMB     57       POPC     H2Y      HAL2     0.900000E-01   1.00800           0
      7472 MEMB     57       POPC     C23      CTL2    -0.180000       12.0110           0
      7473 MEMB     57       POPC     H3R      HAL2     0.900000E-01   1.00800           0
      7474 MEMB     57       POPC     H3S      HAL2     0.900000E-01   1.00800           0
      7475 MEMB     57       POPC     C24      CTL2    -0.180000       12.0110           0
      7476 MEMB     57       POPC     H4R      HAL2     0.900000E-01   1.00800           0
      7477 MEMB     57       POPC     H4S      HAL2     0.900000E-01   1.00800           0
      7478 MEMB     57       POPC     C25      CTL2    -0.180000       12.0110           0
      7479 MEMB     57       POPC     H5R      HAL2     0.900000E-01   1.00800           0
      7480 MEMB     57       POPC     H5S      HAL2     0.900000E-01   1.00800           0
      7481 MEMB     57       POPC     C26      CTL2    -0.180000       12.0110           0
      7482 MEMB     57       POPC     H6R      HAL2     0.900000E-01   1.00800           0
      7483 MEMB     57       POPC     H6S      HAL2     0.900000E-01   1.00800           0
      7484 MEMB     57       POPC     C27      CTL2    -0.180000       12.0110           0
      7485 MEMB     57       POPC     H7R      HAL2     0.900000E-01   1.00800           0
      7486 MEMB     57       POPC     H7S      HAL2     0.900000E-01   1.00800           0
      7487 MEMB     57       POPC     C28      CTL2    -0.180000       12.0110           0
      7488 MEMB     57       POPC     H8R      HAL2     0.900000E-01   1.00800           0
      7489 MEMB     57       POPC     H8S      HAL2     0.900000E-01   1.00800           0
      7490 MEMB     57       POPC     C29      CEL1    -0.150000       12.0110           0
      7491 MEMB     57       POPC     H91      HEL1     0.150000       1.00800           0
      7492 MEMB     57       POPC     C210     CEL1    -0.150000       12.0110           0
      7493 MEMB     57       POPC     H101     HEL1     0.150000       1.00800           0
      7494 MEMB     57       POPC     C211     CTL2    -0.180000       12.0110           0
      7495 MEMB     57       POPC     H11R     HAL2     0.900000E-01   1.00800           0
      7496 MEMB     57       POPC     H11S     HAL2     0.900000E-01   1.00800           0
      7497 MEMB     57       POPC     C212     CTL2    -0.180000       12.0110           0
      7498 MEMB     57       POPC     H12R     HAL2     0.900000E-01   1.00800           0
      7499 MEMB     57       POPC     H12S     HAL2     0.900000E-01   1.00800           0
      7500 MEMB     57       POPC     C213     CTL2    -0.180000       12.0110           0
      7501 MEMB     57       POPC     H13R     HAL2     0.900000E-01   1.00800           0
      7502 MEMB     57       POPC     H13S     HAL2     0.900000E-01   1.00800           0
      7503 MEMB     57       POPC     C214     CTL2    -0.180000       12.0110           0
      7504 MEMB     57       POPC     H14R     HAL2     0.900000E-01   1.00800           0
      7505 MEMB     57       POPC     H14S     HAL2     0.900000E-01   1.00800           0
      7506 MEMB     57       POPC     C215     CTL2    -0.180000       12.0110           0
      7507 MEMB     57       POPC     H15R     HAL2     0.900000E-01   1.00800           0
      7508 MEMB     57       POPC     H15S     HAL2     0.900000E-01   1.00800           0
      7509 MEMB     57       POPC     C216     CTL2    -0.180000       12.0110           0
      7510 MEMB     57       POPC     H16R     HAL2     0.900000E-01   1.00800           0
      7511 MEMB     57       POPC     H16S     HAL2     0.900000E-01   1.00800           0
      7512 MEMB     57       POPC     C217     CTL2    -0.180000       12.0110           0
      7513 MEMB     57       POPC     H17R     HAL2     0.900000E-01   1.00800           0
      7514 MEMB     57       POPC     H17S     HAL2     0.900000E-01   1.00800           0
      7515 MEMB     57       POPC     C218     CTL3    -0.270000       12.0110           0
      7516 MEMB     57       POPC     H18R     HAL3     0.900000E-01   1.00800           0
      7517 MEMB     57       POPC     H18S     HAL3     0.900000E-01   1.00800           0
      7518 MEMB     57       POPC     H18T     HAL3     0.900000E-01   1.00800           0
      7519 MEMB     57       POPC     C33      CTL2    -0.180000       12.0110           0
      7520 MEMB     57       POPC     H3X      HAL2     0.900000E-01   1.00800           0
      7521 MEMB     57       POPC     H3Y      HAL2     0.900000E-01   1.00800           0
      7522 MEMB     57       POPC     C34      CTL2    -0.180000       12.0110           0
      7523 MEMB     57       POPC     H4X      HAL2     0.900000E-01   1.00800           0
      7524 MEMB     57       POPC     H4Y      HAL2     0.900000E-01   1.00800           0
      7525 MEMB     57       POPC     C35      CTL2    -0.180000       12.0110           0
      7526 MEMB     57       POPC     H5X      HAL2     0.900000E-01   1.00800           0
      7527 MEMB     57       POPC     H5Y      HAL2     0.900000E-01   1.00800           0
      7528 MEMB     57       POPC     C36      CTL2    -0.180000       12.0110           0
      7529 MEMB     57       POPC     H6X      HAL2     0.900000E-01   1.00800           0
      7530 MEMB     57       POPC     H6Y      HAL2     0.900000E-01   1.00800           0
      7531 MEMB     57       POPC     C37      CTL2    -0.180000       12.0110           0
      7532 MEMB     57       POPC     H7X      HAL2     0.900000E-01   1.00800           0
      7533 MEMB     57       POPC     H7Y      HAL2     0.900000E-01   1.00800           0
      7534 MEMB     57       POPC     C38      CTL2    -0.180000       12.0110           0
      7535 MEMB     57       POPC     H8X      HAL2     0.900000E-01   1.00800           0
      7536 MEMB     57       POPC     H8Y      HAL2     0.900000E-01   1.00800           0
      7537 MEMB     57       POPC     C39      CTL2    -0.180000       12.0110           0
      7538 MEMB     57       POPC     H9X      HAL2     0.900000E-01   1.00800           0
      7539 MEMB     57       POPC     H9Y      HAL2     0.900000E-01   1.00800           0
      7540 MEMB     57       POPC     C310     CTL2    -0.180000       12.0110           0
      7541 MEMB     57       POPC     H10X     HAL2     0.900000E-01   1.00800           0
      7542 MEMB     57       POPC     H10Y     HAL2     0.900000E-01   1.00800           0
      7543 MEMB     57       POPC     C311     CTL2    -0.180000       12.0110           0
      7544 MEMB     57       POPC     H11X     HAL2     0.900000E-01   1.00800           0
      7545 MEMB     57       POPC     H11Y     HAL2     0.900000E-01   1.00800           0
      7546 MEMB     57       POPC     C312     CTL2    -0.180000       12.0110           0
      7547 MEMB     57       POPC     H12X     HAL2     0.900000E-01   1.00800           0
      7548 MEMB     57       POPC     H12Y     HAL2     0.900000E-01   1.00800           0
      7549 MEMB     57       POPC     C313     CTL2    -0.180000       12.0110           0
      7550 MEMB     57       POPC     H13X     HAL2     0.900000E-01   1.00800           0
      7551 MEMB     57       POPC     H13Y     HAL2     0.900000E-01   1.00800           0
      7552 MEMB     57       POPC     C314     CTL2    -0.180000       12.0110           0
      7553 MEMB     57       POPC     H14X     HAL2     0.900000E-01   1.00800           0
      7554 MEMB     57       POPC     H14Y     HAL2     0.900000E-01   1.00800           0
      7555 MEMB     57       POPC     C315     CTL2    -0.180000       12.0110           0
      7556 MEMB     57       POPC     H15X     HAL2     0.900000E-01   1.00800           0
      7557 MEMB     57       POPC     H15Y     HAL2     0.900000E-01   1.00800           0
      7558 MEMB     57       POPC     C316     CTL3    -0.270000       12.0110           0
      7559 MEMB     57       POPC     H16X     HAL3     0.900000E-01   1.00800           0
      7560 MEMB     57       POPC     H16Y     HAL3     0.900000E-01   1.00800           0
      7561 MEMB     57       POPC     H16Z     HAL3     0.900000E-01   1.00800           0
      7562 MEMB     58       POPC     N        NTL     -0.600000       14.0070           0
      7563 MEMB     58       POPC     C12      CTL2    -0.100000       12.0110           0
      7564 MEMB     58       POPC     H12A     HL       0.250000       1.00800           0
      7565 MEMB     58       POPC     H12B     HL       0.250000       1.00800           0
      7566 MEMB     58       POPC     C13      CTL5    -0.350000       12.0110           0
      7567 MEMB     58       POPC     H13A     HL       0.250000       1.00800           0
      7568 MEMB     58       POPC     H13B     HL       0.250000       1.00800           0
      7569 MEMB     58       POPC     H13C     HL       0.250000       1.00800           0
      7570 MEMB     58       POPC     C14      CTL5    -0.350000       12.0110           0
      7571 MEMB     58       POPC     H14A     HL       0.250000       1.00800           0
      7572 MEMB     58       POPC     H14B     HL       0.250000       1.00800           0
      7573 MEMB     58       POPC     H14C     HL       0.250000       1.00800           0
      7574 MEMB     58       POPC     C15      CTL5    -0.350000       12.0110           0
      7575 MEMB     58       POPC     H15A     HL       0.250000       1.00800           0
      7576 MEMB     58       POPC     H15B     HL       0.250000       1.00800           0
      7577 MEMB     58       POPC     H15C     HL       0.250000       1.00800           0
      7578 MEMB     58       POPC     C11      CTL2    -0.800000E-01   12.0110           0
      7579 MEMB     58       POPC     H11A     HAL2     0.900000E-01   1.00800           0
      7580 MEMB     58       POPC     H11B     HAL2     0.900000E-01   1.00800           0
      7581 MEMB     58       POPC     P        PL        1.50000       30.9740           0
      7582 MEMB     58       POPC     O13      O2L     -0.780000       15.9994           0
      7583 MEMB     58       POPC     O14      O2L     -0.780000       15.9994           0
      7584 MEMB     58       POPC     O12      OSLP    -0.570000       15.9994           0
      7585 MEMB     58       POPC     O11      OSLP    -0.570000       15.9994           0
      7586 MEMB     58       POPC     C1       CTL2    -0.800000E-01   12.0110           0
      7587 MEMB     58       POPC     HA       HAL2     0.900000E-01   1.00800           0
      7588 MEMB     58       POPC     HB       HAL2     0.900000E-01   1.00800           0
      7589 MEMB     58       POPC     C2       CTL1     0.170000       12.0110           0
      7590 MEMB     58       POPC     HS       HAL1     0.900000E-01   1.00800           0
      7591 MEMB     58       POPC     O21      OSL     -0.490000       15.9994           0
      7592 MEMB     58       POPC     C21      CL       0.900000       12.0110           0
      7593 MEMB     58       POPC     O22      OBL     -0.630000       15.9994           0
      7594 MEMB     58       POPC     C22      CTL2    -0.220000       12.0110           0
      7595 MEMB     58       POPC     H2R      HAL2     0.900000E-01   1.00800           0
      7596 MEMB     58       POPC     H2S      HAL2     0.900000E-01   1.00800           0
      7597 MEMB     58       POPC     C3       CTL2     0.800000E-01   12.0110           0
      7598 MEMB     58       POPC     HX       HAL2     0.900000E-01   1.00800           0
      7599 MEMB     58       POPC     HY       HAL2     0.900000E-01   1.00800           0
      7600 MEMB     58       POPC     O31      OSL     -0.490000       15.9994           0
      7601 MEMB     58       POPC     C31      CL       0.900000       12.0110           0
      7602 MEMB     58       POPC     O32      OBL     -0.630000       15.9994           0
      7603 MEMB     58       POPC     C32      CTL2    -0.220000       12.0110           0
      7604 MEMB     58       POPC     H2X      HAL2     0.900000E-01   1.00800           0
      7605 MEMB     58       POPC     H2Y      HAL2     0.900000E-01   1.00800           0
      7606 MEMB     58       POPC     C23      CTL2    -0.180000       12.0110           0
      7607 MEMB     58       POPC     H3R      HAL2     0.900000E-01   1.00800           0
      7608 MEMB     58       POPC     H3S      HAL2     0.900000E-01   1.00800           0
      7609 MEMB     58       POPC     C24      CTL2    -0.180000       12.0110           0
      7610 MEMB     58       POPC     H4R      HAL2     0.900000E-01   1.00800           0
      7611 MEMB     58       POPC     H4S      HAL2     0.900000E-01   1.00800           0
      7612 MEMB     58       POPC     C25      CTL2    -0.180000       12.0110           0
      7613 MEMB     58       POPC     H5R      HAL2     0.900000E-01   1.00800           0
      7614 MEMB     58       POPC     H5S      HAL2     0.900000E-01   1.00800           0
      7615 MEMB     58       POPC     C26      CTL2    -0.180000       12.0110           0
      7616 MEMB     58       POPC     H6R      HAL2     0.900000E-01   1.00800           0
      7617 MEMB     58       POPC     H6S      HAL2     0.900000E-01   1.00800           0
      7618 MEMB     58       POPC     C27      CTL2    -0.180000       12.0110           0
      7619 MEMB     58       POPC     H7R      HAL2     0.900000E-01   1.00800           0
      7620 MEMB     58       POPC     H7S      HAL2     0.900000E-01   1.00800           0
      7621 MEMB     58       POPC     C28      CTL2    -0.180000       12.0110           0
      7622 MEMB     58       POPC     H8R      HAL2     0.900000E-01   1.00800           0
      7623 MEMB     58       POPC     H8S      HAL2     0.900000E-01   1.00800           0
      7624 MEMB     58       POPC     C29      CEL1    -0.150000       12.0110           0
      7625 MEMB     58       POPC     H91      HEL1     0.150000       1.00800           0
      7626 MEMB     58       POPC     C210     CEL1    -0.150000       12.0110           0
      7627 MEMB     58       POPC     H101     HEL1     0.150000       1.00800           0
      7628 MEMB     58       POPC     C211     CTL2    -0.180000       12.0110           0
      7629 MEMB     58       POPC     H11R     HAL2     0.900000E-01   1.00800           0
      7630 MEMB     58       POPC     H11S     HAL2     0.900000E-01   1.00800           0
      7631 MEMB     58       POPC     C212     CTL2    -0.180000       12.0110           0
      7632 MEMB     58       POPC     H12R     HAL2     0.900000E-01   1.00800           0
      7633 MEMB     58       POPC     H12S     HAL2     0.900000E-01   1.00800           0
      7634 MEMB     58       POPC     C213     CTL2    -0.180000       12.0110           0
      7635 MEMB     58       POPC     H13R     HAL2     0.900000E-01   1.00800           0
      7636 MEMB     58       POPC     H13S     HAL2     0.900000E-01   1.00800           0
      7637 MEMB     58       POPC     C214     CTL2    -0.180000       12.0110           0
      7638 MEMB     58       POPC     H14R     HAL2     0.900000E-01   1.00800           0
      7639 MEMB     58       POPC     H14S     HAL2     0.900000E-01   1.00800           0
      7640 MEMB     58       POPC     C215     CTL2    -0.180000       12.0110           0
      7641 MEMB     58       POPC     H15R     HAL2     0.900000E-01   1.00800           0
      7642 MEMB     58       POPC     H15S     HAL2     0.900000E-01   1.00800           0
      7643 MEMB     58       POPC     C216     CTL2    -0.180000       12.0110           0
      7644 MEMB     58       POPC     H16R     HAL2     0.900000E-01   1.00800           0
      7645 MEMB     58       POPC     H16S     HAL2     0.900000E-01   1.00800           0
      7646 MEMB     58       POPC     C217     CTL2    -0.180000       12.0110           0
      7647 MEMB     58       POPC     H17R     HAL2     0.900000E-01   1.00800           0
      7648 MEMB     58       POPC     H17S     HAL2     0.900000E-01   1.00800           0
      7649 MEMB     58       POPC     C218     CTL3    -0.270000       12.0110           0
      7650 MEMB     58       POPC     H18R     HAL3     0.900000E-01   1.00800           0
      7651 MEMB     58       POPC     H18S     HAL3     0.900000E-01   1.00800           0
      7652 MEMB     58       POPC     H18T     HAL3     0.900000E-01   1.00800           0
      7653 MEMB     58       POPC     C33      CTL2    -0.180000       12.0110           0
      7654 MEMB     58       POPC     H3X      HAL2     0.900000E-01   1.00800           0
      7655 MEMB     58       POPC     H3Y      HAL2     0.900000E-01   1.00800           0
      7656 MEMB     58       POPC     C34      CTL2    -0.180000       12.0110           0
      7657 MEMB     58       POPC     H4X      HAL2     0.900000E-01   1.00800           0
      7658 MEMB     58       POPC     H4Y      HAL2     0.900000E-01   1.00800           0
      7659 MEMB     58       POPC     C35      CTL2    -0.180000       12.0110           0
      7660 MEMB     58       POPC     H5X      HAL2     0.900000E-01   1.00800           0
      7661 MEMB     58       POPC     H5Y      HAL2     0.900000E-01   1.00800           0
      7662 MEMB     58       POPC     C36      CTL2    -0.180000       12.0110           0
      7663 MEMB     58       POPC     H6X      HAL2     0.900000E-01   1.00800           0
      7664 MEMB     58       POPC     H6Y      HAL2     0.900000E-01   1.00800           0
      7665 MEMB     58       POPC     C37      CTL2    -0.180000       12.0110           0
      7666 MEMB     58       POPC     H7X      HAL2     0.900000E-01   1.00800           0
      7667 MEMB     58       POPC     H7Y      HAL2     0.900000E-01   1.00800           0
      7668 MEMB     58       POPC     C38      CTL2    -0.180000       12.0110           0
      7669 MEMB     58       POPC     H8X      HAL2     0.900000E-01   1.00800           0
      7670 MEMB     58       POPC     H8Y      HAL2     0.900000E-01   1.00800           0
      7671 MEMB     58       POPC     C39      CTL2    -0.180000       12.0110           0
      7672 MEMB     58       POPC     H9X      HAL2     0.900000E-01   1.00800           0
      7673 MEMB     58       POPC     H9Y      HAL2     0.900000E-01   1.00800           0
      7674 MEMB     58       POPC     C310     CTL2    -0.180000       12.0110           0
      7675 MEMB     58       POPC     H10X     HAL2     0.900000E-01   1.00800           0
      7676 MEMB     58       POPC     H10Y     HAL2     0.900000E-01   1.00800           0
      7677 MEMB     58       POPC     C311     CTL2    -0.180000       12.0110           0
      7678 MEMB     58       POPC     H11X     HAL2     0.900000E-01   1.00800           0
      7679 MEMB     58       POPC     H11Y     HAL2     0.900000E-01   1.00800           0
      7680 MEMB     58       POPC     C312     CTL2    -0.180000       12.0110           0
      7681 MEMB     58       POPC     H12X     HAL2     0.900000E-01   1.00800           0
      7682 MEMB     58       POPC     H12Y     HAL2     0.900000E-01   1.00800           0
      7683 MEMB     58       POPC     C313     CTL2    -0.180000       12.0110           0
      7684 MEMB     58       POPC     H13X     HAL2     0.900000E-01   1.00800           0
      7685 MEMB     58       POPC     H13Y     HAL2     0.900000E-01   1.00800           0
      7686 MEMB     58       POPC     C314     CTL2    -0.180000       12.0110           0
      7687 MEMB     58       POPC     H14X     HAL2     0.900000E-01   1.00800           0
      7688 MEMB     58       POPC     H14Y     HAL2     0.900000E-01   1.00800           0
      7689 MEMB     58       POPC     C315     CTL2    -0.180000       12.0110           0
      7690 MEMB     58       POPC     H15X     HAL2     0.900000E-01   1.00800           0
      7691 MEMB     58       POPC     H15Y     HAL2     0.900000E-01   1.00800           0
      7692 MEMB     58       POPC     C316     CTL3    -0.270000       12.0110           0
      7693 MEMB     58       POPC     H16X     HAL3     0.900000E-01   1.00800           0
      7694 MEMB     58       POPC     H16Y     HAL3     0.900000E-01   1.00800           0
      7695 MEMB     58       POPC     H16Z     HAL3     0.900000E-01   1.00800           0
      7696 MEMB     59       POPC     N        NTL     -0.600000       14.0070           0
      7697 MEMB     59       POPC     C12      CTL2    -0.100000       12.0110           0
      7698 MEMB     59       POPC     H12A     HL       0.250000       1.00800           0
      7699 MEMB     59       POPC     H12B     HL       0.250000       1.00800           0
      7700 MEMB     59       POPC     C13      CTL5    -0.350000       12.0110           0
      7701 MEMB     59       POPC     H13A     HL       0.250000       1.00800           0
      7702 MEMB     59       POPC     H13B     HL       0.250000       1.00800           0
      7703 MEMB     59       POPC     H13C     HL       0.250000       1.00800           0
      7704 MEMB     59       POPC     C14      CTL5    -0.350000       12.0110           0
      7705 MEMB     59       POPC     H14A     HL       0.250000       1.00800           0
      7706 MEMB     59       POPC     H14B     HL       0.250000       1.00800           0
      7707 MEMB     59       POPC     H14C     HL       0.250000       1.00800           0
      7708 MEMB     59       POPC     C15      CTL5    -0.350000       12.0110           0
      7709 MEMB     59       POPC     H15A     HL       0.250000       1.00800           0
      7710 MEMB     59       POPC     H15B     HL       0.250000       1.00800           0
      7711 MEMB     59       POPC     H15C     HL       0.250000       1.00800           0
      7712 MEMB     59       POPC     C11      CTL2    -0.800000E-01   12.0110           0
      7713 MEMB     59       POPC     H11A     HAL2     0.900000E-01   1.00800           0
      7714 MEMB     59       POPC     H11B     HAL2     0.900000E-01   1.00800           0
      7715 MEMB     59       POPC     P        PL        1.50000       30.9740           0
      7716 MEMB     59       POPC     O13      O2L     -0.780000       15.9994           0
      7717 MEMB     59       POPC     O14      O2L     -0.780000       15.9994           0
      7718 MEMB     59       POPC     O12      OSLP    -0.570000       15.9994           0
      7719 MEMB     59       POPC     O11      OSLP    -0.570000       15.9994           0
      7720 MEMB     59       POPC     C1       CTL2    -0.800000E-01   12.0110           0
      7721 MEMB     59       POPC     HA       HAL2     0.900000E-01   1.00800           0
      7722 MEMB     59       POPC     HB       HAL2     0.900000E-01   1.00800           0
      7723 MEMB     59       POPC     C2       CTL1     0.170000       12.0110           0
      7724 MEMB     59       POPC     HS       HAL1     0.900000E-01   1.00800           0
      7725 MEMB     59       POPC     O21      OSL     -0.490000       15.9994           0
      7726 MEMB     59       POPC     C21      CL       0.900000       12.0110           0
      7727 MEMB     59       POPC     O22      OBL     -0.630000       15.9994           0
      7728 MEMB     59       POPC     C22      CTL2    -0.220000       12.0110           0
      7729 MEMB     59       POPC     H2R      HAL2     0.900000E-01   1.00800           0
      7730 MEMB     59       POPC     H2S      HAL2     0.900000E-01   1.00800           0
      7731 MEMB     59       POPC     C3       CTL2     0.800000E-01   12.0110           0
      7732 MEMB     59       POPC     HX       HAL2     0.900000E-01   1.00800           0
      7733 MEMB     59       POPC     HY       HAL2     0.900000E-01   1.00800           0
      7734 MEMB     59       POPC     O31      OSL     -0.490000       15.9994           0
      7735 MEMB     59       POPC     C31      CL       0.900000       12.0110           0
      7736 MEMB     59       POPC     O32      OBL     -0.630000       15.9994           0
      7737 MEMB     59       POPC     C32      CTL2    -0.220000       12.0110           0
      7738 MEMB     59       POPC     H2X      HAL2     0.900000E-01   1.00800           0
      7739 MEMB     59       POPC     H2Y      HAL2     0.900000E-01   1.00800           0
      7740 MEMB     59       POPC     C23      CTL2    -0.180000       12.0110           0
      7741 MEMB     59       POPC     H3R      HAL2     0.900000E-01   1.00800           0
      7742 MEMB     59       POPC     H3S      HAL2     0.900000E-01   1.00800           0
      7743 MEMB     59       POPC     C24      CTL2    -0.180000       12.0110           0
      7744 MEMB     59       POPC     H4R      HAL2     0.900000E-01   1.00800           0
      7745 MEMB     59       POPC     H4S      HAL2     0.900000E-01   1.00800           0
      7746 MEMB     59       POPC     C25      CTL2    -0.180000       12.0110           0
      7747 MEMB     59       POPC     H5R      HAL2     0.900000E-01   1.00800           0
      7748 MEMB     59       POPC     H5S      HAL2     0.900000E-01   1.00800           0
      7749 MEMB     59       POPC     C26      CTL2    -0.180000       12.0110           0
      7750 MEMB     59       POPC     H6R      HAL2     0.900000E-01   1.00800           0
      7751 MEMB     59       POPC     H6S      HAL2     0.900000E-01   1.00800           0
      7752 MEMB     59       POPC     C27      CTL2    -0.180000       12.0110           0
      7753 MEMB     59       POPC     H7R      HAL2     0.900000E-01   1.00800           0
      7754 MEMB     59       POPC     H7S      HAL2     0.900000E-01   1.00800           0
      7755 MEMB     59       POPC     C28      CTL2    -0.180000       12.0110           0
      7756 MEMB     59       POPC     H8R      HAL2     0.900000E-01   1.00800           0
      7757 MEMB     59       POPC     H8S      HAL2     0.900000E-01   1.00800           0
      7758 MEMB     59       POPC     C29      CEL1    -0.150000       12.0110           0
      7759 MEMB     59       POPC     H91      HEL1     0.150000       1.00800           0
      7760 MEMB     59       POPC     C210     CEL1    -0.150000       12.0110           0
      7761 MEMB     59       POPC     H101     HEL1     0.150000       1.00800           0
      7762 MEMB     59       POPC     C211     CTL2    -0.180000       12.0110           0
      7763 MEMB     59       POPC     H11R     HAL2     0.900000E-01   1.00800           0
      7764 MEMB     59       POPC     H11S     HAL2     0.900000E-01   1.00800           0
      7765 MEMB     59       POPC     C212     CTL2    -0.180000       12.0110           0
      7766 MEMB     59       POPC     H12R     HAL2     0.900000E-01   1.00800           0
      7767 MEMB     59       POPC     H12S     HAL2     0.900000E-01   1.00800           0
      7768 MEMB     59       POPC     C213     CTL2    -0.180000       12.0110           0
      7769 MEMB     59       POPC     H13R     HAL2     0.900000E-01   1.00800           0
      7770 MEMB     59       POPC     H13S     HAL2     0.900000E-01   1.00800           0
      7771 MEMB     59       POPC     C214     CTL2    -0.180000       12.0110           0
      7772 MEMB     59       POPC     H14R     HAL2     0.900000E-01   1.00800           0
      7773 MEMB     59       POPC     H14S     HAL2     0.900000E-01   1.00800           0
      7774 MEMB     59       POPC     C215     CTL2    -0.180000       12.0110           0
      7775 MEMB     59       POPC     H15R     HAL2     0.900000E-01   1.00800           0
      7776 MEMB     59       POPC     H15S     HAL2     0.900000E-01   1.00800           0
      7777 MEMB     59       POPC     C216     CTL2    -0.180000       12.0110           0
      7778 MEMB     59       POPC     H16R     HAL2     0.900000E-01   1.00800           0
      7779 MEMB     59       POPC     H16S     HAL2     0.900000E-01   1.00800           0
      7780 MEMB     59       POPC     C217     CTL2    -0.180000       12.0110           0
      7781 MEMB     59       POPC     H17R     HAL2     0.900000E-01   1.00800           0
      7782 MEMB     59       POPC     H17S     HAL2     0.900000E-01   1.00800           0
      7783 MEMB     59       POPC     C218     CTL3    -0.270000       12.0110           0
      7784 MEMB     59       POPC     H18R     HAL3     0.900000E-01   1.00800           0
      7785 MEMB     59       POPC     H18S     HAL3     0.900000E-01   1.00800           0
      7786 MEMB     59       POPC     H18T     HAL3     0.900000E-01   1.00800           0
      7787 MEMB     59       POPC     C33      CTL2    -0.180000       12.0110           0
      7788 MEMB     59       POPC     H3X      HAL2     0.900000E-01   1.00800           0
      7789 MEMB     59       POPC     H3Y      HAL2     0.900000E-01   1.00800           0
      7790 MEMB     59       POPC     C34      CTL2    -0.180000       12.0110           0
      7791 MEMB     59       POPC     H4X      HAL2     0.900000E-01   1.00800           0
      7792 MEMB     59       POPC     H4Y      HAL2     0.900000E-01   1.00800           0
      7793 MEMB     59       POPC     C35      CTL2    -0.180000       12.0110           0
      7794 MEMB     59       POPC     H5X      HAL2     0.900000E-01   1.00800           0
      7795 MEMB     59       POPC     H5Y      HAL2     0.900000E-01   1.00800           0
      7796 MEMB     59       POPC     C36      CTL2    -0.180000       12.0110           0
      7797 MEMB     59       POPC     H6X      HAL2     0.900000E-01   1.00800           0
      7798 MEMB     59       POPC     H6Y      HAL2     0.900000E-01   1.00800           0
      7799 MEMB     59       POPC     C37      CTL2    -0.180000       12.0110           0
      7800 MEMB     59       POPC     H7X      HAL2     0.900000E-01   1.00800           0
      7801 MEMB     59       POPC     H7Y      HAL2     0.900000E-01   1.00800           0
      7802 MEMB     59       POPC     C38      CTL2    -0.180000       12.0110           0
      7803 MEMB     59       POPC     H8X      HAL2     0.900000E-01   1.00800           0
      7804 MEMB     59       POPC     H8Y      HAL2     0.900000E-01   1.00800           0
      7805 MEMB     59       POPC     C39      CTL2    -0.180000       12.0110           0
      7806 MEMB     59       POPC     H9X      HAL2     0.900000E-01   1.00800           0
      7807 MEMB     59       POPC     H9Y      HAL2     0.900000E-01   1.00800           0
      7808 MEMB     59       POPC     C310     CTL2    -0.180000       12.0110           0
      7809 MEMB     59       POPC     H10X     HAL2     0.900000E-01   1.00800           0
      7810 MEMB     59       POPC     H10Y     HAL2     0.900000E-01   1.00800           0
      7811 MEMB     59       POPC     C311     CTL2    -0.180000       12.0110           0
      7812 MEMB     59       POPC     H11X     HAL2     0.900000E-01   1.00800           0
      7813 MEMB     59       POPC     H11Y     HAL2     0.900000E-01   1.00800           0
      7814 MEMB     59       POPC     C312     CTL2    -0.180000       12.0110           0
      7815 MEMB     59       POPC     H12X     HAL2     0.900000E-01   1.00800           0
      7816 MEMB     59       POPC     H12Y     HAL2     0.900000E-01   1.00800           0
      7817 MEMB     59       POPC     C313     CTL2    -0.180000       12.0110           0
      7818 MEMB     59       POPC     H13X     HAL2     0.900000E-01   1.00800           0
      7819 MEMB     59       POPC     H13Y     HAL2     0.900000E-01   1.00800           0
      7820 MEMB     59       POPC     C314     CTL2    -0.180000       12.0110           0
      7821 MEMB     59       POPC     H14X     HAL2     0.900000E-01   1.00800           0
      7822 MEMB     59       POPC     H14Y     HAL2     0.900000E-01   1.00800           0
      7823 MEMB     59       POPC     C315     CTL2    -0.180000       12.0110           0
      7824 MEMB     59       POPC     H15X     HAL2     0.900000E-01   1.00800           0
      7825 MEMB     59       POPC     H15Y     HAL2     0.900000E-01   1.00800           0
      7826 MEMB     59       POPC     C316     CTL3    -0.270000       12.0110           0
      7827 MEMB     59       POPC     H16X     HAL3     0.900000E-01   1.00800           0
      7828 MEMB     59       POPC     H16Y     HAL3     0.900000E-01   1.00800           0
      7829 MEMB     59       POPC     H16Z     HAL3     0.900000E-01   1.00800           0
      7830 MEMB     60       POPC     N        NTL     -0.600000       14.0070           0
      7831 MEMB     60       POPC     C12      CTL2    -0.100000       12.0110           0
      7832 MEMB     60       POPC     H12A     HL       0.250000       1.00800           0
      7833 MEMB     60       POPC     H12B     HL       0.250000       1.00800           0
      7834 MEMB     60       POPC     C13      CTL5    -0.350000       12.0110           0
      7835 MEMB     60       POPC     H13A     HL       0.250000       1.00800           0
      7836 MEMB     60       POPC     H13B     HL       0.250000       1.00800           0
      7837 MEMB     60       POPC     H13C     HL       0.250000       1.00800           0
      7838 MEMB     60       POPC     C14      CTL5    -0.350000       12.0110           0
      7839 MEMB     60       POPC     H14A     HL       0.250000       1.00800           0
      7840 MEMB     60       POPC     H14B     HL       0.250000       1.00800           0
      7841 MEMB     60       POPC     H14C     HL       0.250000       1.00800           0
      7842 MEMB     60       POPC     C15      CTL5    -0.350000       12.0110           0
      7843 MEMB     60       POPC     H15A     HL       0.250000       1.00800           0
      7844 MEMB     60       POPC     H15B     HL       0.250000       1.00800           0
      7845 MEMB     60       POPC     H15C     HL       0.250000       1.00800           0
      7846 MEMB     60       POPC     C11      CTL2    -0.800000E-01   12.0110           0
      7847 MEMB     60       POPC     H11A     HAL2     0.900000E-01   1.00800           0
      7848 MEMB     60       POPC     H11B     HAL2     0.900000E-01   1.00800           0
      7849 MEMB     60       POPC     P        PL        1.50000       30.9740           0
      7850 MEMB     60       POPC     O13      O2L     -0.780000       15.9994           0
      7851 MEMB     60       POPC     O14      O2L     -0.780000       15.9994           0
      7852 MEMB     60       POPC     O12      OSLP    -0.570000       15.9994           0
      7853 MEMB     60       POPC     O11      OSLP    -0.570000       15.9994           0
      7854 MEMB     60       POPC     C1       CTL2    -0.800000E-01   12.0110           0
      7855 MEMB     60       POPC     HA       HAL2     0.900000E-01   1.00800           0
      7856 MEMB     60       POPC     HB       HAL2     0.900000E-01   1.00800           0
      7857 MEMB     60       POPC     C2       CTL1     0.170000       12.0110           0
      7858 MEMB     60       POPC     HS       HAL1     0.900000E-01   1.00800           0
      7859 MEMB     60       POPC     O21      OSL     -0.490000       15.9994           0
      7860 MEMB     60       POPC     C21      CL       0.900000       12.0110           0
      7861 MEMB     60       POPC     O22      OBL     -0.630000       15.9994           0
      7862 MEMB     60       POPC     C22      CTL2    -0.220000       12.0110           0
      7863 MEMB     60       POPC     H2R      HAL2     0.900000E-01   1.00800           0
      7864 MEMB     60       POPC     H2S      HAL2     0.900000E-01   1.00800           0
      7865 MEMB     60       POPC     C3       CTL2     0.800000E-01   12.0110           0
      7866 MEMB     60       POPC     HX       HAL2     0.900000E-01   1.00800           0
      7867 MEMB     60       POPC     HY       HAL2     0.900000E-01   1.00800           0
      7868 MEMB     60       POPC     O31      OSL     -0.490000       15.9994           0
      7869 MEMB     60       POPC     C31      CL       0.900000       12.0110           0
      7870 MEMB     60       POPC     O32      OBL     -0.630000       15.9994           0
      7871 MEMB     60       POPC     C32      CTL2    -0.220000       12.0110           0
      7872 MEMB     60       POPC     H2X      HAL2     0.900000E-01   1.00800           0
      7873 MEMB     60       POPC     H2Y      HAL2     0.900000E-01   1.00800           0
      7874 MEMB     60       POPC     C23      CTL2    -0.180000       12.0110           0
      7875 MEMB     60       POPC     H3R      HAL2     0.900000E-01   1.00800           0
      7876 MEMB     60       POPC     H3S      HAL2     0.900000E-01   1.00800           0
      7877 MEMB     60       POPC     C24      CTL2    -0.180000       12.0110           0
      7878 MEMB     60       POPC     H4R      HAL2     0.900000E-01   1.00800           0
      7879 MEMB     60       POPC     H4S      HAL2     0.900000E-01   1.00800           0
      7880 MEMB     60       POPC     C25      CTL2    -0.180000       12.0110           0
      7881 MEMB     60       POPC     H5R      HAL2     0.900000E-01   1.00800           0
      7882 MEMB     60       POPC     H5S      HAL2     0.900000E-01   1.00800           0
      7883 MEMB     60       POPC     C26      CTL2    -0.180000       12.0110           0
      7884 MEMB     60       POPC     H6R      HAL2     0.900000E-01   1.00800           0
      7885 MEMB     60       POPC     H6S      HAL2     0.900000E-01   1.00800           0
      7886 MEMB     60       POPC     C27      CTL2    -0.180000       12.0110           0
      7887 MEMB     60       POPC     H7R      HAL2     0.900000E-01   1.00800           0
      7888 MEMB     60       POPC     H7S      HAL2     0.900000E-01   1.00800           0
      7889 MEMB     60       POPC     C28      CTL2    -0.180000       12.0110           0
      7890 MEMB     60       POPC     H8R      HAL2     0.900000E-01   1.00800           0
      7891 MEMB     60       POPC     H8S      HAL2     0.900000E-01   1.00800           0
      7892 MEMB     60       POPC     C29      CEL1    -0.150000       12.0110           0
      7893 MEMB     60       POPC     H91      HEL1     0.150000       1.00800           0
      7894 MEMB     60       POPC     C210     CEL1    -0.150000       12.0110           0
      7895 MEMB     60       POPC     H101     HEL1     0.150000       1.00800           0
      7896 MEMB     60       POPC     C211     CTL2    -0.180000       12.0110           0
      7897 MEMB     60       POPC     H11R     HAL2     0.900000E-01   1.00800           0
      7898 MEMB     60       POPC     H11S     HAL2     0.900000E-01   1.00800           0
      7899 MEMB     60       POPC     C212     CTL2    -0.180000       12.0110           0
      7900 MEMB     60       POPC     H12R     HAL2     0.900000E-01   1.00800           0
      7901 MEMB     60       POPC     H12S     HAL2     0.900000E-01   1.00800           0
      7902 MEMB     60       POPC     C213     CTL2    -0.180000       12.0110           0
      7903 MEMB     60       POPC     H13R     HAL2     0.900000E-01   1.00800           0
      7904 MEMB     60       POPC     H13S     HAL2     0.900000E-01   1.00800           0
      7905 MEMB     60       POPC     C214     CTL2    -0.180000       12.0110           0
      7906 MEMB     60       POPC     H14R     HAL2     0.900000E-01   1.00800           0
      7907 MEMB     60       POPC     H14S     HAL2     0.900000E-01   1.00800           0
      7908 MEMB     60       POPC     C215     CTL2    -0.180000       12.0110           0
      7909 MEMB     60       POPC     H15R     HAL2     0.900000E-01   1.00800           0
      7910 MEMB     60       POPC     H15S     HAL2     0.900000E-01   1.00800           0
      7911 MEMB     60       POPC     C216     CTL2    -0.180000       12.0110           0
      7912 MEMB     60       POPC     H16R     HAL2     0.900000E-01   1.00800           0
      7913 MEMB     60       POPC     H16S     HAL2     0.900000E-01   1.00800           0
      7914 MEMB     60       POPC     C217     CTL2    -0.180000       12.0110           0
      7915 MEMB     60       POPC     H17R     HAL2     0.900000E-01   1.00800           0
      7916 MEMB     60       POPC     H17S     HAL2     0.900000E-01   1.00800           0
      7917 MEMB     60       POPC     C218     CTL3    -0.270000       12.0110           0
      7918 MEMB     60       POPC     H18R     HAL3     0.900000E-01   1.00800           0
      7919 MEMB     60       POPC     H18S     HAL3     0.900000E-01   1.00800           0
      7920 MEMB     60       POPC     H18T     HAL3     0.900000E-01   1.00800           0
      7921 MEMB     60       POPC     C33      CTL2    -0.180000       12.0110           0
      7922 MEMB     60       POPC     H3X      HAL2     0.900000E-01   1.00800           0
      7923 MEMB     60       POPC     H3Y      HAL2     0.900000E-01   1.00800           0
      7924 MEMB     60       POPC     C34      CTL2    -0.180000       12.0110           0
      7925 MEMB     60       POPC     H4X      HAL2     0.900000E-01   1.00800           0
      7926 MEMB     60       POPC     H4Y      HAL2     0.900000E-01   1.00800           0
      7927 MEMB     60       POPC     C35      CTL2    -0.180000       12.0110           0
      7928 MEMB     60       POPC     H5X      HAL2     0.900000E-01   1.00800           0
      7929 MEMB     60       POPC     H5Y      HAL2     0.900000E-01   1.00800           0
      7930 MEMB     60       POPC     C36      CTL2    -0.180000       12.0110           0
      7931 MEMB     60       POPC     H6X      HAL2     0.900000E-01   1.00800           0
      7932 MEMB     60       POPC     H6Y      HAL2     0.900000E-01   1.00800           0
      7933 MEMB     60       POPC     C37      CTL2    -0.180000       12.0110           0
      7934 MEMB     60       POPC     H7X      HAL2     0.900000E-01   1.00800           0
      7935 MEMB     60       POPC     H7Y      HAL2     0.900000E-01   1.00800           0
      7936 MEMB     60       POPC     C38      CTL2    -0.180000       12.0110           0
      7937 MEMB     60       POPC     H8X      HAL2     0.900000E-01   1.00800           0
      7938 MEMB     60       POPC     H8Y      HAL2     0.900000E-01   1.00800           0
      7939 MEMB     60       POPC     C39      CTL2    -0.180000       12.0110           0
      7940 MEMB     60       POPC     H9X      HAL2     0.900000E-01   1.00800           0
      7941 MEMB     60       POPC     H9Y      HAL2     0.900000E-01   1.00800           0
      7942 MEMB     60       POPC     C310     CTL2    -0.180000       12.0110           0
      7943 MEMB     60       POPC     H10X     HAL2     0.900000E-01   1.00800           0
      7944 MEMB     60       POPC     H10Y     HAL2     0.900000E-01   1.00800           0
      7945 MEMB     60       POPC     C311     CTL2    -0.180000       12.0110           0
      7946 MEMB     60       POPC     H11X     HAL2     0.900000E-01   1.00800           0
      7947 MEMB     60       POPC     H11Y     HAL2     0.900000E-01   1.00800           0
      7948 MEMB     60       POPC     C312     CTL2    -0.180000       12.0110           0
      7949 MEMB     60       POPC     H12X     HAL2     0.900000E-01   1.00800           0
      7950 MEMB     60       POPC     H12Y     HAL2     0.900000E-01   1.00800           0
      7951 MEMB     60       POPC     C313     CTL2    -0.180000       12.0110           0
      7952 MEMB     60       POPC     H13X     HAL2     0.900000E-01   1.00800           0
      7953 MEMB     60       POPC     H13Y     HAL2     0.900000E-01   1.00800           0
      7954 MEMB     60       POPC     C314     CTL2    -0.180000       12.0110           0
      7955 MEMB     60       POPC     H14X     HAL2     0.900000E-01   1.00800           0
      7956 MEMB     60       POPC     H14Y     HAL2     0.900000E-01   1.00800           0
      7957 MEMB     60       POPC     C315     CTL2    -0.180000       12.0110           0
      7958 MEMB     60       POPC     H15X     HAL2     0.900000E-01   1.00800           0
      7959 MEMB     60       POPC     H15Y     HAL2     0.900000E-01   1.00800           0
      7960 MEMB     60       POPC     C316     CTL3    -0.270000       12.0110           0
      7961 MEMB     60       POPC     H16X     HAL3     0.900000E-01   1.00800           0
      7962 MEMB     60       POPC     H16Y     HAL3     0.900000E-01   1.00800           0
      7963 MEMB     60       POPC     H16Z     HAL3     0.900000E-01   1.00800           0
      7964 MEMB     61       POPC     N        NTL     -0.600000       14.0070           0
      7965 MEMB     61       POPC     C12      CTL2    -0.100000       12.0110           0
      7966 MEMB     61       POPC     H12A     HL       0.250000       1.00800           0
      7967 MEMB     61       POPC     H12B     HL       0.250000       1.00800           0
      7968 MEMB     61       POPC     C13      CTL5    -0.350000       12.0110           0
      7969 MEMB     61       POPC     H13A     HL       0.250000       1.00800           0
      7970 MEMB     61       POPC     H13B     HL       0.250000       1.00800           0
      7971 MEMB     61       POPC     H13C     HL       0.250000       1.00800           0
      7972 MEMB     61       POPC     C14      CTL5    -0.350000       12.0110           0
      7973 MEMB     61       POPC     H14A     HL       0.250000       1.00800           0
      7974 MEMB     61       POPC     H14B     HL       0.250000       1.00800           0
      7975 MEMB     61       POPC     H14C     HL       0.250000       1.00800           0
      7976 MEMB     61       POPC     C15      CTL5    -0.350000       12.0110           0
      7977 MEMB     61       POPC     H15A     HL       0.250000       1.00800           0
      7978 MEMB     61       POPC     H15B     HL       0.250000       1.00800           0
      7979 MEMB     61       POPC     H15C     HL       0.250000       1.00800           0
      7980 MEMB     61       POPC     C11      CTL2    -0.800000E-01   12.0110           0
      7981 MEMB     61       POPC     H11A     HAL2     0.900000E-01   1.00800           0
      7982 MEMB     61       POPC     H11B     HAL2     0.900000E-01   1.00800           0
      7983 MEMB     61       POPC     P        PL        1.50000       30.9740           0
      7984 MEMB     61       POPC     O13      O2L     -0.780000       15.9994           0
      7985 MEMB     61       POPC     O14      O2L     -0.780000       15.9994           0
      7986 MEMB     61       POPC     O12      OSLP    -0.570000       15.9994           0
      7987 MEMB     61       POPC     O11      OSLP    -0.570000       15.9994           0
      7988 MEMB     61       POPC     C1       CTL2    -0.800000E-01   12.0110           0
      7989 MEMB     61       POPC     HA       HAL2     0.900000E-01   1.00800           0
      7990 MEMB     61       POPC     HB       HAL2     0.900000E-01   1.00800           0
      7991 MEMB     61       POPC     C2       CTL1     0.170000       12.0110           0
      7992 MEMB     61       POPC     HS       HAL1     0.900000E-01   1.00800           0
      7993 MEMB     61       POPC     O21      OSL     -0.490000       15.9994           0
      7994 MEMB     61       POPC     C21      CL       0.900000       12.0110           0
      7995 MEMB     61       POPC     O22      OBL     -0.630000       15.9994           0
      7996 MEMB     61       POPC     C22      CTL2    -0.220000       12.0110           0
      7997 MEMB     61       POPC     H2R      HAL2     0.900000E-01   1.00800           0
      7998 MEMB     61       POPC     H2S      HAL2     0.900000E-01   1.00800           0
      7999 MEMB     61       POPC     C3       CTL2     0.800000E-01   12.0110           0
      8000 MEMB     61       POPC     HX       HAL2     0.900000E-01   1.00800           0
      8001 MEMB     61       POPC     HY       HAL2     0.900000E-01   1.00800           0
      8002 MEMB     61       POPC     O31      OSL     -0.490000       15.9994           0
      8003 MEMB     61       POPC     C31      CL       0.900000       12.0110           0
      8004 MEMB     61       POPC     O32      OBL     -0.630000       15.9994           0
      8005 MEMB     61       POPC     C32      CTL2    -0.220000       12.0110           0
      8006 MEMB     61       POPC     H2X      HAL2     0.900000E-01   1.00800           0
      8007 MEMB     61       POPC     H2Y      HAL2     0.900000E-01   1.00800           0
      8008 MEMB     61       POPC     C23      CTL2    -0.180000       12.0110           0
      8009 MEMB     61       POPC     H3R      HAL2     0.900000E-01   1.00800           0
      8010 MEMB     61       POPC     H3S      HAL2     0.900000E-01   1.00800           0
      8011 MEMB     61       POPC     C24      CTL2    -0.180000       12.0110           0
      8012 MEMB     61       POPC     H4R      HAL2     0.900000E-01   1.00800           0
      8013 MEMB     61       POPC     H4S      HAL2     0.900000E-01   1.00800           0
      8014 MEMB     61       POPC     C25      CTL2    -0.180000       12.0110           0
      8015 MEMB     61       POPC     H5R      HAL2     0.900000E-01   1.00800           0
      8016 MEMB     61       POPC     H5S      HAL2     0.900000E-01   1.00800           0
      8017 MEMB     61       POPC     C26      CTL2    -0.180000       12.0110           0
      8018 MEMB     61       POPC     H6R      HAL2     0.900000E-01   1.00800           0
      8019 MEMB     61       POPC     H6S      HAL2     0.900000E-01   1.00800           0
      8020 MEMB     61       POPC     C27      CTL2    -0.180000       12.0110           0
      8021 MEMB     61       POPC     H7R      HAL2     0.900000E-01   1.00800           0
      8022 MEMB     61       POPC     H7S      HAL2     0.900000E-01   1.00800           0
      8023 MEMB     61       POPC     C28      CTL2    -0.180000       12.0110           0
      8024 MEMB     61       POPC     H8R      HAL2     0.900000E-01   1.00800           0
      8025 MEMB     61       POPC     H8S      HAL2     0.900000E-01   1.00800           0
      8026 MEMB     61       POPC     C29      CEL1    -0.150000       12.0110           0
      8027 MEMB     61       POPC     H91      HEL1     0.150000       1.00800           0
      8028 MEMB     61       POPC     C210     CEL1    -0.150000       12.0110           0
      8029 MEMB     61       POPC     H101     HEL1     0.150000       1.00800           0
      8030 MEMB     61       POPC     C211     CTL2    -0.180000       12.0110           0
      8031 MEMB     61       POPC     H11R     HAL2     0.900000E-01   1.00800           0
      8032 MEMB     61       POPC     H11S     HAL2     0.900000E-01   1.00800           0
      8033 MEMB     61       POPC     C212     CTL2    -0.180000       12.0110           0
      8034 MEMB     61       POPC     H12R     HAL2     0.900000E-01   1.00800           0
      8035 MEMB     61       POPC     H12S     HAL2     0.900000E-01   1.00800           0
      8036 MEMB     61       POPC     C213     CTL2    -0.180000       12.0110           0
      8037 MEMB     61       POPC     H13R     HAL2     0.900000E-01   1.00800           0
      8038 MEMB     61       POPC     H13S     HAL2     0.900000E-01   1.00800           0
      8039 MEMB     61       POPC     C214     CTL2    -0.180000       12.0110           0
      8040 MEMB     61       POPC     H14R     HAL2     0.900000E-01   1.00800           0
      8041 MEMB     61       POPC     H14S     HAL2     0.900000E-01   1.00800           0
      8042 MEMB     61       POPC     C215     CTL2    -0.180000       12.0110           0
      8043 MEMB     61       POPC     H15R     HAL2     0.900000E-01   1.00800           0
      8044 MEMB     61       POPC     H15S     HAL2     0.900000E-01   1.00800           0
      8045 MEMB     61       POPC     C216     CTL2    -0.180000       12.0110           0
      8046 MEMB     61       POPC     H16R     HAL2     0.900000E-01   1.00800           0
      8047 MEMB     61       POPC     H16S     HAL2     0.900000E-01   1.00800           0
      8048 MEMB     61       POPC     C217     CTL2    -0.180000       12.0110           0
      8049 MEMB     61       POPC     H17R     HAL2     0.900000E-01   1.00800           0
      8050 MEMB     61       POPC     H17S     HAL2     0.900000E-01   1.00800           0
      8051 MEMB     61       POPC     C218     CTL3    -0.270000       12.0110           0
      8052 MEMB     61       POPC     H18R     HAL3     0.900000E-01   1.00800           0
      8053 MEMB     61       POPC     H18S     HAL3     0.900000E-01   1.00800           0
      8054 MEMB     61       POPC     H18T     HAL3     0.900000E-01   1.00800           0
      8055 MEMB     61       POPC     C33      CTL2    -0.180000       12.0110           0
      8056 MEMB     61       POPC     H3X      HAL2     0.900000E-01   1.00800           0
      8057 MEMB     61       POPC     H3Y      HAL2     0.900000E-01   1.00800           0
      8058 MEMB     61       POPC     C34      CTL2    -0.180000       12.0110           0
      8059 MEMB     61       POPC     H4X      HAL2     0.900000E-01   1.00800           0
      8060 MEMB     61       POPC     H4Y      HAL2     0.900000E-01   1.00800           0
      8061 MEMB     61       POPC     C35      CTL2    -0.180000       12.0110           0
      8062 MEMB     61       POPC     H5X      HAL2     0.900000E-01   1.00800           0
      8063 MEMB     61       POPC     H5Y      HAL2     0.900000E-01   1.00800           0
      8064 MEMB     61       POPC     C36      CTL2    -0.180000       12.0110           0
      8065 MEMB     61       POPC     H6X      HAL2     0.900000E-01   1.00800           0
      8066 MEMB     61       POPC     H6Y      HAL2     0.900000E-01   1.00800           0
      8067 MEMB     61       POPC     C37      CTL2    -0.180000       12.0110           0
      8068 MEMB     61       POPC     H7X      HAL2     0.900000E-01   1.00800           0
      8069 MEMB     61       POPC     H7Y      HAL2     0.900000E-01   1.00800           0
      8070 MEMB     61       POPC     C38      CTL2    -0.180000       12.0110           0
      8071 MEMB     61       POPC     H8X      HAL2     0.900000E-01   1.00800           0
      8072 MEMB     61       POPC     H8Y      HAL2     0.900000E-01   1.00800           0
      8073 MEMB     61       POPC     C39      CTL2    -0.180000       12.0110           0
      8074 MEMB     61       POPC     H9X      HAL2     0.900000E-01   1.00800           0
      8075 MEMB     61       POPC     H9Y      HAL2     0.900000E-01   1.00800           0
      8076 MEMB     61       POPC     C310     CTL2    -0.180000       12.0110           0
      8077 MEMB     61       POPC     H10X     HAL2     0.900000E-01   1.00800           0
      8078 MEMB     61       POPC     H10Y     HAL2     0.900000E-01   1.00800           0
      8079 MEMB     61       POPC     C311     CTL2    -0.180000       12.0110           0
      8080 MEMB     61       POPC     H11X     HAL2     0.900000E-01   1.00800           0
      8081 MEMB     61       POPC     H11Y     HAL2     0.900000E-01   1.00800           0
      8082 MEMB     61       POPC     C312     CTL2    -0.180000       12.0110           0
      8083 MEMB     61       POPC     H12X     HAL2     0.900000E-01   1.00800           0
      8084 MEMB     61       POPC     H12Y     HAL2     0.900000E-01   1.00800           0
      8085 MEMB     61       POPC     C313     CTL2    -0.180000       12.0110           0
      8086 MEMB     61       POPC     H13X     HAL2     0.900000E-01   1.00800           0
      8087 MEMB     61       POPC     H13Y     HAL2     0.900000E-01   1.00800           0
      8088 MEMB     61       POPC     C314     CTL2    -0.180000       12.0110           0
      8089 MEMB     61       POPC     H14X     HAL2     0.900000E-01   1.00800           0
      8090 MEMB     61       POPC     H14Y     HAL2     0.900000E-01   1.00800           0
      8091 MEMB     61       POPC     C315     CTL2    -0.180000       12.0110           0
      8092 MEMB     61       POPC     H15X     HAL2     0.900000E-01   1.00800           0
      8093 MEMB     61       POPC     H15Y     HAL2     0.900000E-01   1.00800           0
      8094 MEMB     61       POPC     C316     CTL3    -0.270000       12.0110           0
      8095 MEMB     61       POPC     H16X     HAL3     0.900000E-01   1.00800           0
      8096 MEMB     61       POPC     H16Y     HAL3     0.900000E-01   1.00800           0
      8097 MEMB     61       POPC     H16Z     HAL3     0.900000E-01   1.00800           0
      8098 MEMB     62       POPS     N        NH3L    -0.300000       14.0070           0
      8099 MEMB     62       POPS     HN1      HCL      0.330000       1.00800           0
      8100 MEMB     62       POPS     HN2      HCL      0.330000       1.00800           0
      8101 MEMB     62       POPS     HN3      HCL      0.330000       1.00800           0
      8102 MEMB     62       POPS     C12      CTL1     0.210000       12.0110           0
      8103 MEMB     62       POPS     H12A     HBL      0.100000       1.00800           0
      8104 MEMB     62       POPS     C13      CCL      0.340000       12.0110           0
      8105 MEMB     62       POPS     O13A     OCL     -0.670000       15.9994           0
      8106 MEMB     62       POPS     O13B     OCL     -0.670000       15.9994           0
      8107 MEMB     62       POPS     C11      CTL2    -0.800000E-01   12.0110           0
      8108 MEMB     62       POPS     H11A     HAL2     0.900000E-01   1.00800           0
      8109 MEMB     62       POPS     H11B     HAL2     0.900000E-01   1.00800           0
      8110 MEMB     62       POPS     P        PL        1.50000       30.9740           0
      8111 MEMB     62       POPS     O13      O2L     -0.780000       15.9994           0
      8112 MEMB     62       POPS     O14      O2L     -0.780000       15.9994           0
      8113 MEMB     62       POPS     O12      OSLP    -0.570000       15.9994           0
      8114 MEMB     62       POPS     O11      OSLP    -0.570000       15.9994           0
      8115 MEMB     62       POPS     C1       CTL2    -0.800000E-01   12.0110           0
      8116 MEMB     62       POPS     HA       HAL2     0.900000E-01   1.00800           0
      8117 MEMB     62       POPS     HB       HAL2     0.900000E-01   1.00800           0
      8118 MEMB     62       POPS     C2       CTL1     0.170000       12.0110           0
      8119 MEMB     62       POPS     HS       HAL1     0.900000E-01   1.00800           0
      8120 MEMB     62       POPS     O21      OSL     -0.490000       15.9994           0
      8121 MEMB     62       POPS     C21      CL       0.900000       12.0110           0
      8122 MEMB     62       POPS     O22      OBL     -0.630000       15.9994           0
      8123 MEMB     62       POPS     C22      CTL2    -0.220000       12.0110           0
      8124 MEMB     62       POPS     H2R      HAL2     0.900000E-01   1.00800           0
      8125 MEMB     62       POPS     H2S      HAL2     0.900000E-01   1.00800           0
      8126 MEMB     62       POPS     C3       CTL2     0.800000E-01   12.0110           0
      8127 MEMB     62       POPS     HX       HAL2     0.900000E-01   1.00800           0
      8128 MEMB     62       POPS     HY       HAL2     0.900000E-01   1.00800           0
      8129 MEMB     62       POPS     O31      OSL     -0.490000       15.9994           0
      8130 MEMB     62       POPS     C31      CL       0.900000       12.0110           0
      8131 MEMB     62       POPS     O32      OBL     -0.630000       15.9994           0
      8132 MEMB     62       POPS     C32      CTL2    -0.220000       12.0110           0
      8133 MEMB     62       POPS     H2X      HAL2     0.900000E-01   1.00800           0
      8134 MEMB     62       POPS     H2Y      HAL2     0.900000E-01   1.00800           0
      8135 MEMB     62       POPS     C23      CTL2    -0.180000       12.0110           0
      8136 MEMB     62       POPS     H3R      HAL2     0.900000E-01   1.00800           0
      8137 MEMB     62       POPS     H3S      HAL2     0.900000E-01   1.00800           0
      8138 MEMB     62       POPS     C24      CTL2    -0.180000       12.0110           0
      8139 MEMB     62       POPS     H4R      HAL2     0.900000E-01   1.00800           0
      8140 MEMB     62       POPS     H4S      HAL2     0.900000E-01   1.00800           0
      8141 MEMB     62       POPS     C25      CTL2    -0.180000       12.0110           0
      8142 MEMB     62       POPS     H5R      HAL2     0.900000E-01   1.00800           0
      8143 MEMB     62       POPS     H5S      HAL2     0.900000E-01   1.00800           0
      8144 MEMB     62       POPS     C26      CTL2    -0.180000       12.0110           0
      8145 MEMB     62       POPS     H6R      HAL2     0.900000E-01   1.00800           0
      8146 MEMB     62       POPS     H6S      HAL2     0.900000E-01   1.00800           0
      8147 MEMB     62       POPS     C27      CTL2    -0.180000       12.0110           0
      8148 MEMB     62       POPS     H7R      HAL2     0.900000E-01   1.00800           0
      8149 MEMB     62       POPS     H7S      HAL2     0.900000E-01   1.00800           0
      8150 MEMB     62       POPS     C28      CTL2    -0.180000       12.0110           0
      8151 MEMB     62       POPS     H8R      HAL2     0.900000E-01   1.00800           0
      8152 MEMB     62       POPS     H8S      HAL2     0.900000E-01   1.00800           0
      8153 MEMB     62       POPS     C29      CEL1    -0.150000       12.0110           0
      8154 MEMB     62       POPS     H91      HEL1     0.150000       1.00800           0
      8155 MEMB     62       POPS     C210     CEL1    -0.150000       12.0110           0
      8156 MEMB     62       POPS     H101     HEL1     0.150000       1.00800           0
      8157 MEMB     62       POPS     C211     CTL2    -0.180000       12.0110           0
      8158 MEMB     62       POPS     H11R     HAL2     0.900000E-01   1.00800           0
      8159 MEMB     62       POPS     H11S     HAL2     0.900000E-01   1.00800           0
      8160 MEMB     62       POPS     C212     CTL2    -0.180000       12.0110           0
      8161 MEMB     62       POPS     H12R     HAL2     0.900000E-01   1.00800           0
      8162 MEMB     62       POPS     H12S     HAL2     0.900000E-01   1.00800           0
      8163 MEMB     62       POPS     C213     CTL2    -0.180000       12.0110           0
      8164 MEMB     62       POPS     H13R     HAL2     0.900000E-01   1.00800           0
      8165 MEMB     62       POPS     H13S     HAL2     0.900000E-01   1.00800           0
      8166 MEMB     62       POPS     C214     CTL2    -0.180000       12.0110           0
      8167 MEMB     62       POPS     H14R     HAL2     0.900000E-01   1.00800           0
      8168 MEMB     62       POPS     H14S     HAL2     0.900000E-01   1.00800           0
      8169 MEMB     62       POPS     C215     CTL2    -0.180000       12.0110           0
      8170 MEMB     62       POPS     H15R     HAL2     0.900000E-01   1.00800           0
      8171 MEMB     62       POPS     H15S     HAL2     0.900000E-01   1.00800           0
      8172 MEMB     62       POPS     C216     CTL2    -0.180000       12.0110           0
      8173 MEMB     62       POPS     H16R     HAL2     0.900000E-01   1.00800           0
      8174 MEMB     62       POPS     H16S     HAL2     0.900000E-01   1.00800           0
      8175 MEMB     62       POPS     C217     CTL2    -0.180000       12.0110           0
      8176 MEMB     62       POPS     H17R     HAL2     0.900000E-01   1.00800           0
      8177 MEMB     62       POPS     H17S     HAL2     0.900000E-01   1.00800           0
      8178 MEMB     62       POPS     C218     CTL3    -0.270000       12.0110           0
      8179 MEMB     62       POPS     H18R     HAL3     0.900000E-01   1.00800           0
      8180 MEMB     62       POPS     H18S     HAL3     0.900000E-01   1.00800           0
      8181 MEMB     62       POPS     H18T     HAL3     0.900000E-01   1.00800           0
      8182 MEMB     62       POPS     C33      CTL2    -0.180000       12.0110           0
      8183 MEMB     62       POPS     H3X      HAL2     0.900000E-01   1.00800           0
      8184 MEMB     62       POPS     H3Y      HAL2     0.900000E-01   1.00800           0
      8185 MEMB     62       POPS     C34      CTL2    -0.180000       12.0110           0
      8186 MEMB     62       POPS     H4X      HAL2     0.900000E-01   1.00800           0
      8187 MEMB     62       POPS     H4Y      HAL2     0.900000E-01   1.00800           0
      8188 MEMB     62       POPS     C35      CTL2    -0.180000       12.0110           0
      8189 MEMB     62       POPS     H5X      HAL2     0.900000E-01   1.00800           0
      8190 MEMB     62       POPS     H5Y      HAL2     0.900000E-01   1.00800           0
      8191 MEMB     62       POPS     C36      CTL2    -0.180000       12.0110           0
      8192 MEMB     62       POPS     H6X      HAL2     0.900000E-01   1.00800           0
      8193 MEMB     62       POPS     H6Y      HAL2     0.900000E-01   1.00800           0
      8194 MEMB     62       POPS     C37      CTL2    -0.180000       12.0110           0
      8195 MEMB     62       POPS     H7X      HAL2     0.900000E-01   1.00800           0
      8196 MEMB     62       POPS     H7Y      HAL2     0.900000E-01   1.00800           0
      8197 MEMB     62       POPS     C38      CTL2    -0.180000       12.0110           0
      8198 MEMB     62       POPS     H8X      HAL2     0.900000E-01   1.00800           0
      8199 MEMB     62       POPS     H8Y      HAL2     0.900000E-01   1.00800           0
      8200 MEMB     62       POPS     C39      CTL2    -0.180000       12.0110           0
      8201 MEMB     62       POPS     H9X      HAL2     0.900000E-01   1.00800           0
      8202 MEMB     62       POPS     H9Y      HAL2     0.900000E-01   1.00800           0
      8203 MEMB     62       POPS     C310     CTL2    -0.180000       12.0110           0
      8204 MEMB     62       POPS     H10X     HAL2     0.900000E-01   1.00800           0
      8205 MEMB     62       POPS     H10Y     HAL2     0.900000E-01   1.00800           0
      8206 MEMB     62       POPS     C311     CTL2    -0.180000       12.0110           0
      8207 MEMB     62       POPS     H11X     HAL2     0.900000E-01   1.00800           0
      8208 MEMB     62       POPS     H11Y     HAL2     0.900000E-01   1.00800           0
      8209 MEMB     62       POPS     C312     CTL2    -0.180000       12.0110           0
      8210 MEMB     62       POPS     H12X     HAL2     0.900000E-01   1.00800           0
      8211 MEMB     62       POPS     H12Y     HAL2     0.900000E-01   1.00800           0
      8212 MEMB     62       POPS     C313     CTL2    -0.180000       12.0110           0
      8213 MEMB     62       POPS     H13X     HAL2     0.900000E-01   1.00800           0
      8214 MEMB     62       POPS     H13Y     HAL2     0.900000E-01   1.00800           0
      8215 MEMB     62       POPS     C314     CTL2    -0.180000       12.0110           0
      8216 MEMB     62       POPS     H14X     HAL2     0.900000E-01   1.00800           0
      8217 MEMB     62       POPS     H14Y     HAL2     0.900000E-01   1.00800           0
      8218 MEMB     62       POPS     C315     CTL2    -0.180000       12.0110           0
      8219 MEMB     62       POPS     H15X     HAL2     0.900000E-01   1.00800           0
      8220 MEMB     62       POPS     H15Y     HAL2     0.900000E-01   1.00800           0
      8221 MEMB     62       POPS     C316     CTL3    -0.270000       12.0110           0
      8222 MEMB     62       POPS     H16X     HAL3     0.900000E-01   1.00800           0
      8223 MEMB     62       POPS     H16Y     HAL3     0.900000E-01   1.00800           0
      8224 MEMB     62       POPS     H16Z     HAL3     0.900000E-01   1.00800           0
      8225 MEMB     63       POPC     N        NTL     -0.600000       14.0070           0
      8226 MEMB     63       POPC     C12      CTL2    -0.100000       12.0110           0
      8227 MEMB     63       POPC     H12A     HL       0.250000       1.00800           0
      8228 MEMB     63       POPC     H12B     HL       0.250000       1.00800           0
      8229 MEMB     63       POPC     C13      CTL5    -0.350000       12.0110           0
      8230 MEMB     63       POPC     H13A     HL       0.250000       1.00800           0
      8231 MEMB     63       POPC     H13B     HL       0.250000       1.00800           0
      8232 MEMB     63       POPC     H13C     HL       0.250000       1.00800           0
      8233 MEMB     63       POPC     C14      CTL5    -0.350000       12.0110           0
      8234 MEMB     63       POPC     H14A     HL       0.250000       1.00800           0
      8235 MEMB     63       POPC     H14B     HL       0.250000       1.00800           0
      8236 MEMB     63       POPC     H14C     HL       0.250000       1.00800           0
      8237 MEMB     63       POPC     C15      CTL5    -0.350000       12.0110           0
      8238 MEMB     63       POPC     H15A     HL       0.250000       1.00800           0
      8239 MEMB     63       POPC     H15B     HL       0.250000       1.00800           0
      8240 MEMB     63       POPC     H15C     HL       0.250000       1.00800           0
      8241 MEMB     63       POPC     C11      CTL2    -0.800000E-01   12.0110           0
      8242 MEMB     63       POPC     H11A     HAL2     0.900000E-01   1.00800           0
      8243 MEMB     63       POPC     H11B     HAL2     0.900000E-01   1.00800           0
      8244 MEMB     63       POPC     P        PL        1.50000       30.9740           0
      8245 MEMB     63       POPC     O13      O2L     -0.780000       15.9994           0
      8246 MEMB     63       POPC     O14      O2L     -0.780000       15.9994           0
      8247 MEMB     63       POPC     O12      OSLP    -0.570000       15.9994           0
      8248 MEMB     63       POPC     O11      OSLP    -0.570000       15.9994           0
      8249 MEMB     63       POPC     C1       CTL2    -0.800000E-01   12.0110           0
      8250 MEMB     63       POPC     HA       HAL2     0.900000E-01   1.00800           0
      8251 MEMB     63       POPC     HB       HAL2     0.900000E-01   1.00800           0
      8252 MEMB     63       POPC     C2       CTL1     0.170000       12.0110           0
      8253 MEMB     63       POPC     HS       HAL1     0.900000E-01   1.00800           0
      8254 MEMB     63       POPC     O21      OSL     -0.490000       15.9994           0
      8255 MEMB     63       POPC     C21      CL       0.900000       12.0110           0
      8256 MEMB     63       POPC     O22      OBL     -0.630000       15.9994           0
      8257 MEMB     63       POPC     C22      CTL2    -0.220000       12.0110           0
      8258 MEMB     63       POPC     H2R      HAL2     0.900000E-01   1.00800           0
      8259 MEMB     63       POPC     H2S      HAL2     0.900000E-01   1.00800           0
      8260 MEMB     63       POPC     C3       CTL2     0.800000E-01   12.0110           0
      8261 MEMB     63       POPC     HX       HAL2     0.900000E-01   1.00800           0
      8262 MEMB     63       POPC     HY       HAL2     0.900000E-01   1.00800           0
      8263 MEMB     63       POPC     O31      OSL     -0.490000       15.9994           0
      8264 MEMB     63       POPC     C31      CL       0.900000       12.0110           0
      8265 MEMB     63       POPC     O32      OBL     -0.630000       15.9994           0
      8266 MEMB     63       POPC     C32      CTL2    -0.220000       12.0110           0
      8267 MEMB     63       POPC     H2X      HAL2     0.900000E-01   1.00800           0
      8268 MEMB     63       POPC     H2Y      HAL2     0.900000E-01   1.00800           0
      8269 MEMB     63       POPC     C23      CTL2    -0.180000       12.0110           0
      8270 MEMB     63       POPC     H3R      HAL2     0.900000E-01   1.00800           0
      8271 MEMB     63       POPC     H3S      HAL2     0.900000E-01   1.00800           0
      8272 MEMB     63       POPC     C24      CTL2    -0.180000       12.0110           0
      8273 MEMB     63       POPC     H4R      HAL2     0.900000E-01   1.00800           0
      8274 MEMB     63       POPC     H4S      HAL2     0.900000E-01   1.00800           0
      8275 MEMB     63       POPC     C25      CTL2    -0.180000       12.0110           0
      8276 MEMB     63       POPC     H5R      HAL2     0.900000E-01   1.00800           0
      8277 MEMB     63       POPC     H5S      HAL2     0.900000E-01   1.00800           0
      8278 MEMB     63       POPC     C26      CTL2    -0.180000       12.0110           0
      8279 MEMB     63       POPC     H6R      HAL2     0.900000E-01   1.00800           0
      8280 MEMB     63       POPC     H6S      HAL2     0.900000E-01   1.00800           0
      8281 MEMB     63       POPC     C27      CTL2    -0.180000       12.0110           0
      8282 MEMB     63       POPC     H7R      HAL2     0.900000E-01   1.00800           0
      8283 MEMB     63       POPC     H7S      HAL2     0.900000E-01   1.00800           0
      8284 MEMB     63       POPC     C28      CTL2    -0.180000       12.0110           0
      8285 MEMB     63       POPC     H8R      HAL2     0.900000E-01   1.00800           0
      8286 MEMB     63       POPC     H8S      HAL2     0.900000E-01   1.00800           0
      8287 MEMB     63       POPC     C29      CEL1    -0.150000       12.0110           0
      8288 MEMB     63       POPC     H91      HEL1     0.150000       1.00800           0
      8289 MEMB     63       POPC     C210     CEL1    -0.150000       12.0110           0
      8290 MEMB     63       POPC     H101     HEL1     0.150000       1.00800           0
      8291 MEMB     63       POPC     C211     CTL2    -0.180000       12.0110           0
      8292 MEMB     63       POPC     H11R     HAL2     0.900000E-01   1.00800           0
      8293 MEMB     63       POPC     H11S     HAL2     0.900000E-01   1.00800           0
      8294 MEMB     63       POPC     C212     CTL2    -0.180000       12.0110           0
      8295 MEMB     63       POPC     H12R     HAL2     0.900000E-01   1.00800           0
      8296 MEMB     63       POPC     H12S     HAL2     0.900000E-01   1.00800           0
      8297 MEMB     63       POPC     C213     CTL2    -0.180000       12.0110           0
      8298 MEMB     63       POPC     H13R     HAL2     0.900000E-01   1.00800           0
      8299 MEMB     63       POPC     H13S     HAL2     0.900000E-01   1.00800           0
      8300 MEMB     63       POPC     C214     CTL2    -0.180000       12.0110           0
      8301 MEMB     63       POPC     H14R     HAL2     0.900000E-01   1.00800           0
      8302 MEMB     63       POPC     H14S     HAL2     0.900000E-01   1.00800           0
      8303 MEMB     63       POPC     C215     CTL2    -0.180000       12.0110           0
      8304 MEMB     63       POPC     H15R     HAL2     0.900000E-01   1.00800           0
      8305 MEMB     63       POPC     H15S     HAL2     0.900000E-01   1.00800           0
      8306 MEMB     63       POPC     C216     CTL2    -0.180000       12.0110           0
      8307 MEMB     63       POPC     H16R     HAL2     0.900000E-01   1.00800           0
      8308 MEMB     63       POPC     H16S     HAL2     0.900000E-01   1.00800           0
      8309 MEMB     63       POPC     C217     CTL2    -0.180000       12.0110           0
      8310 MEMB     63       POPC     H17R     HAL2     0.900000E-01   1.00800           0
      8311 MEMB     63       POPC     H17S     HAL2     0.900000E-01   1.00800           0
      8312 MEMB     63       POPC     C218     CTL3    -0.270000       12.0110           0
      8313 MEMB     63       POPC     H18R     HAL3     0.900000E-01   1.00800           0
      8314 MEMB     63       POPC     H18S     HAL3     0.900000E-01   1.00800           0
      8315 MEMB     63       POPC     H18T     HAL3     0.900000E-01   1.00800           0
      8316 MEMB     63       POPC     C33      CTL2    -0.180000       12.0110           0
      8317 MEMB     63       POPC     H3X      HAL2     0.900000E-01   1.00800           0
      8318 MEMB     63       POPC     H3Y      HAL2     0.900000E-01   1.00800           0
      8319 MEMB     63       POPC     C34      CTL2    -0.180000       12.0110           0
      8320 MEMB     63       POPC     H4X      HAL2     0.900000E-01   1.00800           0
      8321 MEMB     63       POPC     H4Y      HAL2     0.900000E-01   1.00800           0
      8322 MEMB     63       POPC     C35      CTL2    -0.180000       12.0110           0
      8323 MEMB     63       POPC     H5X      HAL2     0.900000E-01   1.00800           0
      8324 MEMB     63       POPC     H5Y      HAL2     0.900000E-01   1.00800           0
      8325 MEMB     63       POPC     C36      CTL2    -0.180000       12.0110           0
      8326 MEMB     63       POPC     H6X      HAL2     0.900000E-01   1.00800           0
      8327 MEMB     63       POPC     H6Y      HAL2     0.900000E-01   1.00800           0
      8328 MEMB     63       POPC     C37      CTL2    -0.180000       12.0110           0
      8329 MEMB     63       POPC     H7X      HAL2     0.900000E-01   1.00800           0
      8330 MEMB     63       POPC     H7Y      HAL2     0.900000E-01   1.00800           0
      8331 MEMB     63       POPC     C38      CTL2    -0.180000       12.0110           0
      8332 MEMB     63       POPC     H8X      HAL2     0.900000E-01   1.00800           0
      8333 MEMB     63       POPC     H8Y      HAL2     0.900000E-01   1.00800           0
      8334 MEMB     63       POPC     C39      CTL2    -0.180000       12.0110           0
      8335 MEMB     63       POPC     H9X      HAL2     0.900000E-01   1.00800           0
      8336 MEMB     63       POPC     H9Y      HAL2     0.900000E-01   1.00800           0
      8337 MEMB     63       POPC     C310     CTL2    -0.180000       12.0110           0
      8338 MEMB     63       POPC     H10X     HAL2     0.900000E-01   1.00800           0
      8339 MEMB     63       POPC     H10Y     HAL2     0.900000E-01   1.00800           0
      8340 MEMB     63       POPC     C311     CTL2    -0.180000       12.0110           0
      8341 MEMB     63       POPC     H11X     HAL2     0.900000E-01   1.00800           0
      8342 MEMB     63       POPC     H11Y     HAL2     0.900000E-01   1.00800           0
      8343 MEMB     63       POPC     C312     CTL2    -0.180000       12.0110           0
      8344 MEMB     63       POPC     H12X     HAL2     0.900000E-01   1.00800           0
      8345 MEMB     63       POPC     H12Y     HAL2     0.900000E-01   1.00800           0
      8346 MEMB     63       POPC     C313     CTL2    -0.180000       12.0110           0
      8347 MEMB     63       POPC     H13X     HAL2     0.900000E-01   1.00800           0
      8348 MEMB     63       POPC     H13Y     HAL2     0.900000E-01   1.00800           0
      8349 MEMB     63       POPC     C314     CTL2    -0.180000       12.0110           0
      8350 MEMB     63       POPC     H14X     HAL2     0.900000E-01   1.00800           0
      8351 MEMB     63       POPC     H14Y     HAL2     0.900000E-01   1.00800           0
      8352 MEMB     63       POPC     C315     CTL2    -0.180000       12.0110           0
      8353 MEMB     63       POPC     H15X     HAL2     0.900000E-01   1.00800           0
      8354 MEMB     63       POPC     H15Y     HAL2     0.900000E-01   1.00800           0
      8355 MEMB     63       POPC     C316     CTL3    -0.270000       12.0110           0
      8356 MEMB     63       POPC     H16X     HAL3     0.900000E-01   1.00800           0
      8357 MEMB     63       POPC     H16Y     HAL3     0.900000E-01   1.00800           0
      8358 MEMB     63       POPC     H16Z     HAL3     0.900000E-01   1.00800           0
      8359 MEMB     64       POPC     N        NTL     -0.600000       14.0070           0
      8360 MEMB     64       POPC     C12      CTL2    -0.100000       12.0110           0
      8361 MEMB     64       POPC     H12A     HL       0.250000       1.00800           0
      8362 MEMB     64       POPC     H12B     HL       0.250000       1.00800           0
      8363 MEMB     64       POPC     C13      CTL5    -0.350000       12.0110           0
      8364 MEMB     64       POPC     H13A     HL       0.250000       1.00800           0
      8365 MEMB     64       POPC     H13B     HL       0.250000       1.00800           0
      8366 MEMB     64       POPC     H13C     HL       0.250000       1.00800           0
      8367 MEMB     64       POPC     C14      CTL5    -0.350000       12.0110           0
      8368 MEMB     64       POPC     H14A     HL       0.250000       1.00800           0
      8369 MEMB     64       POPC     H14B     HL       0.250000       1.00800           0
      8370 MEMB     64       POPC     H14C     HL       0.250000       1.00800           0
      8371 MEMB     64       POPC     C15      CTL5    -0.350000       12.0110           0
      8372 MEMB     64       POPC     H15A     HL       0.250000       1.00800           0
      8373 MEMB     64       POPC     H15B     HL       0.250000       1.00800           0
      8374 MEMB     64       POPC     H15C     HL       0.250000       1.00800           0
      8375 MEMB     64       POPC     C11      CTL2    -0.800000E-01   12.0110           0
      8376 MEMB     64       POPC     H11A     HAL2     0.900000E-01   1.00800           0
      8377 MEMB     64       POPC     H11B     HAL2     0.900000E-01   1.00800           0
      8378 MEMB     64       POPC     P        PL        1.50000       30.9740           0
      8379 MEMB     64       POPC     O13      O2L     -0.780000       15.9994           0
      8380 MEMB     64       POPC     O14      O2L     -0.780000       15.9994           0
      8381 MEMB     64       POPC     O12      OSLP    -0.570000       15.9994           0
      8382 MEMB     64       POPC     O11      OSLP    -0.570000       15.9994           0
      8383 MEMB     64       POPC     C1       CTL2    -0.800000E-01   12.0110           0
      8384 MEMB     64       POPC     HA       HAL2     0.900000E-01   1.00800           0
      8385 MEMB     64       POPC     HB       HAL2     0.900000E-01   1.00800           0
      8386 MEMB     64       POPC     C2       CTL1     0.170000       12.0110           0
      8387 MEMB     64       POPC     HS       HAL1     0.900000E-01   1.00800           0
      8388 MEMB     64       POPC     O21      OSL     -0.490000       15.9994           0
      8389 MEMB     64       POPC     C21      CL       0.900000       12.0110           0
      8390 MEMB     64       POPC     O22      OBL     -0.630000       15.9994           0
      8391 MEMB     64       POPC     C22      CTL2    -0.220000       12.0110           0
      8392 MEMB     64       POPC     H2R      HAL2     0.900000E-01   1.00800           0
      8393 MEMB     64       POPC     H2S      HAL2     0.900000E-01   1.00800           0
      8394 MEMB     64       POPC     C3       CTL2     0.800000E-01   12.0110           0
      8395 MEMB     64       POPC     HX       HAL2     0.900000E-01   1.00800           0
      8396 MEMB     64       POPC     HY       HAL2     0.900000E-01   1.00800           0
      8397 MEMB     64       POPC     O31      OSL     -0.490000       15.9994           0
      8398 MEMB     64       POPC     C31      CL       0.900000       12.0110           0
      8399 MEMB     64       POPC     O32      OBL     -0.630000       15.9994           0
      8400 MEMB     64       POPC     C32      CTL2    -0.220000       12.0110           0
      8401 MEMB     64       POPC     H2X      HAL2     0.900000E-01   1.00800           0
      8402 MEMB     64       POPC     H2Y      HAL2     0.900000E-01   1.00800           0
      8403 MEMB     64       POPC     C23      CTL2    -0.180000       12.0110           0
      8404 MEMB     64       POPC     H3R      HAL2     0.900000E-01   1.00800           0
      8405 MEMB     64       POPC     H3S      HAL2     0.900000E-01   1.00800           0
      8406 MEMB     64       POPC     C24      CTL2    -0.180000       12.0110           0
      8407 MEMB     64       POPC     H4R      HAL2     0.900000E-01   1.00800           0
      8408 MEMB     64       POPC     H4S      HAL2     0.900000E-01   1.00800           0
      8409 MEMB     64       POPC     C25      CTL2    -0.180000       12.0110           0
      8410 MEMB     64       POPC     H5R      HAL2     0.900000E-01   1.00800           0
      8411 MEMB     64       POPC     H5S      HAL2     0.900000E-01   1.00800           0
      8412 MEMB     64       POPC     C26      CTL2    -0.180000       12.0110           0
      8413 MEMB     64       POPC     H6R      HAL2     0.900000E-01   1.00800           0
      8414 MEMB     64       POPC     H6S      HAL2     0.900000E-01   1.00800           0
      8415 MEMB     64       POPC     C27      CTL2    -0.180000       12.0110           0
      8416 MEMB     64       POPC     H7R      HAL2     0.900000E-01   1.00800           0
      8417 MEMB     64       POPC     H7S      HAL2     0.900000E-01   1.00800           0
      8418 MEMB     64       POPC     C28      CTL2    -0.180000       12.0110           0
      8419 MEMB     64       POPC     H8R      HAL2     0.900000E-01   1.00800           0
      8420 MEMB     64       POPC     H8S      HAL2     0.900000E-01   1.00800           0
      8421 MEMB     64       POPC     C29      CEL1    -0.150000       12.0110           0
      8422 MEMB     64       POPC     H91      HEL1     0.150000       1.00800           0
      8423 MEMB     64       POPC     C210     CEL1    -0.150000       12.0110           0
      8424 MEMB     64       POPC     H101     HEL1     0.150000       1.00800           0
      8425 MEMB     64       POPC     C211     CTL2    -0.180000       12.0110           0
      8426 MEMB     64       POPC     H11R     HAL2     0.900000E-01   1.00800           0
      8427 MEMB     64       POPC     H11S     HAL2     0.900000E-01   1.00800           0
      8428 MEMB     64       POPC     C212     CTL2    -0.180000       12.0110           0
      8429 MEMB     64       POPC     H12R     HAL2     0.900000E-01   1.00800           0
      8430 MEMB     64       POPC     H12S     HAL2     0.900000E-01   1.00800           0
      8431 MEMB     64       POPC     C213     CTL2    -0.180000       12.0110           0
      8432 MEMB     64       POPC     H13R     HAL2     0.900000E-01   1.00800           0
      8433 MEMB     64       POPC     H13S     HAL2     0.900000E-01   1.00800           0
      8434 MEMB     64       POPC     C214     CTL2    -0.180000       12.0110           0
      8435 MEMB     64       POPC     H14R     HAL2     0.900000E-01   1.00800           0
      8436 MEMB     64       POPC     H14S     HAL2     0.900000E-01   1.00800           0
      8437 MEMB     64       POPC     C215     CTL2    -0.180000       12.0110           0
      8438 MEMB     64       POPC     H15R     HAL2     0.900000E-01   1.00800           0
      8439 MEMB     64       POPC     H15S     HAL2     0.900000E-01   1.00800           0
      8440 MEMB     64       POPC     C216     CTL2    -0.180000       12.0110           0
      8441 MEMB     64       POPC     H16R     HAL2     0.900000E-01   1.00800           0
      8442 MEMB     64       POPC     H16S     HAL2     0.900000E-01   1.00800           0
      8443 MEMB     64       POPC     C217     CTL2    -0.180000       12.0110           0
      8444 MEMB     64       POPC     H17R     HAL2     0.900000E-01   1.00800           0
      8445 MEMB     64       POPC     H17S     HAL2     0.900000E-01   1.00800           0
      8446 MEMB     64       POPC     C218     CTL3    -0.270000       12.0110           0
      8447 MEMB     64       POPC     H18R     HAL3     0.900000E-01   1.00800           0
      8448 MEMB     64       POPC     H18S     HAL3     0.900000E-01   1.00800           0
      8449 MEMB     64       POPC     H18T     HAL3     0.900000E-01   1.00800           0
      8450 MEMB     64       POPC     C33      CTL2    -0.180000       12.0110           0
      8451 MEMB     64       POPC     H3X      HAL2     0.900000E-01   1.00800           0
      8452 MEMB     64       POPC     H3Y      HAL2     0.900000E-01   1.00800           0
      8453 MEMB     64       POPC     C34      CTL2    -0.180000       12.0110           0
      8454 MEMB     64       POPC     H4X      HAL2     0.900000E-01   1.00800           0
      8455 MEMB     64       POPC     H4Y      HAL2     0.900000E-01   1.00800           0
      8456 MEMB     64       POPC     C35      CTL2    -0.180000       12.0110           0
      8457 MEMB     64       POPC     H5X      HAL2     0.900000E-01   1.00800           0
      8458 MEMB     64       POPC     H5Y      HAL2     0.900000E-01   1.00800           0
      8459 MEMB     64       POPC     C36      CTL2    -0.180000       12.0110           0
      8460 MEMB     64       POPC     H6X      HAL2     0.900000E-01   1.00800           0
      8461 MEMB     64       POPC     H6Y      HAL2     0.900000E-01   1.00800           0
      8462 MEMB     64       POPC     C37      CTL2    -0.180000       12.0110           0
      8463 MEMB     64       POPC     H7X      HAL2     0.900000E-01   1.00800           0
      8464 MEMB     64       POPC     H7Y      HAL2     0.900000E-01   1.00800           0
      8465 MEMB     64       POPC     C38      CTL2    -0.180000       12.0110           0
      8466 MEMB     64       POPC     H8X      HAL2     0.900000E-01   1.00800           0
      8467 MEMB     64       POPC     H8Y      HAL2     0.900000E-01   1.00800           0
      8468 MEMB     64       POPC     C39      CTL2    -0.180000       12.0110           0
      8469 MEMB     64       POPC     H9X      HAL2     0.900000E-01   1.00800           0
      8470 MEMB     64       POPC     H9Y      HAL2     0.900000E-01   1.00800           0
      8471 MEMB     64       POPC     C310     CTL2    -0.180000       12.0110           0
      8472 MEMB     64       POPC     H10X     HAL2     0.900000E-01   1.00800           0
      8473 MEMB     64       POPC     H10Y     HAL2     0.900000E-01   1.00800           0
      8474 MEMB     64       POPC     C311     CTL2    -0.180000       12.0110           0
      8475 MEMB     64       POPC     H11X     HAL2     0.900000E-01   1.00800           0
      8476 MEMB     64       POPC     H11Y     HAL2     0.900000E-01   1.00800           0
      8477 MEMB     64       POPC     C312     CTL2    -0.180000       12.0110           0
      8478 MEMB     64       POPC     H12X     HAL2     0.900000E-01   1.00800           0
      8479 MEMB     64       POPC     H12Y     HAL2     0.900000E-01   1.00800           0
      8480 MEMB     64       POPC     C313     CTL2    -0.180000       12.0110           0
      8481 MEMB     64       POPC     H13X     HAL2     0.900000E-01   1.00800           0
      8482 MEMB     64       POPC     H13Y     HAL2     0.900000E-01   1.00800           0
      8483 MEMB     64       POPC     C314     CTL2    -0.180000       12.0110           0
      8484 MEMB     64       POPC     H14X     HAL2     0.900000E-01   1.00800           0
      8485 MEMB     64       POPC     H14Y     HAL2     0.900000E-01   1.00800           0
      8486 MEMB     64       POPC     C315     CTL2    -0.180000       12.0110           0
      8487 MEMB     64       POPC     H15X     HAL2     0.900000E-01   1.00800           0
      8488 MEMB     64       POPC     H15Y     HAL2     0.900000E-01   1.00800           0
      8489 MEMB     64       POPC     C316     CTL3    -0.270000       12.0110           0
      8490 MEMB     64       POPC     H16X     HAL3     0.900000E-01   1.00800           0
      8491 MEMB     64       POPC     H16Y     HAL3     0.900000E-01   1.00800           0
      8492 MEMB     64       POPC     H16Z     HAL3     0.900000E-01   1.00800           0
      8493 MEMB     65       POPC     N        NTL     -0.600000       14.0070           0
      8494 MEMB     65       POPC     C12      CTL2    -0.100000       12.0110           0
      8495 MEMB     65       POPC     H12A     HL       0.250000       1.00800           0
      8496 MEMB     65       POPC     H12B     HL       0.250000       1.00800           0
      8497 MEMB     65       POPC     C13      CTL5    -0.350000       12.0110           0
      8498 MEMB     65       POPC     H13A     HL       0.250000       1.00800           0
      8499 MEMB     65       POPC     H13B     HL       0.250000       1.00800           0
      8500 MEMB     65       POPC     H13C     HL       0.250000       1.00800           0
      8501 MEMB     65       POPC     C14      CTL5    -0.350000       12.0110           0
      8502 MEMB     65       POPC     H14A     HL       0.250000       1.00800           0
      8503 MEMB     65       POPC     H14B     HL       0.250000       1.00800           0
      8504 MEMB     65       POPC     H14C     HL       0.250000       1.00800           0
      8505 MEMB     65       POPC     C15      CTL5    -0.350000       12.0110           0
      8506 MEMB     65       POPC     H15A     HL       0.250000       1.00800           0
      8507 MEMB     65       POPC     H15B     HL       0.250000       1.00800           0
      8508 MEMB     65       POPC     H15C     HL       0.250000       1.00800           0
      8509 MEMB     65       POPC     C11      CTL2    -0.800000E-01   12.0110           0
      8510 MEMB     65       POPC     H11A     HAL2     0.900000E-01   1.00800           0
      8511 MEMB     65       POPC     H11B     HAL2     0.900000E-01   1.00800           0
      8512 MEMB     65       POPC     P        PL        1.50000       30.9740           0
      8513 MEMB     65       POPC     O13      O2L     -0.780000       15.9994           0
      8514 MEMB     65       POPC     O14      O2L     -0.780000       15.9994           0
      8515 MEMB     65       POPC     O12      OSLP    -0.570000       15.9994           0
      8516 MEMB     65       POPC     O11      OSLP    -0.570000       15.9994           0
      8517 MEMB     65       POPC     C1       CTL2    -0.800000E-01   12.0110           0
      8518 MEMB     65       POPC     HA       HAL2     0.900000E-01   1.00800           0
      8519 MEMB     65       POPC     HB       HAL2     0.900000E-01   1.00800           0
      8520 MEMB     65       POPC     C2       CTL1     0.170000       12.0110           0
      8521 MEMB     65       POPC     HS       HAL1     0.900000E-01   1.00800           0
      8522 MEMB     65       POPC     O21      OSL     -0.490000       15.9994           0
      8523 MEMB     65       POPC     C21      CL       0.900000       12.0110           0
      8524 MEMB     65       POPC     O22      OBL     -0.630000       15.9994           0
      8525 MEMB     65       POPC     C22      CTL2    -0.220000       12.0110           0
      8526 MEMB     65       POPC     H2R      HAL2     0.900000E-01   1.00800           0
      8527 MEMB     65       POPC     H2S      HAL2     0.900000E-01   1.00800           0
      8528 MEMB     65       POPC     C3       CTL2     0.800000E-01   12.0110           0
      8529 MEMB     65       POPC     HX       HAL2     0.900000E-01   1.00800           0
      8530 MEMB     65       POPC     HY       HAL2     0.900000E-01   1.00800           0
      8531 MEMB     65       POPC     O31      OSL     -0.490000       15.9994           0
      8532 MEMB     65       POPC     C31      CL       0.900000       12.0110           0
      8533 MEMB     65       POPC     O32      OBL     -0.630000       15.9994           0
      8534 MEMB     65       POPC     C32      CTL2    -0.220000       12.0110           0
      8535 MEMB     65       POPC     H2X      HAL2     0.900000E-01   1.00800           0
      8536 MEMB     65       POPC     H2Y      HAL2     0.900000E-01   1.00800           0
      8537 MEMB     65       POPC     C23      CTL2    -0.180000       12.0110           0
      8538 MEMB     65       POPC     H3R      HAL2     0.900000E-01   1.00800           0
      8539 MEMB     65       POPC     H3S      HAL2     0.900000E-01   1.00800           0
      8540 MEMB     65       POPC     C24      CTL2    -0.180000       12.0110           0
      8541 MEMB     65       POPC     H4R      HAL2     0.900000E-01   1.00800           0
      8542 MEMB     65       POPC     H4S      HAL2     0.900000E-01   1.00800           0
      8543 MEMB     65       POPC     C25      CTL2    -0.180000       12.0110           0
      8544 MEMB     65       POPC     H5R      HAL2     0.900000E-01   1.00800           0
      8545 MEMB     65       POPC     H5S      HAL2     0.900000E-01   1.00800           0
      8546 MEMB     65       POPC     C26      CTL2    -0.180000       12.0110           0
      8547 MEMB     65       POPC     H6R      HAL2     0.900000E-01   1.00800           0
      8548 MEMB     65       POPC     H6S      HAL2     0.900000E-01   1.00800           0
      8549 MEMB     65       POPC     C27      CTL2    -0.180000       12.0110           0
      8550 MEMB     65       POPC     H7R      HAL2     0.900000E-01   1.00800           0
      8551 MEMB     65       POPC     H7S      HAL2     0.900000E-01   1.00800           0
      8552 MEMB     65       POPC     C28      CTL2    -0.180000       12.0110           0
      8553 MEMB     65       POPC     H8R      HAL2     0.900000E-01   1.00800           0
      8554 MEMB     65       POPC     H8S      HAL2     0.900000E-01   1.00800           0
      8555 MEMB     65       POPC     C29      CEL1    -0.150000       12.0110           0
      8556 MEMB     65       POPC     H91      HEL1     0.150000       1.00800           0
      8557 MEMB     65       POPC     C210     CEL1    -0.150000       12.0110           0
      8558 MEMB     65       POPC     H101     HEL1     0.150000       1.00800           0
      8559 MEMB     65       POPC     C211     CTL2    -0.180000       12.0110           0
      8560 MEMB     65       POPC     H11R     HAL2     0.900000E-01   1.00800           0
      8561 MEMB     65       POPC     H11S     HAL2     0.900000E-01   1.00800           0
      8562 MEMB     65       POPC     C212     CTL2    -0.180000       12.0110           0
      8563 MEMB     65       POPC     H12R     HAL2     0.900000E-01   1.00800           0
      8564 MEMB     65       POPC     H12S     HAL2     0.900000E-01   1.00800           0
      8565 MEMB     65       POPC     C213     CTL2    -0.180000       12.0110           0
      8566 MEMB     65       POPC     H13R     HAL2     0.900000E-01   1.00800           0
      8567 MEMB     65       POPC     H13S     HAL2     0.900000E-01   1.00800           0
      8568 MEMB     65       POPC     C214     CTL2    -0.180000       12.0110           0
      8569 MEMB     65       POPC     H14R     HAL2     0.900000E-01   1.00800           0
      8570 MEMB     65       POPC     H14S     HAL2     0.900000E-01   1.00800           0
      8571 MEMB     65       POPC     C215     CTL2    -0.180000       12.0110           0
      8572 MEMB     65       POPC     H15R     HAL2     0.900000E-01   1.00800           0
      8573 MEMB     65       POPC     H15S     HAL2     0.900000E-01   1.00800           0
      8574 MEMB     65       POPC     C216     CTL2    -0.180000       12.0110           0
      8575 MEMB     65       POPC     H16R     HAL2     0.900000E-01   1.00800           0
      8576 MEMB     65       POPC     H16S     HAL2     0.900000E-01   1.00800           0
      8577 MEMB     65       POPC     C217     CTL2    -0.180000       12.0110           0
      8578 MEMB     65       POPC     H17R     HAL2     0.900000E-01   1.00800           0
      8579 MEMB     65       POPC     H17S     HAL2     0.900000E-01   1.00800           0
      8580 MEMB     65       POPC     C218     CTL3    -0.270000       12.0110           0
      8581 MEMB     65       POPC     H18R     HAL3     0.900000E-01   1.00800           0
      8582 MEMB     65       POPC     H18S     HAL3     0.900000E-01   1.00800           0
      8583 MEMB     65       POPC     H18T     HAL3     0.900000E-01   1.00800           0
      8584 MEMB     65       POPC     C33      CTL2    -0.180000       12.0110           0
      8585 MEMB     65       POPC     H3X      HAL2     0.900000E-01   1.00800           0
      8586 MEMB     65       POPC     H3Y      HAL2     0.900000E-01   1.00800           0
      8587 MEMB     65       POPC     C34      CTL2    -0.180000       12.0110           0
      8588 MEMB     65       POPC     H4X      HAL2     0.900000E-01   1.00800           0
      8589 MEMB     65       POPC     H4Y      HAL2     0.900000E-01   1.00800           0
      8590 MEMB     65       POPC     C35      CTL2    -0.180000       12.0110           0
      8591 MEMB     65       POPC     H5X      HAL2     0.900000E-01   1.00800           0
      8592 MEMB     65       POPC     H5Y      HAL2     0.900000E-01   1.00800           0
      8593 MEMB     65       POPC     C36      CTL2    -0.180000       12.0110           0
      8594 MEMB     65       POPC     H6X      HAL2     0.900000E-01   1.00800           0
      8595 MEMB     65       POPC     H6Y      HAL2     0.900000E-01   1.00800           0
      8596 MEMB     65       POPC     C37      CTL2    -0.180000       12.0110           0
      8597 MEMB     65       POPC     H7X      HAL2     0.900000E-01   1.00800           0
      8598 MEMB     65       POPC     H7Y      HAL2     0.900000E-01   1.00800           0
      8599 MEMB     65       POPC     C38      CTL2    -0.180000       12.0110           0
      8600 MEMB     65       POPC     H8X      HAL2     0.900000E-01   1.00800           0
      8601 MEMB     65       POPC     H8Y      HAL2     0.900000E-01   1.00800           0
      8602 MEMB     65       POPC     C39      CTL2    -0.180000       12.0110           0
      8603 MEMB     65       POPC     H9X      HAL2     0.900000E-01   1.00800           0
      8604 MEMB     65       POPC     H9Y      HAL2     0.900000E-01   1.00800           0
      8605 MEMB     65       POPC     C310     CTL2    -0.180000       12.0110           0
      8606 MEMB     65       POPC     H10X     HAL2     0.900000E-01   1.00800           0
      8607 MEMB     65       POPC     H10Y     HAL2     0.900000E-01   1.00800           0
      8608 MEMB     65       POPC     C311     CTL2    -0.180000       12.0110           0
      8609 MEMB     65       POPC     H11X     HAL2     0.900000E-01   1.00800           0
      8610 MEMB     65       POPC     H11Y     HAL2     0.900000E-01   1.00800           0
      8611 MEMB     65       POPC     C312     CTL2    -0.180000       12.0110           0
      8612 MEMB     65       POPC     H12X     HAL2     0.900000E-01   1.00800           0
      8613 MEMB     65       POPC     H12Y     HAL2     0.900000E-01   1.00800           0
      8614 MEMB     65       POPC     C313     CTL2    -0.180000       12.0110           0
      8615 MEMB     65       POPC     H13X     HAL2     0.900000E-01   1.00800           0
      8616 MEMB     65       POPC     H13Y     HAL2     0.900000E-01   1.00800           0
      8617 MEMB     65       POPC     C314     CTL2    -0.180000       12.0110           0
      8618 MEMB     65       POPC     H14X     HAL2     0.900000E-01   1.00800           0
      8619 MEMB     65       POPC     H14Y     HAL2     0.900000E-01   1.00800           0
      8620 MEMB     65       POPC     C315     CTL2    -0.180000       12.0110           0
      8621 MEMB     65       POPC     H15X     HAL2     0.900000E-01   1.00800           0
      8622 MEMB     65       POPC     H15Y     HAL2     0.900000E-01   1.00800           0
      8623 MEMB     65       POPC     C316     CTL3    -0.270000       12.0110           0
      8624 MEMB     65       POPC     H16X     HAL3     0.900000E-01   1.00800           0
      8625 MEMB     65       POPC     H16Y     HAL3     0.900000E-01   1.00800           0
      8626 MEMB     65       POPC     H16Z     HAL3     0.900000E-01   1.00800           0
      8627 MEMB     66       POPS     N        NH3L    -0.300000       14.0070           0
      8628 MEMB     66       POPS     HN1      HCL      0.330000       1.00800           0
      8629 MEMB     66       POPS     HN2      HCL      0.330000       1.00800           0
      8630 MEMB     66       POPS     HN3      HCL      0.330000       1.00800           0
      8631 MEMB     66       POPS     C12      CTL1     0.210000       12.0110           0
      8632 MEMB     66       POPS     H12A     HBL      0.100000       1.00800           0
      8633 MEMB     66       POPS     C13      CCL      0.340000       12.0110           0
      8634 MEMB     66       POPS     O13A     OCL     -0.670000       15.9994           0
      8635 MEMB     66       POPS     O13B     OCL     -0.670000       15.9994           0
      8636 MEMB     66       POPS     C11      CTL2    -0.800000E-01   12.0110           0
      8637 MEMB     66       POPS     H11A     HAL2     0.900000E-01   1.00800           0
      8638 MEMB     66       POPS     H11B     HAL2     0.900000E-01   1.00800           0
      8639 MEMB     66       POPS     P        PL        1.50000       30.9740           0
      8640 MEMB     66       POPS     O13      O2L     -0.780000       15.9994           0
      8641 MEMB     66       POPS     O14      O2L     -0.780000       15.9994           0
      8642 MEMB     66       POPS     O12      OSLP    -0.570000       15.9994           0
      8643 MEMB     66       POPS     O11      OSLP    -0.570000       15.9994           0
      8644 MEMB     66       POPS     C1       CTL2    -0.800000E-01   12.0110           0
      8645 MEMB     66       POPS     HA       HAL2     0.900000E-01   1.00800           0
      8646 MEMB     66       POPS     HB       HAL2     0.900000E-01   1.00800           0
      8647 MEMB     66       POPS     C2       CTL1     0.170000       12.0110           0
      8648 MEMB     66       POPS     HS       HAL1     0.900000E-01   1.00800           0
      8649 MEMB     66       POPS     O21      OSL     -0.490000       15.9994           0
      8650 MEMB     66       POPS     C21      CL       0.900000       12.0110           0
      8651 MEMB     66       POPS     O22      OBL     -0.630000       15.9994           0
      8652 MEMB     66       POPS     C22      CTL2    -0.220000       12.0110           0
      8653 MEMB     66       POPS     H2R      HAL2     0.900000E-01   1.00800           0
      8654 MEMB     66       POPS     H2S      HAL2     0.900000E-01   1.00800           0
      8655 MEMB     66       POPS     C3       CTL2     0.800000E-01   12.0110           0
      8656 MEMB     66       POPS     HX       HAL2     0.900000E-01   1.00800           0
      8657 MEMB     66       POPS     HY       HAL2     0.900000E-01   1.00800           0
      8658 MEMB     66       POPS     O31      OSL     -0.490000       15.9994           0
      8659 MEMB     66       POPS     C31      CL       0.900000       12.0110           0
      8660 MEMB     66       POPS     O32      OBL     -0.630000       15.9994           0
      8661 MEMB     66       POPS     C32      CTL2    -0.220000       12.0110           0
      8662 MEMB     66       POPS     H2X      HAL2     0.900000E-01   1.00800           0
      8663 MEMB     66       POPS     H2Y      HAL2     0.900000E-01   1.00800           0
      8664 MEMB     66       POPS     C23      CTL2    -0.180000       12.0110           0
      8665 MEMB     66       POPS     H3R      HAL2     0.900000E-01   1.00800           0
      8666 MEMB     66       POPS     H3S      HAL2     0.900000E-01   1.00800           0
      8667 MEMB     66       POPS     C24      CTL2    -0.180000       12.0110           0
      8668 MEMB     66       POPS     H4R      HAL2     0.900000E-01   1.00800           0
      8669 MEMB     66       POPS     H4S      HAL2     0.900000E-01   1.00800           0
      8670 MEMB     66       POPS     C25      CTL2    -0.180000       12.0110           0
      8671 MEMB     66       POPS     H5R      HAL2     0.900000E-01   1.00800           0
      8672 MEMB     66       POPS     H5S      HAL2     0.900000E-01   1.00800           0
      8673 MEMB     66       POPS     C26      CTL2    -0.180000       12.0110           0
      8674 MEMB     66       POPS     H6R      HAL2     0.900000E-01   1.00800           0
      8675 MEMB     66       POPS     H6S      HAL2     0.900000E-01   1.00800           0
      8676 MEMB     66       POPS     C27      CTL2    -0.180000       12.0110           0
      8677 MEMB     66       POPS     H7R      HAL2     0.900000E-01   1.00800           0
      8678 MEMB     66       POPS     H7S      HAL2     0.900000E-01   1.00800           0
      8679 MEMB     66       POPS     C28      CTL2    -0.180000       12.0110           0
      8680 MEMB     66       POPS     H8R      HAL2     0.900000E-01   1.00800           0
      8681 MEMB     66       POPS     H8S      HAL2     0.900000E-01   1.00800           0
      8682 MEMB     66       POPS     C29      CEL1    -0.150000       12.0110           0
      8683 MEMB     66       POPS     H91      HEL1     0.150000       1.00800           0
      8684 MEMB     66       POPS     C210     CEL1    -0.150000       12.0110           0
      8685 MEMB     66       POPS     H101     HEL1     0.150000       1.00800           0
      8686 MEMB     66       POPS     C211     CTL2    -0.180000       12.0110           0
      8687 MEMB     66       POPS     H11R     HAL2     0.900000E-01   1.00800           0
      8688 MEMB     66       POPS     H11S     HAL2     0.900000E-01   1.00800           0
      8689 MEMB     66       POPS     C212     CTL2    -0.180000       12.0110           0
      8690 MEMB     66       POPS     H12R     HAL2     0.900000E-01   1.00800           0
      8691 MEMB     66       POPS     H12S     HAL2     0.900000E-01   1.00800           0
      8692 MEMB     66       POPS     C213     CTL2    -0.180000       12.0110           0
      8693 MEMB     66       POPS     H13R     HAL2     0.900000E-01   1.00800           0
      8694 MEMB     66       POPS     H13S     HAL2     0.900000E-01   1.00800           0
      8695 MEMB     66       POPS     C214     CTL2    -0.180000       12.0110           0
      8696 MEMB     66       POPS     H14R     HAL2     0.900000E-01   1.00800           0
      8697 MEMB     66       POPS     H14S     HAL2     0.900000E-01   1.00800           0
      8698 MEMB     66       POPS     C215     CTL2    -0.180000       12.0110           0
      8699 MEMB     66       POPS     H15R     HAL2     0.900000E-01   1.00800           0
      8700 MEMB     66       POPS     H15S     HAL2     0.900000E-01   1.00800           0
      8701 MEMB     66       POPS     C216     CTL2    -0.180000       12.0110           0
      8702 MEMB     66       POPS     H16R     HAL2     0.900000E-01   1.00800           0
      8703 MEMB     66       POPS     H16S     HAL2     0.900000E-01   1.00800           0
      8704 MEMB     66       POPS     C217     CTL2    -0.180000       12.0110           0
      8705 MEMB     66       POPS     H17R     HAL2     0.900000E-01   1.00800           0
      8706 MEMB     66       POPS     H17S     HAL2     0.900000E-01   1.00800           0
      8707 MEMB     66       POPS     C218     CTL3    -0.270000       12.0110           0
      8708 MEMB     66       POPS     H18R     HAL3     0.900000E-01   1.00800           0
      8709 MEMB     66       POPS     H18S     HAL3     0.900000E-01   1.00800           0
      8710 MEMB     66       POPS     H18T     HAL3     0.900000E-01   1.00800           0
      8711 MEMB     66       POPS     C33      CTL2    -0.180000       12.0110           0
      8712 MEMB     66       POPS     H3X      HAL2     0.900000E-01   1.00800           0
      8713 MEMB     66       POPS     H3Y      HAL2     0.900000E-01   1.00800           0
      8714 MEMB     66       POPS     C34      CTL2    -0.180000       12.0110           0
      8715 MEMB     66       POPS     H4X      HAL2     0.900000E-01   1.00800           0
      8716 MEMB     66       POPS     H4Y      HAL2     0.900000E-01   1.00800           0
      8717 MEMB     66       POPS     C35      CTL2    -0.180000       12.0110           0
      8718 MEMB     66       POPS     H5X      HAL2     0.900000E-01   1.00800           0
      8719 MEMB     66       POPS     H5Y      HAL2     0.900000E-01   1.00800           0
      8720 MEMB     66       POPS     C36      CTL2    -0.180000       12.0110           0
      8721 MEMB     66       POPS     H6X      HAL2     0.900000E-01   1.00800           0
      8722 MEMB     66       POPS     H6Y      HAL2     0.900000E-01   1.00800           0
      8723 MEMB     66       POPS     C37      CTL2    -0.180000       12.0110           0
      8724 MEMB     66       POPS     H7X      HAL2     0.900000E-01   1.00800           0
      8725 MEMB     66       POPS     H7Y      HAL2     0.900000E-01   1.00800           0
      8726 MEMB     66       POPS     C38      CTL2    -0.180000       12.0110           0
      8727 MEMB     66       POPS     H8X      HAL2     0.900000E-01   1.00800           0
      8728 MEMB     66       POPS     H8Y      HAL2     0.900000E-01   1.00800           0
      8729 MEMB     66       POPS     C39      CTL2    -0.180000       12.0110           0
      8730 MEMB     66       POPS     H9X      HAL2     0.900000E-01   1.00800           0
      8731 MEMB     66       POPS     H9Y      HAL2     0.900000E-01   1.00800           0
      8732 MEMB     66       POPS     C310     CTL2    -0.180000       12.0110           0
      8733 MEMB     66       POPS     H10X     HAL2     0.900000E-01   1.00800           0
      8734 MEMB     66       POPS     H10Y     HAL2     0.900000E-01   1.00800           0
      8735 MEMB     66       POPS     C311     CTL2    -0.180000       12.0110           0
      8736 MEMB     66       POPS     H11X     HAL2     0.900000E-01   1.00800           0
      8737 MEMB     66       POPS     H11Y     HAL2     0.900000E-01   1.00800           0
      8738 MEMB     66       POPS     C312     CTL2    -0.180000       12.0110           0
      8739 MEMB     66       POPS     H12X     HAL2     0.900000E-01   1.00800           0
      8740 MEMB     66       POPS     H12Y     HAL2     0.900000E-01   1.00800           0
      8741 MEMB     66       POPS     C313     CTL2    -0.180000       12.0110           0
      8742 MEMB     66       POPS     H13X     HAL2     0.900000E-01   1.00800           0
      8743 MEMB     66       POPS     H13Y     HAL2     0.900000E-01   1.00800           0
      8744 MEMB     66       POPS     C314     CTL2    -0.180000       12.0110           0
      8745 MEMB     66       POPS     H14X     HAL2     0.900000E-01   1.00800           0
      8746 MEMB     66       POPS     H14Y     HAL2     0.900000E-01   1.00800           0
      8747 MEMB     66       POPS     C315     CTL2    -0.180000       12.0110           0
      8748 MEMB     66       POPS     H15X     HAL2     0.900000E-01   1.00800           0
      8749 MEMB     66       POPS     H15Y     HAL2     0.900000E-01   1.00800           0
      8750 MEMB     66       POPS     C316     CTL3    -0.270000       12.0110           0
      8751 MEMB     66       POPS     H16X     HAL3     0.900000E-01   1.00800           0
      8752 MEMB     66       POPS     H16Y     HAL3     0.900000E-01   1.00800           0
      8753 MEMB     66       POPS     H16Z     HAL3     0.900000E-01   1.00800           0
      8754 MEMB     67       POPS     N        NH3L    -0.300000       14.0070           0
      8755 MEMB     67       POPS     HN1      HCL      0.330000       1.00800           0
      8756 MEMB     67       POPS     HN2      HCL      0.330000       1.00800           0
      8757 MEMB     67       POPS     HN3      HCL      0.330000       1.00800           0
      8758 MEMB     67       POPS     C12      CTL1     0.210000       12.0110           0
      8759 MEMB     67       POPS     H12A     HBL      0.100000       1.00800           0
      8760 MEMB     67       POPS     C13      CCL      0.340000       12.0110           0
      8761 MEMB     67       POPS     O13A     OCL     -0.670000       15.9994           0
      8762 MEMB     67       POPS     O13B     OCL     -0.670000       15.9994           0
      8763 MEMB     67       POPS     C11      CTL2    -0.800000E-01   12.0110           0
      8764 MEMB     67       POPS     H11A     HAL2     0.900000E-01   1.00800           0
      8765 MEMB     67       POPS     H11B     HAL2     0.900000E-01   1.00800           0
      8766 MEMB     67       POPS     P        PL        1.50000       30.9740           0
      8767 MEMB     67       POPS     O13      O2L     -0.780000       15.9994           0
      8768 MEMB     67       POPS     O14      O2L     -0.780000       15.9994           0
      8769 MEMB     67       POPS     O12      OSLP    -0.570000       15.9994           0
      8770 MEMB     67       POPS     O11      OSLP    -0.570000       15.9994           0
      8771 MEMB     67       POPS     C1       CTL2    -0.800000E-01   12.0110           0
      8772 MEMB     67       POPS     HA       HAL2     0.900000E-01   1.00800           0
      8773 MEMB     67       POPS     HB       HAL2     0.900000E-01   1.00800           0
      8774 MEMB     67       POPS     C2       CTL1     0.170000       12.0110           0
      8775 MEMB     67       POPS     HS       HAL1     0.900000E-01   1.00800           0
      8776 MEMB     67       POPS     O21      OSL     -0.490000       15.9994           0
      8777 MEMB     67       POPS     C21      CL       0.900000       12.0110           0
      8778 MEMB     67       POPS     O22      OBL     -0.630000       15.9994           0
      8779 MEMB     67       POPS     C22      CTL2    -0.220000       12.0110           0
      8780 MEMB     67       POPS     H2R      HAL2     0.900000E-01   1.00800           0
      8781 MEMB     67       POPS     H2S      HAL2     0.900000E-01   1.00800           0
      8782 MEMB     67       POPS     C3       CTL2     0.800000E-01   12.0110           0
      8783 MEMB     67       POPS     HX       HAL2     0.900000E-01   1.00800           0
      8784 MEMB     67       POPS     HY       HAL2     0.900000E-01   1.00800           0
      8785 MEMB     67       POPS     O31      OSL     -0.490000       15.9994           0
      8786 MEMB     67       POPS     C31      CL       0.900000       12.0110           0
      8787 MEMB     67       POPS     O32      OBL     -0.630000       15.9994           0
      8788 MEMB     67       POPS     C32      CTL2    -0.220000       12.0110           0
      8789 MEMB     67       POPS     H2X      HAL2     0.900000E-01   1.00800           0
      8790 MEMB     67       POPS     H2Y      HAL2     0.900000E-01   1.00800           0
      8791 MEMB     67       POPS     C23      CTL2    -0.180000       12.0110           0
      8792 MEMB     67       POPS     H3R      HAL2     0.900000E-01   1.00800           0
      8793 MEMB     67       POPS     H3S      HAL2     0.900000E-01   1.00800           0
      8794 MEMB     67       POPS     C24      CTL2    -0.180000       12.0110           0
      8795 MEMB     67       POPS     H4R      HAL2     0.900000E-01   1.00800           0
      8796 MEMB     67       POPS     H4S      HAL2     0.900000E-01   1.00800           0
      8797 MEMB     67       POPS     C25      CTL2    -0.180000       12.0110           0
      8798 MEMB     67       POPS     H5R      HAL2     0.900000E-01   1.00800           0
      8799 MEMB     67       POPS     H5S      HAL2     0.900000E-01   1.00800           0
      8800 MEMB     67       POPS     C26      CTL2    -0.180000       12.0110           0
      8801 MEMB     67       POPS     H6R      HAL2     0.900000E-01   1.00800           0
      8802 MEMB     67       POPS     H6S      HAL2     0.900000E-01   1.00800           0
      8803 MEMB     67       POPS     C27      CTL2    -0.180000       12.0110           0
      8804 MEMB     67       POPS     H7R      HAL2     0.900000E-01   1.00800           0
      8805 MEMB     67       POPS     H7S      HAL2     0.900000E-01   1.00800           0
      8806 MEMB     67       POPS     C28      CTL2    -0.180000       12.0110           0
      8807 MEMB     67       POPS     H8R      HAL2     0.900000E-01   1.00800           0
      8808 MEMB     67       POPS     H8S      HAL2     0.900000E-01   1.00800           0
      8809 MEMB     67       POPS     C29      CEL1    -0.150000       12.0110           0
      8810 MEMB     67       POPS     H91      HEL1     0.150000       1.00800           0
      8811 MEMB     67       POPS     C210     CEL1    -0.150000       12.0110           0
      8812 MEMB     67       POPS     H101     HEL1     0.150000       1.00800           0
      8813 MEMB     67       POPS     C211     CTL2    -0.180000       12.0110           0
      8814 MEMB     67       POPS     H11R     HAL2     0.900000E-01   1.00800           0
      8815 MEMB     67       POPS     H11S     HAL2     0.900000E-01   1.00800           0
      8816 MEMB     67       POPS     C212     CTL2    -0.180000       12.0110           0
      8817 MEMB     67       POPS     H12R     HAL2     0.900000E-01   1.00800           0
      8818 MEMB     67       POPS     H12S     HAL2     0.900000E-01   1.00800           0
      8819 MEMB     67       POPS     C213     CTL2    -0.180000       12.0110           0
      8820 MEMB     67       POPS     H13R     HAL2     0.900000E-01   1.00800           0
      8821 MEMB     67       POPS     H13S     HAL2     0.900000E-01   1.00800           0
      8822 MEMB     67       POPS     C214     CTL2    -0.180000       12.0110           0
      8823 MEMB     67       POPS     H14R     HAL2     0.900000E-01   1.00800           0
      8824 MEMB     67       POPS     H14S     HAL2     0.900000E-01   1.00800           0
      8825 MEMB     67       POPS     C215     CTL2    -0.180000       12.0110           0
      8826 MEMB     67       POPS     H15R     HAL2     0.900000E-01   1.00800           0
      8827 MEMB     67       POPS     H15S     HAL2     0.900000E-01   1.00800           0
      8828 MEMB     67       POPS     C216     CTL2    -0.180000       12.0110           0
      8829 MEMB     67       POPS     H16R     HAL2     0.900000E-01   1.00800           0
      8830 MEMB     67       POPS     H16S     HAL2     0.900000E-01   1.00800           0
      8831 MEMB     67       POPS     C217     CTL2    -0.180000       12.0110           0
      8832 MEMB     67       POPS     H17R     HAL2     0.900000E-01   1.00800           0
      8833 MEMB     67       POPS     H17S     HAL2     0.900000E-01   1.00800           0
      8834 MEMB     67       POPS     C218     CTL3    -0.270000       12.0110           0
      8835 MEMB     67       POPS     H18R     HAL3     0.900000E-01   1.00800           0
      8836 MEMB     67       POPS     H18S     HAL3     0.900000E-01   1.00800           0
      8837 MEMB     67       POPS     H18T     HAL3     0.900000E-01   1.00800           0
      8838 MEMB     67       POPS     C33      CTL2    -0.180000       12.0110           0
      8839 MEMB     67       POPS     H3X      HAL2     0.900000E-01   1.00800           0
      8840 MEMB     67       POPS     H3Y      HAL2     0.900000E-01   1.00800           0
      8841 MEMB     67       POPS     C34      CTL2    -0.180000       12.0110           0
      8842 MEMB     67       POPS     H4X      HAL2     0.900000E-01   1.00800           0
      8843 MEMB     67       POPS     H4Y      HAL2     0.900000E-01   1.00800           0
      8844 MEMB     67       POPS     C35      CTL2    -0.180000       12.0110           0
      8845 MEMB     67       POPS     H5X      HAL2     0.900000E-01   1.00800           0
      8846 MEMB     67       POPS     H5Y      HAL2     0.900000E-01   1.00800           0
      8847 MEMB     67       POPS     C36      CTL2    -0.180000       12.0110           0
      8848 MEMB     67       POPS     H6X      HAL2     0.900000E-01   1.00800           0
      8849 MEMB     67       POPS     H6Y      HAL2     0.900000E-01   1.00800           0
      8850 MEMB     67       POPS     C37      CTL2    -0.180000       12.0110           0
      8851 MEMB     67       POPS     H7X      HAL2     0.900000E-01   1.00800           0
      8852 MEMB     67       POPS     H7Y      HAL2     0.900000E-01   1.00800           0
      8853 MEMB     67       POPS     C38      CTL2    -0.180000       12.0110           0
      8854 MEMB     67       POPS     H8X      HAL2     0.900000E-01   1.00800           0
      8855 MEMB     67       POPS     H8Y      HAL2     0.900000E-01   1.00800           0
      8856 MEMB     67       POPS     C39      CTL2    -0.180000       12.0110           0
      8857 MEMB     67       POPS     H9X      HAL2     0.900000E-01   1.00800           0
      8858 MEMB     67       POPS     H9Y      HAL2     0.900000E-01   1.00800           0
      8859 MEMB     67       POPS     C310     CTL2    -0.180000       12.0110           0
      8860 MEMB     67       POPS     H10X     HAL2     0.900000E-01   1.00800           0
      8861 MEMB     67       POPS     H10Y     HAL2     0.900000E-01   1.00800           0
      8862 MEMB     67       POPS     C311     CTL2    -0.180000       12.0110           0
      8863 MEMB     67       POPS     H11X     HAL2     0.900000E-01   1.00800           0
      8864 MEMB     67       POPS     H11Y     HAL2     0.900000E-01   1.00800           0
      8865 MEMB     67       POPS     C312     CTL2    -0.180000       12.0110           0
      8866 MEMB     67       POPS     H12X     HAL2     0.900000E-01   1.00800           0
      8867 MEMB     67       POPS     H12Y     HAL2     0.900000E-01   1.00800           0
      8868 MEMB     67       POPS     C313     CTL2    -0.180000       12.0110           0
      8869 MEMB     67       POPS     H13X     HAL2     0.900000E-01   1.00800           0
      8870 MEMB     67       POPS     H13Y     HAL2     0.900000E-01   1.00800           0
      8871 MEMB     67       POPS     C314     CTL2    -0.180000       12.0110           0
      8872 MEMB     67       POPS     H14X     HAL2     0.900000E-01   1.00800           0
      8873 MEMB     67       POPS     H14Y     HAL2     0.900000E-01   1.00800           0
      8874 MEMB     67       POPS     C315     CTL2    -0.180000       12.0110           0
      8875 MEMB     67       POPS     H15X     HAL2     0.900000E-01   1.00800           0
      8876 MEMB     67       POPS     H15Y     HAL2     0.900000E-01   1.00800           0
      8877 MEMB     67       POPS     C316     CTL3    -0.270000       12.0110           0
      8878 MEMB     67       POPS     H16X     HAL3     0.900000E-01   1.00800           0
      8879 MEMB     67       POPS     H16Y     HAL3     0.900000E-01   1.00800           0
      8880 MEMB     67       POPS     H16Z     HAL3     0.900000E-01   1.00800           0
      8881 MEMB     68       POPC     N        NTL     -0.600000       14.0070           0
      8882 MEMB     68       POPC     C12      CTL2    -0.100000       12.0110           0
      8883 MEMB     68       POPC     H12A     HL       0.250000       1.00800           0
      8884 MEMB     68       POPC     H12B     HL       0.250000       1.00800           0
      8885 MEMB     68       POPC     C13      CTL5    -0.350000       12.0110           0
      8886 MEMB     68       POPC     H13A     HL       0.250000       1.00800           0
      8887 MEMB     68       POPC     H13B     HL       0.250000       1.00800           0
      8888 MEMB     68       POPC     H13C     HL       0.250000       1.00800           0
      8889 MEMB     68       POPC     C14      CTL5    -0.350000       12.0110           0
      8890 MEMB     68       POPC     H14A     HL       0.250000       1.00800           0
      8891 MEMB     68       POPC     H14B     HL       0.250000       1.00800           0
      8892 MEMB     68       POPC     H14C     HL       0.250000       1.00800           0
      8893 MEMB     68       POPC     C15      CTL5    -0.350000       12.0110           0
      8894 MEMB     68       POPC     H15A     HL       0.250000       1.00800           0
      8895 MEMB     68       POPC     H15B     HL       0.250000       1.00800           0
      8896 MEMB     68       POPC     H15C     HL       0.250000       1.00800           0
      8897 MEMB     68       POPC     C11      CTL2    -0.800000E-01   12.0110           0
      8898 MEMB     68       POPC     H11A     HAL2     0.900000E-01   1.00800           0
      8899 MEMB     68       POPC     H11B     HAL2     0.900000E-01   1.00800           0
      8900 MEMB     68       POPC     P        PL        1.50000       30.9740           0
      8901 MEMB     68       POPC     O13      O2L     -0.780000       15.9994           0
      8902 MEMB     68       POPC     O14      O2L     -0.780000       15.9994           0
      8903 MEMB     68       POPC     O12      OSLP    -0.570000       15.9994           0
      8904 MEMB     68       POPC     O11      OSLP    -0.570000       15.9994           0
      8905 MEMB     68       POPC     C1       CTL2    -0.800000E-01   12.0110           0
      8906 MEMB     68       POPC     HA       HAL2     0.900000E-01   1.00800           0
      8907 MEMB     68       POPC     HB       HAL2     0.900000E-01   1.00800           0
      8908 MEMB     68       POPC     C2       CTL1     0.170000       12.0110           0
      8909 MEMB     68       POPC     HS       HAL1     0.900000E-01   1.00800           0
      8910 MEMB     68       POPC     O21      OSL     -0.490000       15.9994           0
      8911 MEMB     68       POPC     C21      CL       0.900000       12.0110           0
      8912 MEMB     68       POPC     O22      OBL     -0.630000       15.9994           0
      8913 MEMB     68       POPC     C22      CTL2    -0.220000       12.0110           0
      8914 MEMB     68       POPC     H2R      HAL2     0.900000E-01   1.00800           0
      8915 MEMB     68       POPC     H2S      HAL2     0.900000E-01   1.00800           0
      8916 MEMB     68       POPC     C3       CTL2     0.800000E-01   12.0110           0
      8917 MEMB     68       POPC     HX       HAL2     0.900000E-01   1.00800           0
      8918 MEMB     68       POPC     HY       HAL2     0.900000E-01   1.00800           0
      8919 MEMB     68       POPC     O31      OSL     -0.490000       15.9994           0
      8920 MEMB     68       POPC     C31      CL       0.900000       12.0110           0
      8921 MEMB     68       POPC     O32      OBL     -0.630000       15.9994           0
      8922 MEMB     68       POPC     C32      CTL2    -0.220000       12.0110           0
      8923 MEMB     68       POPC     H2X      HAL2     0.900000E-01   1.00800           0
      8924 MEMB     68       POPC     H2Y      HAL2     0.900000E-01   1.00800           0
      8925 MEMB     68       POPC     C23      CTL2    -0.180000       12.0110           0
      8926 MEMB     68       POPC     H3R      HAL2     0.900000E-01   1.00800           0
      8927 MEMB     68       POPC     H3S      HAL2     0.900000E-01   1.00800           0
      8928 MEMB     68       POPC     C24      CTL2    -0.180000       12.0110           0
      8929 MEMB     68       POPC     H4R      HAL2     0.900000E-01   1.00800           0
      8930 MEMB     68       POPC     H4S      HAL2     0.900000E-01   1.00800           0
      8931 MEMB     68       POPC     C25      CTL2    -0.180000       12.0110           0
      8932 MEMB     68       POPC     H5R      HAL2     0.900000E-01   1.00800           0
      8933 MEMB     68       POPC     H5S      HAL2     0.900000E-01   1.00800           0
      8934 MEMB     68       POPC     C26      CTL2    -0.180000       12.0110           0
      8935 MEMB     68       POPC     H6R      HAL2     0.900000E-01   1.00800           0
      8936 MEMB     68       POPC     H6S      HAL2     0.900000E-01   1.00800           0
      8937 MEMB     68       POPC     C27      CTL2    -0.180000       12.0110           0
      8938 MEMB     68       POPC     H7R      HAL2     0.900000E-01   1.00800           0
      8939 MEMB     68       POPC     H7S      HAL2     0.900000E-01   1.00800           0
      8940 MEMB     68       POPC     C28      CTL2    -0.180000       12.0110           0
      8941 MEMB     68       POPC     H8R      HAL2     0.900000E-01   1.00800           0
      8942 MEMB     68       POPC     H8S      HAL2     0.900000E-01   1.00800           0
      8943 MEMB     68       POPC     C29      CEL1    -0.150000       12.0110           0
      8944 MEMB     68       POPC     H91      HEL1     0.150000       1.00800           0
      8945 MEMB     68       POPC     C210     CEL1    -0.150000       12.0110           0
      8946 MEMB     68       POPC     H101     HEL1     0.150000       1.00800           0
      8947 MEMB     68       POPC     C211     CTL2    -0.180000       12.0110           0
      8948 MEMB     68       POPC     H11R     HAL2     0.900000E-01   1.00800           0
      8949 MEMB     68       POPC     H11S     HAL2     0.900000E-01   1.00800           0
      8950 MEMB     68       POPC     C212     CTL2    -0.180000       12.0110           0
      8951 MEMB     68       POPC     H12R     HAL2     0.900000E-01   1.00800           0
      8952 MEMB     68       POPC     H12S     HAL2     0.900000E-01   1.00800           0
      8953 MEMB     68       POPC     C213     CTL2    -0.180000       12.0110           0
      8954 MEMB     68       POPC     H13R     HAL2     0.900000E-01   1.00800           0
      8955 MEMB     68       POPC     H13S     HAL2     0.900000E-01   1.00800           0
      8956 MEMB     68       POPC     C214     CTL2    -0.180000       12.0110           0
      8957 MEMB     68       POPC     H14R     HAL2     0.900000E-01   1.00800           0
      8958 MEMB     68       POPC     H14S     HAL2     0.900000E-01   1.00800           0
      8959 MEMB     68       POPC     C215     CTL2    -0.180000       12.0110           0
      8960 MEMB     68       POPC     H15R     HAL2     0.900000E-01   1.00800           0
      8961 MEMB     68       POPC     H15S     HAL2     0.900000E-01   1.00800           0
      8962 MEMB     68       POPC     C216     CTL2    -0.180000       12.0110           0
      8963 MEMB     68       POPC     H16R     HAL2     0.900000E-01   1.00800           0
      8964 MEMB     68       POPC     H16S     HAL2     0.900000E-01   1.00800           0
      8965 MEMB     68       POPC     C217     CTL2    -0.180000       12.0110           0
      8966 MEMB     68       POPC     H17R     HAL2     0.900000E-01   1.00800           0
      8967 MEMB     68       POPC     H17S     HAL2     0.900000E-01   1.00800           0
      8968 MEMB     68       POPC     C218     CTL3    -0.270000       12.0110           0
      8969 MEMB     68       POPC     H18R     HAL3     0.900000E-01   1.00800           0
      8970 MEMB     68       POPC     H18S     HAL3     0.900000E-01   1.00800           0
      8971 MEMB     68       POPC     H18T     HAL3     0.900000E-01   1.00800           0
      8972 MEMB     68       POPC     C33      CTL2    -0.180000       12.0110           0
      8973 MEMB     68       POPC     H3X      HAL2     0.900000E-01   1.00800           0
      8974 MEMB     68       POPC     H3Y      HAL2     0.900000E-01   1.00800           0
      8975 MEMB     68       POPC     C34      CTL2    -0.180000       12.0110           0
      8976 MEMB     68       POPC     H4X      HAL2     0.900000E-01   1.00800           0
      8977 MEMB     68       POPC     H4Y      HAL2     0.900000E-01   1.00800           0
      8978 MEMB     68       POPC     C35      CTL2    -0.180000       12.0110           0
      8979 MEMB     68       POPC     H5X      HAL2     0.900000E-01   1.00800           0
      8980 MEMB     68       POPC     H5Y      HAL2     0.900000E-01   1.00800           0
      8981 MEMB     68       POPC     C36      CTL2    -0.180000       12.0110           0
      8982 MEMB     68       POPC     H6X      HAL2     0.900000E-01   1.00800           0
      8983 MEMB     68       POPC     H6Y      HAL2     0.900000E-01   1.00800           0
      8984 MEMB     68       POPC     C37      CTL2    -0.180000       12.0110           0
      8985 MEMB     68       POPC     H7X      HAL2     0.900000E-01   1.00800           0
      8986 MEMB     68       POPC     H7Y      HAL2     0.900000E-01   1.00800           0
      8987 MEMB     68       POPC     C38      CTL2    -0.180000       12.0110           0
      8988 MEMB     68       POPC     H8X      HAL2     0.900000E-01   1.00800           0
      8989 MEMB     68       POPC     H8Y      HAL2     0.900000E-01   1.00800           0
      8990 MEMB     68       POPC     C39      CTL2    -0.180000       12.0110           0
      8991 MEMB     68       POPC     H9X      HAL2     0.900000E-01   1.00800           0
      8992 MEMB     68       POPC     H9Y      HAL2     0.900000E-01   1.00800           0
      8993 MEMB     68       POPC     C310     CTL2    -0.180000       12.0110           0
      8994 MEMB     68       POPC     H10X     HAL2     0.900000E-01   1.00800           0
      8995 MEMB     68       POPC     H10Y     HAL2     0.900000E-01   1.00800           0
      8996 MEMB     68       POPC     C311     CTL2    -0.180000       12.0110           0
      8997 MEMB     68       POPC     H11X     HAL2     0.900000E-01   1.00800           0
      8998 MEMB     68       POPC     H11Y     HAL2     0.900000E-01   1.00800           0
      8999 MEMB     68       POPC     C312     CTL2    -0.180000       12.0110           0
      9000 MEMB     68       POPC     H12X     HAL2     0.900000E-01   1.00800           0
      9001 MEMB     68       POPC     H12Y     HAL2     0.900000E-01   1.00800           0
      9002 MEMB     68       POPC     C313     CTL2    -0.180000       12.0110           0
      9003 MEMB     68       POPC     H13X     HAL2     0.900000E-01   1.00800           0
      9004 MEMB     68       POPC     H13Y     HAL2     0.900000E-01   1.00800           0
      9005 MEMB     68       POPC     C314     CTL2    -0.180000       12.0110           0
      9006 MEMB     68       POPC     H14X     HAL2     0.900000E-01   1.00800           0
      9007 MEMB     68       POPC     H14Y     HAL2     0.900000E-01   1.00800           0
      9008 MEMB     68       POPC     C315     CTL2    -0.180000       12.0110           0
      9009 MEMB     68       POPC     H15X     HAL2     0.900000E-01   1.00800           0
      9010 MEMB     68       POPC     H15Y     HAL2     0.900000E-01   1.00800           0
      9011 MEMB     68       POPC     C316     CTL3    -0.270000       12.0110           0
      9012 MEMB     68       POPC     H16X     HAL3     0.900000E-01   1.00800           0
      9013 MEMB     68       POPC     H16Y     HAL3     0.900000E-01   1.00800           0
      9014 MEMB     68       POPC     H16Z     HAL3     0.900000E-01   1.00800           0
      9015 MEMB     69       POPC     N        NTL     -0.600000       14.0070           0
      9016 MEMB     69       POPC     C12      CTL2    -0.100000       12.0110           0
      9017 MEMB     69       POPC     H12A     HL       0.250000       1.00800           0
      9018 MEMB     69       POPC     H12B     HL       0.250000       1.00800           0
      9019 MEMB     69       POPC     C13      CTL5    -0.350000       12.0110           0
      9020 MEMB     69       POPC     H13A     HL       0.250000       1.00800           0
      9021 MEMB     69       POPC     H13B     HL       0.250000       1.00800           0
      9022 MEMB     69       POPC     H13C     HL       0.250000       1.00800           0
      9023 MEMB     69       POPC     C14      CTL5    -0.350000       12.0110           0
      9024 MEMB     69       POPC     H14A     HL       0.250000       1.00800           0
      9025 MEMB     69       POPC     H14B     HL       0.250000       1.00800           0
      9026 MEMB     69       POPC     H14C     HL       0.250000       1.00800           0
      9027 MEMB     69       POPC     C15      CTL5    -0.350000       12.0110           0
      9028 MEMB     69       POPC     H15A     HL       0.250000       1.00800           0
      9029 MEMB     69       POPC     H15B     HL       0.250000       1.00800           0
      9030 MEMB     69       POPC     H15C     HL       0.250000       1.00800           0
      9031 MEMB     69       POPC     C11      CTL2    -0.800000E-01   12.0110           0
      9032 MEMB     69       POPC     H11A     HAL2     0.900000E-01   1.00800           0
      9033 MEMB     69       POPC     H11B     HAL2     0.900000E-01   1.00800           0
      9034 MEMB     69       POPC     P        PL        1.50000       30.9740           0
      9035 MEMB     69       POPC     O13      O2L     -0.780000       15.9994           0
      9036 MEMB     69       POPC     O14      O2L     -0.780000       15.9994           0
      9037 MEMB     69       POPC     O12      OSLP    -0.570000       15.9994           0
      9038 MEMB     69       POPC     O11      OSLP    -0.570000       15.9994           0
      9039 MEMB     69       POPC     C1       CTL2    -0.800000E-01   12.0110           0
      9040 MEMB     69       POPC     HA       HAL2     0.900000E-01   1.00800           0
      9041 MEMB     69       POPC     HB       HAL2     0.900000E-01   1.00800           0
      9042 MEMB     69       POPC     C2       CTL1     0.170000       12.0110           0
      9043 MEMB     69       POPC     HS       HAL1     0.900000E-01   1.00800           0
      9044 MEMB     69       POPC     O21      OSL     -0.490000       15.9994           0
      9045 MEMB     69       POPC     C21      CL       0.900000       12.0110           0
      9046 MEMB     69       POPC     O22      OBL     -0.630000       15.9994           0
      9047 MEMB     69       POPC     C22      CTL2    -0.220000       12.0110           0
      9048 MEMB     69       POPC     H2R      HAL2     0.900000E-01   1.00800           0
      9049 MEMB     69       POPC     H2S      HAL2     0.900000E-01   1.00800           0
      9050 MEMB     69       POPC     C3       CTL2     0.800000E-01   12.0110           0
      9051 MEMB     69       POPC     HX       HAL2     0.900000E-01   1.00800           0
      9052 MEMB     69       POPC     HY       HAL2     0.900000E-01   1.00800           0
      9053 MEMB     69       POPC     O31      OSL     -0.490000       15.9994           0
      9054 MEMB     69       POPC     C31      CL       0.900000       12.0110           0
      9055 MEMB     69       POPC     O32      OBL     -0.630000       15.9994           0
      9056 MEMB     69       POPC     C32      CTL2    -0.220000       12.0110           0
      9057 MEMB     69       POPC     H2X      HAL2     0.900000E-01   1.00800           0
      9058 MEMB     69       POPC     H2Y      HAL2     0.900000E-01   1.00800           0
      9059 MEMB     69       POPC     C23      CTL2    -0.180000       12.0110           0
      9060 MEMB     69       POPC     H3R      HAL2     0.900000E-01   1.00800           0
      9061 MEMB     69       POPC     H3S      HAL2     0.900000E-01   1.00800           0
      9062 MEMB     69       POPC     C24      CTL2    -0.180000       12.0110           0
      9063 MEMB     69       POPC     H4R      HAL2     0.900000E-01   1.00800           0
      9064 MEMB     69       POPC     H4S      HAL2     0.900000E-01   1.00800           0
      9065 MEMB     69       POPC     C25      CTL2    -0.180000       12.0110           0
      9066 MEMB     69       POPC     H5R      HAL2     0.900000E-01   1.00800           0
      9067 MEMB     69       POPC     H5S      HAL2     0.900000E-01   1.00800           0
      9068 MEMB     69       POPC     C26      CTL2    -0.180000       12.0110           0
      9069 MEMB     69       POPC     H6R      HAL2     0.900000E-01   1.00800           0
      9070 MEMB     69       POPC     H6S      HAL2     0.900000E-01   1.00800           0
      9071 MEMB     69       POPC     C27      CTL2    -0.180000       12.0110           0
      9072 MEMB     69       POPC     H7R      HAL2     0.900000E-01   1.00800           0
      9073 MEMB     69       POPC     H7S      HAL2     0.900000E-01   1.00800           0
      9074 MEMB     69       POPC     C28      CTL2    -0.180000       12.0110           0
      9075 MEMB     69       POPC     H8R      HAL2     0.900000E-01   1.00800           0
      9076 MEMB     69       POPC     H8S      HAL2     0.900000E-01   1.00800           0
      9077 MEMB     69       POPC     C29      CEL1    -0.150000       12.0110           0
      9078 MEMB     69       POPC     H91      HEL1     0.150000       1.00800           0
      9079 MEMB     69       POPC     C210     CEL1    -0.150000       12.0110           0
      9080 MEMB     69       POPC     H101     HEL1     0.150000       1.00800           0
      9081 MEMB     69       POPC     C211     CTL2    -0.180000       12.0110           0
      9082 MEMB     69       POPC     H11R     HAL2     0.900000E-01   1.00800           0
      9083 MEMB     69       POPC     H11S     HAL2     0.900000E-01   1.00800           0
      9084 MEMB     69       POPC     C212     CTL2    -0.180000       12.0110           0
      9085 MEMB     69       POPC     H12R     HAL2     0.900000E-01   1.00800           0
      9086 MEMB     69       POPC     H12S     HAL2     0.900000E-01   1.00800           0
      9087 MEMB     69       POPC     C213     CTL2    -0.180000       12.0110           0
      9088 MEMB     69       POPC     H13R     HAL2     0.900000E-01   1.00800           0
      9089 MEMB     69       POPC     H13S     HAL2     0.900000E-01   1.00800           0
      9090 MEMB     69       POPC     C214     CTL2    -0.180000       12.0110           0
      9091 MEMB     69       POPC     H14R     HAL2     0.900000E-01   1.00800           0
      9092 MEMB     69       POPC     H14S     HAL2     0.900000E-01   1.00800           0
      9093 MEMB     69       POPC     C215     CTL2    -0.180000       12.0110           0
      9094 MEMB     69       POPC     H15R     HAL2     0.900000E-01   1.00800           0
      9095 MEMB     69       POPC     H15S     HAL2     0.900000E-01   1.00800           0
      9096 MEMB     69       POPC     C216     CTL2    -0.180000       12.0110           0
      9097 MEMB     69       POPC     H16R     HAL2     0.900000E-01   1.00800           0
      9098 MEMB     69       POPC     H16S     HAL2     0.900000E-01   1.00800           0
      9099 MEMB     69       POPC     C217     CTL2    -0.180000       12.0110           0
      9100 MEMB     69       POPC     H17R     HAL2     0.900000E-01   1.00800           0
      9101 MEMB     69       POPC     H17S     HAL2     0.900000E-01   1.00800           0
      9102 MEMB     69       POPC     C218     CTL3    -0.270000       12.0110           0
      9103 MEMB     69       POPC     H18R     HAL3     0.900000E-01   1.00800           0
      9104 MEMB     69       POPC     H18S     HAL3     0.900000E-01   1.00800           0
      9105 MEMB     69       POPC     H18T     HAL3     0.900000E-01   1.00800           0
      9106 MEMB     69       POPC     C33      CTL2    -0.180000       12.0110           0
      9107 MEMB     69       POPC     H3X      HAL2     0.900000E-01   1.00800           0
      9108 MEMB     69       POPC     H3Y      HAL2     0.900000E-01   1.00800           0
      9109 MEMB     69       POPC     C34      CTL2    -0.180000       12.0110           0
      9110 MEMB     69       POPC     H4X      HAL2     0.900000E-01   1.00800           0
      9111 MEMB     69       POPC     H4Y      HAL2     0.900000E-01   1.00800           0
      9112 MEMB     69       POPC     C35      CTL2    -0.180000       12.0110           0
      9113 MEMB     69       POPC     H5X      HAL2     0.900000E-01   1.00800           0
      9114 MEMB     69       POPC     H5Y      HAL2     0.900000E-01   1.00800           0
      9115 MEMB     69       POPC     C36      CTL2    -0.180000       12.0110           0
      9116 MEMB     69       POPC     H6X      HAL2     0.900000E-01   1.00800           0
      9117 MEMB     69       POPC     H6Y      HAL2     0.900000E-01   1.00800           0
      9118 MEMB     69       POPC     C37      CTL2    -0.180000       12.0110           0
      9119 MEMB     69       POPC     H7X      HAL2     0.900000E-01   1.00800           0
      9120 MEMB     69       POPC     H7Y      HAL2     0.900000E-01   1.00800           0
      9121 MEMB     69       POPC     C38      CTL2    -0.180000       12.0110           0
      9122 MEMB     69       POPC     H8X      HAL2     0.900000E-01   1.00800           0
      9123 MEMB     69       POPC     H8Y      HAL2     0.900000E-01   1.00800           0
      9124 MEMB     69       POPC     C39      CTL2    -0.180000       12.0110           0
      9125 MEMB     69       POPC     H9X      HAL2     0.900000E-01   1.00800           0
      9126 MEMB     69       POPC     H9Y      HAL2     0.900000E-01   1.00800           0
      9127 MEMB     69       POPC     C310     CTL2    -0.180000       12.0110           0
      9128 MEMB     69       POPC     H10X     HAL2     0.900000E-01   1.00800           0
      9129 MEMB     69       POPC     H10Y     HAL2     0.900000E-01   1.00800           0
      9130 MEMB     69       POPC     C311     CTL2    -0.180000       12.0110           0
      9131 MEMB     69       POPC     H11X     HAL2     0.900000E-01   1.00800           0
      9132 MEMB     69       POPC     H11Y     HAL2     0.900000E-01   1.00800           0
      9133 MEMB     69       POPC     C312     CTL2    -0.180000       12.0110           0
      9134 MEMB     69       POPC     H12X     HAL2     0.900000E-01   1.00800           0
      9135 MEMB     69       POPC     H12Y     HAL2     0.900000E-01   1.00800           0
      9136 MEMB     69       POPC     C313     CTL2    -0.180000       12.0110           0
      9137 MEMB     69       POPC     H13X     HAL2     0.900000E-01   1.00800           0
      9138 MEMB     69       POPC     H13Y     HAL2     0.900000E-01   1.00800           0
      9139 MEMB     69       POPC     C314     CTL2    -0.180000       12.0110           0
      9140 MEMB     69       POPC     H14X     HAL2     0.900000E-01   1.00800           0
      9141 MEMB     69       POPC     H14Y     HAL2     0.900000E-01   1.00800           0
      9142 MEMB     69       POPC     C315     CTL2    -0.180000       12.0110           0
      9143 MEMB     69       POPC     H15X     HAL2     0.900000E-01   1.00800           0
      9144 MEMB     69       POPC     H15Y     HAL2     0.900000E-01   1.00800           0
      9145 MEMB     69       POPC     C316     CTL3    -0.270000       12.0110           0
      9146 MEMB     69       POPC     H16X     HAL3     0.900000E-01   1.00800           0
      9147 MEMB     69       POPC     H16Y     HAL3     0.900000E-01   1.00800           0
      9148 MEMB     69       POPC     H16Z     HAL3     0.900000E-01   1.00800           0
      9149 MEMB     70       POPC     N        NTL     -0.600000       14.0070           0
      9150 MEMB     70       POPC     C12      CTL2    -0.100000       12.0110           0
      9151 MEMB     70       POPC     H12A     HL       0.250000       1.00800           0
      9152 MEMB     70       POPC     H12B     HL       0.250000       1.00800           0
      9153 MEMB     70       POPC     C13      CTL5    -0.350000       12.0110           0
      9154 MEMB     70       POPC     H13A     HL       0.250000       1.00800           0
      9155 MEMB     70       POPC     H13B     HL       0.250000       1.00800           0
      9156 MEMB     70       POPC     H13C     HL       0.250000       1.00800           0
      9157 MEMB     70       POPC     C14      CTL5    -0.350000       12.0110           0
      9158 MEMB     70       POPC     H14A     HL       0.250000       1.00800           0
      9159 MEMB     70       POPC     H14B     HL       0.250000       1.00800           0
      9160 MEMB     70       POPC     H14C     HL       0.250000       1.00800           0
      9161 MEMB     70       POPC     C15      CTL5    -0.350000       12.0110           0
      9162 MEMB     70       POPC     H15A     HL       0.250000       1.00800           0
      9163 MEMB     70       POPC     H15B     HL       0.250000       1.00800           0
      9164 MEMB     70       POPC     H15C     HL       0.250000       1.00800           0
      9165 MEMB     70       POPC     C11      CTL2    -0.800000E-01   12.0110           0
      9166 MEMB     70       POPC     H11A     HAL2     0.900000E-01   1.00800           0
      9167 MEMB     70       POPC     H11B     HAL2     0.900000E-01   1.00800           0
      9168 MEMB     70       POPC     P        PL        1.50000       30.9740           0
      9169 MEMB     70       POPC     O13      O2L     -0.780000       15.9994           0
      9170 MEMB     70       POPC     O14      O2L     -0.780000       15.9994           0
      9171 MEMB     70       POPC     O12      OSLP    -0.570000       15.9994           0
      9172 MEMB     70       POPC     O11      OSLP    -0.570000       15.9994           0
      9173 MEMB     70       POPC     C1       CTL2    -0.800000E-01   12.0110           0
      9174 MEMB     70       POPC     HA       HAL2     0.900000E-01   1.00800           0
      9175 MEMB     70       POPC     HB       HAL2     0.900000E-01   1.00800           0
      9176 MEMB     70       POPC     C2       CTL1     0.170000       12.0110           0
      9177 MEMB     70       POPC     HS       HAL1     0.900000E-01   1.00800           0
      9178 MEMB     70       POPC     O21      OSL     -0.490000       15.9994           0
      9179 MEMB     70       POPC     C21      CL       0.900000       12.0110           0
      9180 MEMB     70       POPC     O22      OBL     -0.630000       15.9994           0
      9181 MEMB     70       POPC     C22      CTL2    -0.220000       12.0110           0
      9182 MEMB     70       POPC     H2R      HAL2     0.900000E-01   1.00800           0
      9183 MEMB     70       POPC     H2S      HAL2     0.900000E-01   1.00800           0
      9184 MEMB     70       POPC     C3       CTL2     0.800000E-01   12.0110           0
      9185 MEMB     70       POPC     HX       HAL2     0.900000E-01   1.00800           0
      9186 MEMB     70       POPC     HY       HAL2     0.900000E-01   1.00800           0
      9187 MEMB     70       POPC     O31      OSL     -0.490000       15.9994           0
      9188 MEMB     70       POPC     C31      CL       0.900000       12.0110           0
      9189 MEMB     70       POPC     O32      OBL     -0.630000       15.9994           0
      9190 MEMB     70       POPC     C32      CTL2    -0.220000       12.0110           0
      9191 MEMB     70       POPC     H2X      HAL2     0.900000E-01   1.00800           0
      9192 MEMB     70       POPC     H2Y      HAL2     0.900000E-01   1.00800           0
      9193 MEMB     70       POPC     C23      CTL2    -0.180000       12.0110           0
      9194 MEMB     70       POPC     H3R      HAL2     0.900000E-01   1.00800           0
      9195 MEMB     70       POPC     H3S      HAL2     0.900000E-01   1.00800           0
      9196 MEMB     70       POPC     C24      CTL2    -0.180000       12.0110           0
      9197 MEMB     70       POPC     H4R      HAL2     0.900000E-01   1.00800           0
      9198 MEMB     70       POPC     H4S      HAL2     0.900000E-01   1.00800           0
      9199 MEMB     70       POPC     C25      CTL2    -0.180000       12.0110           0
      9200 MEMB     70       POPC     H5R      HAL2     0.900000E-01   1.00800           0
      9201 MEMB     70       POPC     H5S      HAL2     0.900000E-01   1.00800           0
      9202 MEMB     70       POPC     C26      CTL2    -0.180000       12.0110           0
      9203 MEMB     70       POPC     H6R      HAL2     0.900000E-01   1.00800           0
      9204 MEMB     70       POPC     H6S      HAL2     0.900000E-01   1.00800           0
      9205 MEMB     70       POPC     C27      CTL2    -0.180000       12.0110           0
      9206 MEMB     70       POPC     H7R      HAL2     0.900000E-01   1.00800           0
      9207 MEMB     70       POPC     H7S      HAL2     0.900000E-01   1.00800           0
      9208 MEMB     70       POPC     C28      CTL2    -0.180000       12.0110           0
      9209 MEMB     70       POPC     H8R      HAL2     0.900000E-01   1.00800           0
      9210 MEMB     70       POPC     H8S      HAL2     0.900000E-01   1.00800           0
      9211 MEMB     70       POPC     C29      CEL1    -0.150000       12.0110           0
      9212 MEMB     70       POPC     H91      HEL1     0.150000       1.00800           0
      9213 MEMB     70       POPC     C210     CEL1    -0.150000       12.0110           0
      9214 MEMB     70       POPC     H101     HEL1     0.150000       1.00800           0
      9215 MEMB     70       POPC     C211     CTL2    -0.180000       12.0110           0
      9216 MEMB     70       POPC     H11R     HAL2     0.900000E-01   1.00800           0
      9217 MEMB     70       POPC     H11S     HAL2     0.900000E-01   1.00800           0
      9218 MEMB     70       POPC     C212     CTL2    -0.180000       12.0110           0
      9219 MEMB     70       POPC     H12R     HAL2     0.900000E-01   1.00800           0
      9220 MEMB     70       POPC     H12S     HAL2     0.900000E-01   1.00800           0
      9221 MEMB     70       POPC     C213     CTL2    -0.180000       12.0110           0
      9222 MEMB     70       POPC     H13R     HAL2     0.900000E-01   1.00800           0
      9223 MEMB     70       POPC     H13S     HAL2     0.900000E-01   1.00800           0
      9224 MEMB     70       POPC     C214     CTL2    -0.180000       12.0110           0
      9225 MEMB     70       POPC     H14R     HAL2     0.900000E-01   1.00800           0
      9226 MEMB     70       POPC     H14S     HAL2     0.900000E-01   1.00800           0
      9227 MEMB     70       POPC     C215     CTL2    -0.180000       12.0110           0
      9228 MEMB     70       POPC     H15R     HAL2     0.900000E-01   1.00800           0
      9229 MEMB     70       POPC     H15S     HAL2     0.900000E-01   1.00800           0
      9230 MEMB     70       POPC     C216     CTL2    -0.180000       12.0110           0
      9231 MEMB     70       POPC     H16R     HAL2     0.900000E-01   1.00800           0
      9232 MEMB     70       POPC     H16S     HAL2     0.900000E-01   1.00800           0
      9233 MEMB     70       POPC     C217     CTL2    -0.180000       12.0110           0
      9234 MEMB     70       POPC     H17R     HAL2     0.900000E-01   1.00800           0
      9235 MEMB     70       POPC     H17S     HAL2     0.900000E-01   1.00800           0
      9236 MEMB     70       POPC     C218     CTL3    -0.270000       12.0110           0
      9237 MEMB     70       POPC     H18R     HAL3     0.900000E-01   1.00800           0
      9238 MEMB     70       POPC     H18S     HAL3     0.900000E-01   1.00800           0
      9239 MEMB     70       POPC     H18T     HAL3     0.900000E-01   1.00800           0
      9240 MEMB     70       POPC     C33      CTL2    -0.180000       12.0110           0
      9241 MEMB     70       POPC     H3X      HAL2     0.900000E-01   1.00800           0
      9242 MEMB     70       POPC     H3Y      HAL2     0.900000E-01   1.00800           0
      9243 MEMB     70       POPC     C34      CTL2    -0.180000       12.0110           0
      9244 MEMB     70       POPC     H4X      HAL2     0.900000E-01   1.00800           0
      9245 MEMB     70       POPC     H4Y      HAL2     0.900000E-01   1.00800           0
      9246 MEMB     70       POPC     C35      CTL2    -0.180000       12.0110           0
      9247 MEMB     70       POPC     H5X      HAL2     0.900000E-01   1.00800           0
      9248 MEMB     70       POPC     H5Y      HAL2     0.900000E-01   1.00800           0
      9249 MEMB     70       POPC     C36      CTL2    -0.180000       12.0110           0
      9250 MEMB     70       POPC     H6X      HAL2     0.900000E-01   1.00800           0
      9251 MEMB     70       POPC     H6Y      HAL2     0.900000E-01   1.00800           0
      9252 MEMB     70       POPC     C37      CTL2    -0.180000       12.0110           0
      9253 MEMB     70       POPC     H7X      HAL2     0.900000E-01   1.00800           0
      9254 MEMB     70       POPC     H7Y      HAL2     0.900000E-01   1.00800           0
      9255 MEMB     70       POPC     C38      CTL2    -0.180000       12.0110           0
      9256 MEMB     70       POPC     H8X      HAL2     0.900000E-01   1.00800           0
      9257 MEMB     70       POPC     H8Y      HAL2     0.900000E-01   1.00800           0
      9258 MEMB     70       POPC     C39      CTL2    -0.180000       12.0110           0
      9259 MEMB     70       POPC     H9X      HAL2     0.900000E-01   1.00800           0
      9260 MEMB     70       POPC     H9Y      HAL2     0.900000E-01   1.00800           0
      9261 MEMB     70       POPC     C310     CTL2    -0.180000       12.0110           0
      9262 MEMB     70       POPC     H10X     HAL2     0.900000E-01   1.00800           0
      9263 MEMB     70       POPC     H10Y     HAL2     0.900000E-01   1.00800           0
      9264 MEMB     70       POPC     C311     CTL2    -0.180000       12.0110           0
      9265 MEMB     70       POPC     H11X     HAL2     0.900000E-01   1.00800           0
      9266 MEMB     70       POPC     H11Y     HAL2     0.900000E-01   1.00800           0
      9267 MEMB     70       POPC     C312     CTL2    -0.180000       12.0110           0
      9268 MEMB     70       POPC     H12X     HAL2     0.900000E-01   1.00800           0
      9269 MEMB     70       POPC     H12Y     HAL2     0.900000E-01   1.00800           0
      9270 MEMB     70       POPC     C313     CTL2    -0.180000       12.0110           0
      9271 MEMB     70       POPC     H13X     HAL2     0.900000E-01   1.00800           0
      9272 MEMB     70       POPC     H13Y     HAL2     0.900000E-01   1.00800           0
      9273 MEMB     70       POPC     C314     CTL2    -0.180000       12.0110           0
      9274 MEMB     70       POPC     H14X     HAL2     0.900000E-01   1.00800           0
      9275 MEMB     70       POPC     H14Y     HAL2     0.900000E-01   1.00800           0
      9276 MEMB     70       POPC     C315     CTL2    -0.180000       12.0110           0
      9277 MEMB     70       POPC     H15X     HAL2     0.900000E-01   1.00800           0
      9278 MEMB     70       POPC     H15Y     HAL2     0.900000E-01   1.00800           0
      9279 MEMB     70       POPC     C316     CTL3    -0.270000       12.0110           0
      9280 MEMB     70       POPC     H16X     HAL3     0.900000E-01   1.00800           0
      9281 MEMB     70       POPC     H16Y     HAL3     0.900000E-01   1.00800           0
      9282 MEMB     70       POPC     H16Z     HAL3     0.900000E-01   1.00800           0
      9283 MEMB     71       POPS     N        NH3L    -0.300000       14.0070           0
      9284 MEMB     71       POPS     HN1      HCL      0.330000       1.00800           0
      9285 MEMB     71       POPS     HN2      HCL      0.330000       1.00800           0
      9286 MEMB     71       POPS     HN3      HCL      0.330000       1.00800           0
      9287 MEMB     71       POPS     C12      CTL1     0.210000       12.0110           0
      9288 MEMB     71       POPS     H12A     HBL      0.100000       1.00800           0
      9289 MEMB     71       POPS     C13      CCL      0.340000       12.0110           0
      9290 MEMB     71       POPS     O13A     OCL     -0.670000       15.9994           0
      9291 MEMB     71       POPS     O13B     OCL     -0.670000       15.9994           0
      9292 MEMB     71       POPS     C11      CTL2    -0.800000E-01   12.0110           0
      9293 MEMB     71       POPS     H11A     HAL2     0.900000E-01   1.00800           0
      9294 MEMB     71       POPS     H11B     HAL2     0.900000E-01   1.00800           0
      9295 MEMB     71       POPS     P        PL        1.50000       30.9740           0
      9296 MEMB     71       POPS     O13      O2L     -0.780000       15.9994           0
      9297 MEMB     71       POPS     O14      O2L     -0.780000       15.9994           0
      9298 MEMB     71       POPS     O12      OSLP    -0.570000       15.9994           0
      9299 MEMB     71       POPS     O11      OSLP    -0.570000       15.9994           0
      9300 MEMB     71       POPS     C1       CTL2    -0.800000E-01   12.0110           0
      9301 MEMB     71       POPS     HA       HAL2     0.900000E-01   1.00800           0
      9302 MEMB     71       POPS     HB       HAL2     0.900000E-01   1.00800           0
      9303 MEMB     71       POPS     C2       CTL1     0.170000       12.0110           0
      9304 MEMB     71       POPS     HS       HAL1     0.900000E-01   1.00800           0
      9305 MEMB     71       POPS     O21      OSL     -0.490000       15.9994           0
      9306 MEMB     71       POPS     C21      CL       0.900000       12.0110           0
      9307 MEMB     71       POPS     O22      OBL     -0.630000       15.9994           0
      9308 MEMB     71       POPS     C22      CTL2    -0.220000       12.0110           0
      9309 MEMB     71       POPS     H2R      HAL2     0.900000E-01   1.00800           0
      9310 MEMB     71       POPS     H2S      HAL2     0.900000E-01   1.00800           0
      9311 MEMB     71       POPS     C3       CTL2     0.800000E-01   12.0110           0
      9312 MEMB     71       POPS     HX       HAL2     0.900000E-01   1.00800           0
      9313 MEMB     71       POPS     HY       HAL2     0.900000E-01   1.00800           0
      9314 MEMB     71       POPS     O31      OSL     -0.490000       15.9994           0
      9315 MEMB     71       POPS     C31      CL       0.900000       12.0110           0
      9316 MEMB     71       POPS     O32      OBL     -0.630000       15.9994           0
      9317 MEMB     71       POPS     C32      CTL2    -0.220000       12.0110           0
      9318 MEMB     71       POPS     H2X      HAL2     0.900000E-01   1.00800           0
      9319 MEMB     71       POPS     H2Y      HAL2     0.900000E-01   1.00800           0
      9320 MEMB     71       POPS     C23      CTL2    -0.180000       12.0110           0
      9321 MEMB     71       POPS     H3R      HAL2     0.900000E-01   1.00800           0
      9322 MEMB     71       POPS     H3S      HAL2     0.900000E-01   1.00800           0
      9323 MEMB     71       POPS     C24      CTL2    -0.180000       12.0110           0
      9324 MEMB     71       POPS     H4R      HAL2     0.900000E-01   1.00800           0
      9325 MEMB     71       POPS     H4S      HAL2     0.900000E-01   1.00800           0
      9326 MEMB     71       POPS     C25      CTL2    -0.180000       12.0110           0
      9327 MEMB     71       POPS     H5R      HAL2     0.900000E-01   1.00800           0
      9328 MEMB     71       POPS     H5S      HAL2     0.900000E-01   1.00800           0
      9329 MEMB     71       POPS     C26      CTL2    -0.180000       12.0110           0
      9330 MEMB     71       POPS     H6R      HAL2     0.900000E-01   1.00800           0
      9331 MEMB     71       POPS     H6S      HAL2     0.900000E-01   1.00800           0
      9332 MEMB     71       POPS     C27      CTL2    -0.180000       12.0110           0
      9333 MEMB     71       POPS     H7R      HAL2     0.900000E-01   1.00800           0
      9334 MEMB     71       POPS     H7S      HAL2     0.900000E-01   1.00800           0
      9335 MEMB     71       POPS     C28      CTL2    -0.180000       12.0110           0
      9336 MEMB     71       POPS     H8R      HAL2     0.900000E-01   1.00800           0
      9337 MEMB     71       POPS     H8S      HAL2     0.900000E-01   1.00800           0
      9338 MEMB     71       POPS     C29      CEL1    -0.150000       12.0110           0
      9339 MEMB     71       POPS     H91      HEL1     0.150000       1.00800           0
      9340 MEMB     71       POPS     C210     CEL1    -0.150000       12.0110           0
      9341 MEMB     71       POPS     H101     HEL1     0.150000       1.00800           0
      9342 MEMB     71       POPS     C211     CTL2    -0.180000       12.0110           0
      9343 MEMB     71       POPS     H11R     HAL2     0.900000E-01   1.00800           0
      9344 MEMB     71       POPS     H11S     HAL2     0.900000E-01   1.00800           0
      9345 MEMB     71       POPS     C212     CTL2    -0.180000       12.0110           0
      9346 MEMB     71       POPS     H12R     HAL2     0.900000E-01   1.00800           0
      9347 MEMB     71       POPS     H12S     HAL2     0.900000E-01   1.00800           0
      9348 MEMB     71       POPS     C213     CTL2    -0.180000       12.0110           0
      9349 MEMB     71       POPS     H13R     HAL2     0.900000E-01   1.00800           0
      9350 MEMB     71       POPS     H13S     HAL2     0.900000E-01   1.00800           0
      9351 MEMB     71       POPS     C214     CTL2    -0.180000       12.0110           0
      9352 MEMB     71       POPS     H14R     HAL2     0.900000E-01   1.00800           0
      9353 MEMB     71       POPS     H14S     HAL2     0.900000E-01   1.00800           0
      9354 MEMB     71       POPS     C215     CTL2    -0.180000       12.0110           0
      9355 MEMB     71       POPS     H15R     HAL2     0.900000E-01   1.00800           0
      9356 MEMB     71       POPS     H15S     HAL2     0.900000E-01   1.00800           0
      9357 MEMB     71       POPS     C216     CTL2    -0.180000       12.0110           0
      9358 MEMB     71       POPS     H16R     HAL2     0.900000E-01   1.00800           0
      9359 MEMB     71       POPS     H16S     HAL2     0.900000E-01   1.00800           0
      9360 MEMB     71       POPS     C217     CTL2    -0.180000       12.0110           0
      9361 MEMB     71       POPS     H17R     HAL2     0.900000E-01   1.00800           0
      9362 MEMB     71       POPS     H17S     HAL2     0.900000E-01   1.00800           0
      9363 MEMB     71       POPS     C218     CTL3    -0.270000       12.0110           0
      9364 MEMB     71       POPS     H18R     HAL3     0.900000E-01   1.00800           0
      9365 MEMB     71       POPS     H18S     HAL3     0.900000E-01   1.00800           0
      9366 MEMB     71       POPS     H18T     HAL3     0.900000E-01   1.00800           0
      9367 MEMB     71       POPS     C33      CTL2    -0.180000       12.0110           0
      9368 MEMB     71       POPS     H3X      HAL2     0.900000E-01   1.00800           0
      9369 MEMB     71       POPS     H3Y      HAL2     0.900000E-01   1.00800           0
      9370 MEMB     71       POPS     C34      CTL2    -0.180000       12.0110           0
      9371 MEMB     71       POPS     H4X      HAL2     0.900000E-01   1.00800           0
      9372 MEMB     71       POPS     H4Y      HAL2     0.900000E-01   1.00800           0
      9373 MEMB     71       POPS     C35      CTL2    -0.180000       12.0110           0
      9374 MEMB     71       POPS     H5X      HAL2     0.900000E-01   1.00800           0
      9375 MEMB     71       POPS     H5Y      HAL2     0.900000E-01   1.00800           0
      9376 MEMB     71       POPS     C36      CTL2    -0.180000       12.0110           0
      9377 MEMB     71       POPS     H6X      HAL2     0.900000E-01   1.00800           0
      9378 MEMB     71       POPS     H6Y      HAL2     0.900000E-01   1.00800           0
      9379 MEMB     71       POPS     C37      CTL2    -0.180000       12.0110           0
      9380 MEMB     71       POPS     H7X      HAL2     0.900000E-01   1.00800           0
      9381 MEMB     71       POPS     H7Y      HAL2     0.900000E-01   1.00800           0
      9382 MEMB     71       POPS     C38      CTL2    -0.180000       12.0110           0
      9383 MEMB     71       POPS     H8X      HAL2     0.900000E-01   1.00800           0
      9384 MEMB     71       POPS     H8Y      HAL2     0.900000E-01   1.00800           0
      9385 MEMB     71       POPS     C39      CTL2    -0.180000       12.0110           0
      9386 MEMB     71       POPS     H9X      HAL2     0.900000E-01   1.00800           0
      9387 MEMB     71       POPS     H9Y      HAL2     0.900000E-01   1.00800           0
      9388 MEMB     71       POPS     C310     CTL2    -0.180000       12.0110           0
      9389 MEMB     71       POPS     H10X     HAL2     0.900000E-01   1.00800           0
      9390 MEMB     71       POPS     H10Y     HAL2     0.900000E-01   1.00800           0
      9391 MEMB     71       POPS     C311     CTL2    -0.180000       12.0110           0
      9392 MEMB     71       POPS     H11X     HAL2     0.900000E-01   1.00800           0
      9393 MEMB     71       POPS     H11Y     HAL2     0.900000E-01   1.00800           0
      9394 MEMB     71       POPS     C312     CTL2    -0.180000       12.0110           0
      9395 MEMB     71       POPS     H12X     HAL2     0.900000E-01   1.00800           0
      9396 MEMB     71       POPS     H12Y     HAL2     0.900000E-01   1.00800           0
      9397 MEMB     71       POPS     C313     CTL2    -0.180000       12.0110           0
      9398 MEMB     71       POPS     H13X     HAL2     0.900000E-01   1.00800           0
      9399 MEMB     71       POPS     H13Y     HAL2     0.900000E-01   1.00800           0
      9400 MEMB     71       POPS     C314     CTL2    -0.180000       12.0110           0
      9401 MEMB     71       POPS     H14X     HAL2     0.900000E-01   1.00800           0
      9402 MEMB     71       POPS     H14Y     HAL2     0.900000E-01   1.00800           0
      9403 MEMB     71       POPS     C315     CTL2    -0.180000       12.0110           0
      9404 MEMB     71       POPS     H15X     HAL2     0.900000E-01   1.00800           0
      9405 MEMB     71       POPS     H15Y     HAL2     0.900000E-01   1.00800           0
      9406 MEMB     71       POPS     C316     CTL3    -0.270000       12.0110           0
      9407 MEMB     71       POPS     H16X     HAL3     0.900000E-01   1.00800           0
      9408 MEMB     71       POPS     H16Y     HAL3     0.900000E-01   1.00800           0
      9409 MEMB     71       POPS     H16Z     HAL3     0.900000E-01   1.00800           0
      9410 MEMB     72       POPC     N        NTL     -0.600000       14.0070           0
      9411 MEMB     72       POPC     C12      CTL2    -0.100000       12.0110           0
      9412 MEMB     72       POPC     H12A     HL       0.250000       1.00800           0
      9413 MEMB     72       POPC     H12B     HL       0.250000       1.00800           0
      9414 MEMB     72       POPC     C13      CTL5    -0.350000       12.0110           0
      9415 MEMB     72       POPC     H13A     HL       0.250000       1.00800           0
      9416 MEMB     72       POPC     H13B     HL       0.250000       1.00800           0
      9417 MEMB     72       POPC     H13C     HL       0.250000       1.00800           0
      9418 MEMB     72       POPC     C14      CTL5    -0.350000       12.0110           0
      9419 MEMB     72       POPC     H14A     HL       0.250000       1.00800           0
      9420 MEMB     72       POPC     H14B     HL       0.250000       1.00800           0
      9421 MEMB     72       POPC     H14C     HL       0.250000       1.00800           0
      9422 MEMB     72       POPC     C15      CTL5    -0.350000       12.0110           0
      9423 MEMB     72       POPC     H15A     HL       0.250000       1.00800           0
      9424 MEMB     72       POPC     H15B     HL       0.250000       1.00800           0
      9425 MEMB     72       POPC     H15C     HL       0.250000       1.00800           0
      9426 MEMB     72       POPC     C11      CTL2    -0.800000E-01   12.0110           0
      9427 MEMB     72       POPC     H11A     HAL2     0.900000E-01   1.00800           0
      9428 MEMB     72       POPC     H11B     HAL2     0.900000E-01   1.00800           0
      9429 MEMB     72       POPC     P        PL        1.50000       30.9740           0
      9430 MEMB     72       POPC     O13      O2L     -0.780000       15.9994           0
      9431 MEMB     72       POPC     O14      O2L     -0.780000       15.9994           0
      9432 MEMB     72       POPC     O12      OSLP    -0.570000       15.9994           0
      9433 MEMB     72       POPC     O11      OSLP    -0.570000       15.9994           0
      9434 MEMB     72       POPC     C1       CTL2    -0.800000E-01   12.0110           0
      9435 MEMB     72       POPC     HA       HAL2     0.900000E-01   1.00800           0
      9436 MEMB     72       POPC     HB       HAL2     0.900000E-01   1.00800           0
      9437 MEMB     72       POPC     C2       CTL1     0.170000       12.0110           0
      9438 MEMB     72       POPC     HS       HAL1     0.900000E-01   1.00800           0
      9439 MEMB     72       POPC     O21      OSL     -0.490000       15.9994           0
      9440 MEMB     72       POPC     C21      CL       0.900000       12.0110           0
      9441 MEMB     72       POPC     O22      OBL     -0.630000       15.9994           0
      9442 MEMB     72       POPC     C22      CTL2    -0.220000       12.0110           0
      9443 MEMB     72       POPC     H2R      HAL2     0.900000E-01   1.00800           0
      9444 MEMB     72       POPC     H2S      HAL2     0.900000E-01   1.00800           0
      9445 MEMB     72       POPC     C3       CTL2     0.800000E-01   12.0110           0
      9446 MEMB     72       POPC     HX       HAL2     0.900000E-01   1.00800           0
      9447 MEMB     72       POPC     HY       HAL2     0.900000E-01   1.00800           0
      9448 MEMB     72       POPC     O31      OSL     -0.490000       15.9994           0
      9449 MEMB     72       POPC     C31      CL       0.900000       12.0110           0
      9450 MEMB     72       POPC     O32      OBL     -0.630000       15.9994           0
      9451 MEMB     72       POPC     C32      CTL2    -0.220000       12.0110           0
      9452 MEMB     72       POPC     H2X      HAL2     0.900000E-01   1.00800           0
      9453 MEMB     72       POPC     H2Y      HAL2     0.900000E-01   1.00800           0
      9454 MEMB     72       POPC     C23      CTL2    -0.180000       12.0110           0
      9455 MEMB     72       POPC     H3R      HAL2     0.900000E-01   1.00800           0
      9456 MEMB     72       POPC     H3S      HAL2     0.900000E-01   1.00800           0
      9457 MEMB     72       POPC     C24      CTL2    -0.180000       12.0110           0
      9458 MEMB     72       POPC     H4R      HAL2     0.900000E-01   1.00800           0
      9459 MEMB     72       POPC     H4S      HAL2     0.900000E-01   1.00800           0
      9460 MEMB     72       POPC     C25      CTL2    -0.180000       12.0110           0
      9461 MEMB     72       POPC     H5R      HAL2     0.900000E-01   1.00800           0
      9462 MEMB     72       POPC     H5S      HAL2     0.900000E-01   1.00800           0
      9463 MEMB     72       POPC     C26      CTL2    -0.180000       12.0110           0
      9464 MEMB     72       POPC     H6R      HAL2     0.900000E-01   1.00800           0
      9465 MEMB     72       POPC     H6S      HAL2     0.900000E-01   1.00800           0
      9466 MEMB     72       POPC     C27      CTL2    -0.180000       12.0110           0
      9467 MEMB     72       POPC     H7R      HAL2     0.900000E-01   1.00800           0
      9468 MEMB     72       POPC     H7S      HAL2     0.900000E-01   1.00800           0
      9469 MEMB     72       POPC     C28      CTL2    -0.180000       12.0110           0
      9470 MEMB     72       POPC     H8R      HAL2     0.900000E-01   1.00800           0
      9471 MEMB     72       POPC     H8S      HAL2     0.900000E-01   1.00800           0
      9472 MEMB     72       POPC     C29      CEL1    -0.150000       12.0110           0
      9473 MEMB     72       POPC     H91      HEL1     0.150000       1.00800           0
      9474 MEMB     72       POPC     C210     CEL1    -0.150000       12.0110           0
      9475 MEMB     72       POPC     H101     HEL1     0.150000       1.00800           0
      9476 MEMB     72       POPC     C211     CTL2    -0.180000       12.0110           0
      9477 MEMB     72       POPC     H11R     HAL2     0.900000E-01   1.00800           0
      9478 MEMB     72       POPC     H11S     HAL2     0.900000E-01   1.00800           0
      9479 MEMB     72       POPC     C212     CTL2    -0.180000       12.0110           0
      9480 MEMB     72       POPC     H12R     HAL2     0.900000E-01   1.00800           0
      9481 MEMB     72       POPC     H12S     HAL2     0.900000E-01   1.00800           0
      9482 MEMB     72       POPC     C213     CTL2    -0.180000       12.0110           0
      9483 MEMB     72       POPC     H13R     HAL2     0.900000E-01   1.00800           0
      9484 MEMB     72       POPC     H13S     HAL2     0.900000E-01   1.00800           0
      9485 MEMB     72       POPC     C214     CTL2    -0.180000       12.0110           0
      9486 MEMB     72       POPC     H14R     HAL2     0.900000E-01   1.00800           0
      9487 MEMB     72       POPC     H14S     HAL2     0.900000E-01   1.00800           0
      9488 MEMB     72       POPC     C215     CTL2    -0.180000       12.0110           0
      9489 MEMB     72       POPC     H15R     HAL2     0.900000E-01   1.00800           0
      9490 MEMB     72       POPC     H15S     HAL2     0.900000E-01   1.00800           0
      9491 MEMB     72       POPC     C216     CTL2    -0.180000       12.0110           0
      9492 MEMB     72       POPC     H16R     HAL2     0.900000E-01   1.00800           0
      9493 MEMB     72       POPC     H16S     HAL2     0.900000E-01   1.00800           0
      9494 MEMB     72       POPC     C217     CTL2    -0.180000       12.0110           0
      9495 MEMB     72       POPC     H17R     HAL2     0.900000E-01   1.00800           0
      9496 MEMB     72       POPC     H17S     HAL2     0.900000E-01   1.00800           0
      9497 MEMB     72       POPC     C218     CTL3    -0.270000       12.0110           0
      9498 MEMB     72       POPC     H18R     HAL3     0.900000E-01   1.00800           0
      9499 MEMB     72       POPC     H18S     HAL3     0.900000E-01   1.00800           0
      9500 MEMB     72       POPC     H18T     HAL3     0.900000E-01   1.00800           0
      9501 MEMB     72       POPC     C33      CTL2    -0.180000       12.0110           0
      9502 MEMB     72       POPC     H3X      HAL2     0.900000E-01   1.00800           0
      9503 MEMB     72       POPC     H3Y      HAL2     0.900000E-01   1.00800           0
      9504 MEMB     72       POPC     C34      CTL2    -0.180000       12.0110           0
      9505 MEMB     72       POPC     H4X      HAL2     0.900000E-01   1.00800           0
      9506 MEMB     72       POPC     H4Y      HAL2     0.900000E-01   1.00800           0
      9507 MEMB     72       POPC     C35      CTL2    -0.180000       12.0110           0
      9508 MEMB     72       POPC     H5X      HAL2     0.900000E-01   1.00800           0
      9509 MEMB     72       POPC     H5Y      HAL2     0.900000E-01   1.00800           0
      9510 MEMB     72       POPC     C36      CTL2    -0.180000       12.0110           0
      9511 MEMB     72       POPC     H6X      HAL2     0.900000E-01   1.00800           0
      9512 MEMB     72       POPC     H6Y      HAL2     0.900000E-01   1.00800           0
      9513 MEMB     72       POPC     C37      CTL2    -0.180000       12.0110           0
      9514 MEMB     72       POPC     H7X      HAL2     0.900000E-01   1.00800           0
      9515 MEMB     72       POPC     H7Y      HAL2     0.900000E-01   1.00800           0
      9516 MEMB     72       POPC     C38      CTL2    -0.180000       12.0110           0
      9517 MEMB     72       POPC     H8X      HAL2     0.900000E-01   1.00800           0
      9518 MEMB     72       POPC     H8Y      HAL2     0.900000E-01   1.00800           0
      9519 MEMB     72       POPC     C39      CTL2    -0.180000       12.0110           0
      9520 MEMB     72       POPC     H9X      HAL2     0.900000E-01   1.00800           0
      9521 MEMB     72       POPC     H9Y      HAL2     0.900000E-01   1.00800           0
      9522 MEMB     72       POPC     C310     CTL2    -0.180000       12.0110           0
      9523 MEMB     72       POPC     H10X     HAL2     0.900000E-01   1.00800           0
      9524 MEMB     72       POPC     H10Y     HAL2     0.900000E-01   1.00800           0
      9525 MEMB     72       POPC     C311     CTL2    -0.180000       12.0110           0
      9526 MEMB     72       POPC     H11X     HAL2     0.900000E-01   1.00800           0
      9527 MEMB     72       POPC     H11Y     HAL2     0.900000E-01   1.00800           0
      9528 MEMB     72       POPC     C312     CTL2    -0.180000       12.0110           0
      9529 MEMB     72       POPC     H12X     HAL2     0.900000E-01   1.00800           0
      9530 MEMB     72       POPC     H12Y     HAL2     0.900000E-01   1.00800           0
      9531 MEMB     72       POPC     C313     CTL2    -0.180000       12.0110           0
      9532 MEMB     72       POPC     H13X     HAL2     0.900000E-01   1.00800           0
      9533 MEMB     72       POPC     H13Y     HAL2     0.900000E-01   1.00800           0
      9534 MEMB     72       POPC     C314     CTL2    -0.180000       12.0110           0
      9535 MEMB     72       POPC     H14X     HAL2     0.900000E-01   1.00800           0
      9536 MEMB     72       POPC     H14Y     HAL2     0.900000E-01   1.00800           0
      9537 MEMB     72       POPC     C315     CTL2    -0.180000       12.0110           0
      9538 MEMB     72       POPC     H15X     HAL2     0.900000E-01   1.00800           0
      9539 MEMB     72       POPC     H15Y     HAL2     0.900000E-01   1.00800           0
      9540 MEMB     72       POPC     C316     CTL3    -0.270000       12.0110           0
      9541 MEMB     72       POPC     H16X     HAL3     0.900000E-01   1.00800           0
      9542 MEMB     72       POPC     H16Y     HAL3     0.900000E-01   1.00800           0
      9543 MEMB     72       POPC     H16Z     HAL3     0.900000E-01   1.00800           0
      9544 MEMB     73       POPC     N        NTL     -0.600000       14.0070           0
      9545 MEMB     73       POPC     C12      CTL2    -0.100000       12.0110           0
      9546 MEMB     73       POPC     H12A     HL       0.250000       1.00800           0
      9547 MEMB     73       POPC     H12B     HL       0.250000       1.00800           0
      9548 MEMB     73       POPC     C13      CTL5    -0.350000       12.0110           0
      9549 MEMB     73       POPC     H13A     HL       0.250000       1.00800           0
      9550 MEMB     73       POPC     H13B     HL       0.250000       1.00800           0
      9551 MEMB     73       POPC     H13C     HL       0.250000       1.00800           0
      9552 MEMB     73       POPC     C14      CTL5    -0.350000       12.0110           0
      9553 MEMB     73       POPC     H14A     HL       0.250000       1.00800           0
      9554 MEMB     73       POPC     H14B     HL       0.250000       1.00800           0
      9555 MEMB     73       POPC     H14C     HL       0.250000       1.00800           0
      9556 MEMB     73       POPC     C15      CTL5    -0.350000       12.0110           0
      9557 MEMB     73       POPC     H15A     HL       0.250000       1.00800           0
      9558 MEMB     73       POPC     H15B     HL       0.250000       1.00800           0
      9559 MEMB     73       POPC     H15C     HL       0.250000       1.00800           0
      9560 MEMB     73       POPC     C11      CTL2    -0.800000E-01   12.0110           0
      9561 MEMB     73       POPC     H11A     HAL2     0.900000E-01   1.00800           0
      9562 MEMB     73       POPC     H11B     HAL2     0.900000E-01   1.00800           0
      9563 MEMB     73       POPC     P        PL        1.50000       30.9740           0
      9564 MEMB     73       POPC     O13      O2L     -0.780000       15.9994           0
      9565 MEMB     73       POPC     O14      O2L     -0.780000       15.9994           0
      9566 MEMB     73       POPC     O12      OSLP    -0.570000       15.9994           0
      9567 MEMB     73       POPC     O11      OSLP    -0.570000       15.9994           0
      9568 MEMB     73       POPC     C1       CTL2    -0.800000E-01   12.0110           0
      9569 MEMB     73       POPC     HA       HAL2     0.900000E-01   1.00800           0
      9570 MEMB     73       POPC     HB       HAL2     0.900000E-01   1.00800           0
      9571 MEMB     73       POPC     C2       CTL1     0.170000       12.0110           0
      9572 MEMB     73       POPC     HS       HAL1     0.900000E-01   1.00800           0
      9573 MEMB     73       POPC     O21      OSL     -0.490000       15.9994           0
      9574 MEMB     73       POPC     C21      CL       0.900000       12.0110           0
      9575 MEMB     73       POPC     O22      OBL     -0.630000       15.9994           0
      9576 MEMB     73       POPC     C22      CTL2    -0.220000       12.0110           0
      9577 MEMB     73       POPC     H2R      HAL2     0.900000E-01   1.00800           0
      9578 MEMB     73       POPC     H2S      HAL2     0.900000E-01   1.00800           0
      9579 MEMB     73       POPC     C3       CTL2     0.800000E-01   12.0110           0
      9580 MEMB     73       POPC     HX       HAL2     0.900000E-01   1.00800           0
      9581 MEMB     73       POPC     HY       HAL2     0.900000E-01   1.00800           0
      9582 MEMB     73       POPC     O31      OSL     -0.490000       15.9994           0
      9583 MEMB     73       POPC     C31      CL       0.900000       12.0110           0
      9584 MEMB     73       POPC     O32      OBL     -0.630000       15.9994           0
      9585 MEMB     73       POPC     C32      CTL2    -0.220000       12.0110           0
      9586 MEMB     73       POPC     H2X      HAL2     0.900000E-01   1.00800           0
      9587 MEMB     73       POPC     H2Y      HAL2     0.900000E-01   1.00800           0
      9588 MEMB     73       POPC     C23      CTL2    -0.180000       12.0110           0
      9589 MEMB     73       POPC     H3R      HAL2     0.900000E-01   1.00800           0
      9590 MEMB     73       POPC     H3S      HAL2     0.900000E-01   1.00800           0
      9591 MEMB     73       POPC     C24      CTL2    -0.180000       12.0110           0
      9592 MEMB     73       POPC     H4R      HAL2     0.900000E-01   1.00800           0
      9593 MEMB     73       POPC     H4S      HAL2     0.900000E-01   1.00800           0
      9594 MEMB     73       POPC     C25      CTL2    -0.180000       12.0110           0
      9595 MEMB     73       POPC     H5R      HAL2     0.900000E-01   1.00800           0
      9596 MEMB     73       POPC     H5S      HAL2     0.900000E-01   1.00800           0
      9597 MEMB     73       POPC     C26      CTL2    -0.180000       12.0110           0
      9598 MEMB     73       POPC     H6R      HAL2     0.900000E-01   1.00800           0
      9599 MEMB     73       POPC     H6S      HAL2     0.900000E-01   1.00800           0
      9600 MEMB     73       POPC     C27      CTL2    -0.180000       12.0110           0
      9601 MEMB     73       POPC     H7R      HAL2     0.900000E-01   1.00800           0
      9602 MEMB     73       POPC     H7S      HAL2     0.900000E-01   1.00800           0
      9603 MEMB     73       POPC     C28      CTL2    -0.180000       12.0110           0
      9604 MEMB     73       POPC     H8R      HAL2     0.900000E-01   1.00800           0
      9605 MEMB     73       POPC     H8S      HAL2     0.900000E-01   1.00800           0
      9606 MEMB     73       POPC     C29      CEL1    -0.150000       12.0110           0
      9607 MEMB     73       POPC     H91      HEL1     0.150000       1.00800           0
      9608 MEMB     73       POPC     C210     CEL1    -0.150000       12.0110           0
      9609 MEMB     73       POPC     H101     HEL1     0.150000       1.00800           0
      9610 MEMB     73       POPC     C211     CTL2    -0.180000       12.0110           0
      9611 MEMB     73       POPC     H11R     HAL2     0.900000E-01   1.00800           0
      9612 MEMB     73       POPC     H11S     HAL2     0.900000E-01   1.00800           0
      9613 MEMB     73       POPC     C212     CTL2    -0.180000       12.0110           0
      9614 MEMB     73       POPC     H12R     HAL2     0.900000E-01   1.00800           0
      9615 MEMB     73       POPC     H12S     HAL2     0.900000E-01   1.00800           0
      9616 MEMB     73       POPC     C213     CTL2    -0.180000       12.0110           0
      9617 MEMB     73       POPC     H13R     HAL2     0.900000E-01   1.00800           0
      9618 MEMB     73       POPC     H13S     HAL2     0.900000E-01   1.00800           0
      9619 MEMB     73       POPC     C214     CTL2    -0.180000       12.0110           0
      9620 MEMB     73       POPC     H14R     HAL2     0.900000E-01   1.00800           0
      9621 MEMB     73       POPC     H14S     HAL2     0.900000E-01   1.00800           0
      9622 MEMB     73       POPC     C215     CTL2    -0.180000       12.0110           0
      9623 MEMB     73       POPC     H15R     HAL2     0.900000E-01   1.00800           0
      9624 MEMB     73       POPC     H15S     HAL2     0.900000E-01   1.00800           0
      9625 MEMB     73       POPC     C216     CTL2    -0.180000       12.0110           0
      9626 MEMB     73       POPC     H16R     HAL2     0.900000E-01   1.00800           0
      9627 MEMB     73       POPC     H16S     HAL2     0.900000E-01   1.00800           0
      9628 MEMB     73       POPC     C217     CTL2    -0.180000       12.0110           0
      9629 MEMB     73       POPC     H17R     HAL2     0.900000E-01   1.00800           0
      9630 MEMB     73       POPC     H17S     HAL2     0.900000E-01   1.00800           0
      9631 MEMB     73       POPC     C218     CTL3    -0.270000       12.0110           0
      9632 MEMB     73       POPC     H18R     HAL3     0.900000E-01   1.00800           0
      9633 MEMB     73       POPC     H18S     HAL3     0.900000E-01   1.00800           0
      9634 MEMB     73       POPC     H18T     HAL3     0.900000E-01   1.00800           0
      9635 MEMB     73       POPC     C33      CTL2    -0.180000       12.0110           0
      9636 MEMB     73       POPC     H3X      HAL2     0.900000E-01   1.00800           0
      9637 MEMB     73       POPC     H3Y      HAL2     0.900000E-01   1.00800           0
      9638 MEMB     73       POPC     C34      CTL2    -0.180000       12.0110           0
      9639 MEMB     73       POPC     H4X      HAL2     0.900000E-01   1.00800           0
      9640 MEMB     73       POPC     H4Y      HAL2     0.900000E-01   1.00800           0
      9641 MEMB     73       POPC     C35      CTL2    -0.180000       12.0110           0
      9642 MEMB     73       POPC     H5X      HAL2     0.900000E-01   1.00800           0
      9643 MEMB     73       POPC     H5Y      HAL2     0.900000E-01   1.00800           0
      9644 MEMB     73       POPC     C36      CTL2    -0.180000       12.0110           0
      9645 MEMB     73       POPC     H6X      HAL2     0.900000E-01   1.00800           0
      9646 MEMB     73       POPC     H6Y      HAL2     0.900000E-01   1.00800           0
      9647 MEMB     73       POPC     C37      CTL2    -0.180000       12.0110           0
      9648 MEMB     73       POPC     H7X      HAL2     0.900000E-01   1.00800           0
      9649 MEMB     73       POPC     H7Y      HAL2     0.900000E-01   1.00800           0
      9650 MEMB     73       POPC     C38      CTL2    -0.180000       12.0110           0
      9651 MEMB     73       POPC     H8X      HAL2     0.900000E-01   1.00800           0
      9652 MEMB     73       POPC     H8Y      HAL2     0.900000E-01   1.00800           0
      9653 MEMB     73       POPC     C39      CTL2    -0.180000       12.0110           0
      9654 MEMB     73       POPC     H9X      HAL2     0.900000E-01   1.00800           0
      9655 MEMB     73       POPC     H9Y      HAL2     0.900000E-01   1.00800           0
      9656 MEMB     73       POPC     C310     CTL2    -0.180000       12.0110           0
      9657 MEMB     73       POPC     H10X     HAL2     0.900000E-01   1.00800           0
      9658 MEMB     73       POPC     H10Y     HAL2     0.900000E-01   1.00800           0
      9659 MEMB     73       POPC     C311     CTL2    -0.180000       12.0110           0
      9660 MEMB     73       POPC     H11X     HAL2     0.900000E-01   1.00800           0
      9661 MEMB     73       POPC     H11Y     HAL2     0.900000E-01   1.00800           0
      9662 MEMB     73       POPC     C312     CTL2    -0.180000       12.0110           0
      9663 MEMB     73       POPC     H12X     HAL2     0.900000E-01   1.00800           0
      9664 MEMB     73       POPC     H12Y     HAL2     0.900000E-01   1.00800           0
      9665 MEMB     73       POPC     C313     CTL2    -0.180000       12.0110           0
      9666 MEMB     73       POPC     H13X     HAL2     0.900000E-01   1.00800           0
      9667 MEMB     73       POPC     H13Y     HAL2     0.900000E-01   1.00800           0
      9668 MEMB     73       POPC     C314     CTL2    -0.180000       12.0110           0
      9669 MEMB     73       POPC     H14X     HAL2     0.900000E-01   1.00800           0
      9670 MEMB     73       POPC     H14Y     HAL2     0.900000E-01   1.00800           0
      9671 MEMB     73       POPC     C315     CTL2    -0.180000       12.0110           0
      9672 MEMB     73       POPC     H15X     HAL2     0.900000E-01   1.00800           0
      9673 MEMB     73       POPC     H15Y     HAL2     0.900000E-01   1.00800           0
      9674 MEMB     73       POPC     C316     CTL3    -0.270000       12.0110           0
      9675 MEMB     73       POPC     H16X     HAL3     0.900000E-01   1.00800           0
      9676 MEMB     73       POPC     H16Y     HAL3     0.900000E-01   1.00800           0
      9677 MEMB     73       POPC     H16Z     HAL3     0.900000E-01   1.00800           0
      9678 MEMB     74       POPC     N        NTL     -0.600000       14.0070           0
      9679 MEMB     74       POPC     C12      CTL2    -0.100000       12.0110           0
      9680 MEMB     74       POPC     H12A     HL       0.250000       1.00800           0
      9681 MEMB     74       POPC     H12B     HL       0.250000       1.00800           0
      9682 MEMB     74       POPC     C13      CTL5    -0.350000       12.0110           0
      9683 MEMB     74       POPC     H13A     HL       0.250000       1.00800           0
      9684 MEMB     74       POPC     H13B     HL       0.250000       1.00800           0
      9685 MEMB     74       POPC     H13C     HL       0.250000       1.00800           0
      9686 MEMB     74       POPC     C14      CTL5    -0.350000       12.0110           0
      9687 MEMB     74       POPC     H14A     HL       0.250000       1.00800           0
      9688 MEMB     74       POPC     H14B     HL       0.250000       1.00800           0
      9689 MEMB     74       POPC     H14C     HL       0.250000       1.00800           0
      9690 MEMB     74       POPC     C15      CTL5    -0.350000       12.0110           0
      9691 MEMB     74       POPC     H15A     HL       0.250000       1.00800           0
      9692 MEMB     74       POPC     H15B     HL       0.250000       1.00800           0
      9693 MEMB     74       POPC     H15C     HL       0.250000       1.00800           0
      9694 MEMB     74       POPC     C11      CTL2    -0.800000E-01   12.0110           0
      9695 MEMB     74       POPC     H11A     HAL2     0.900000E-01   1.00800           0
      9696 MEMB     74       POPC     H11B     HAL2     0.900000E-01   1.00800           0
      9697 MEMB     74       POPC     P        PL        1.50000       30.9740           0
      9698 MEMB     74       POPC     O13      O2L     -0.780000       15.9994           0
      9699 MEMB     74       POPC     O14      O2L     -0.780000       15.9994           0
      9700 MEMB     74       POPC     O12      OSLP    -0.570000       15.9994           0
      9701 MEMB     74       POPC     O11      OSLP    -0.570000       15.9994           0
      9702 MEMB     74       POPC     C1       CTL2    -0.800000E-01   12.0110           0
      9703 MEMB     74       POPC     HA       HAL2     0.900000E-01   1.00800           0
      9704 MEMB     74       POPC     HB       HAL2     0.900000E-01   1.00800           0
      9705 MEMB     74       POPC     C2       CTL1     0.170000       12.0110           0
      9706 MEMB     74       POPC     HS       HAL1     0.900000E-01   1.00800           0
      9707 MEMB     74       POPC     O21      OSL     -0.490000       15.9994           0
      9708 MEMB     74       POPC     C21      CL       0.900000       12.0110           0
      9709 MEMB     74       POPC     O22      OBL     -0.630000       15.9994           0
      9710 MEMB     74       POPC     C22      CTL2    -0.220000       12.0110           0
      9711 MEMB     74       POPC     H2R      HAL2     0.900000E-01   1.00800           0
      9712 MEMB     74       POPC     H2S      HAL2     0.900000E-01   1.00800           0
      9713 MEMB     74       POPC     C3       CTL2     0.800000E-01   12.0110           0
      9714 MEMB     74       POPC     HX       HAL2     0.900000E-01   1.00800           0
      9715 MEMB     74       POPC     HY       HAL2     0.900000E-01   1.00800           0
      9716 MEMB     74       POPC     O31      OSL     -0.490000       15.9994           0
      9717 MEMB     74       POPC     C31      CL       0.900000       12.0110           0
      9718 MEMB     74       POPC     O32      OBL     -0.630000       15.9994           0
      9719 MEMB     74       POPC     C32      CTL2    -0.220000       12.0110           0
      9720 MEMB     74       POPC     H2X      HAL2     0.900000E-01   1.00800           0
      9721 MEMB     74       POPC     H2Y      HAL2     0.900000E-01   1.00800           0
      9722 MEMB     74       POPC     C23      CTL2    -0.180000       12.0110           0
      9723 MEMB     74       POPC     H3R      HAL2     0.900000E-01   1.00800           0
      9724 MEMB     74       POPC     H3S      HAL2     0.900000E-01   1.00800           0
      9725 MEMB     74       POPC     C24      CTL2    -0.180000       12.0110           0
      9726 MEMB     74       POPC     H4R      HAL2     0.900000E-01   1.00800           0
      9727 MEMB     74       POPC     H4S      HAL2     0.900000E-01   1.00800           0
      9728 MEMB     74       POPC     C25      CTL2    -0.180000       12.0110           0
      9729 MEMB     74       POPC     H5R      HAL2     0.900000E-01   1.00800           0
      9730 MEMB     74       POPC     H5S      HAL2     0.900000E-01   1.00800           0
      9731 MEMB     74       POPC     C26      CTL2    -0.180000       12.0110           0
      9732 MEMB     74       POPC     H6R      HAL2     0.900000E-01   1.00800           0
      9733 MEMB     74       POPC     H6S      HAL2     0.900000E-01   1.00800           0
      9734 MEMB     74       POPC     C27      CTL2    -0.180000       12.0110           0
      9735 MEMB     74       POPC     H7R      HAL2     0.900000E-01   1.00800           0
      9736 MEMB     74       POPC     H7S      HAL2     0.900000E-01   1.00800           0
      9737 MEMB     74       POPC     C28      CTL2    -0.180000       12.0110           0
      9738 MEMB     74       POPC     H8R      HAL2     0.900000E-01   1.00800           0
      9739 MEMB     74       POPC     H8S      HAL2     0.900000E-01   1.00800           0
      9740 MEMB     74       POPC     C29      CEL1    -0.150000       12.0110           0
      9741 MEMB     74       POPC     H91      HEL1     0.150000       1.00800           0
      9742 MEMB     74       POPC     C210     CEL1    -0.150000       12.0110           0
      9743 MEMB     74       POPC     H101     HEL1     0.150000       1.00800           0
      9744 MEMB     74       POPC     C211     CTL2    -0.180000       12.0110           0
      9745 MEMB     74       POPC     H11R     HAL2     0.900000E-01   1.00800           0
      9746 MEMB     74       POPC     H11S     HAL2     0.900000E-01   1.00800           0
      9747 MEMB     74       POPC     C212     CTL2    -0.180000       12.0110           0
      9748 MEMB     74       POPC     H12R     HAL2     0.900000E-01   1.00800           0
      9749 MEMB     74       POPC     H12S     HAL2     0.900000E-01   1.00800           0
      9750 MEMB     74       POPC     C213     CTL2    -0.180000       12.0110           0
      9751 MEMB     74       POPC     H13R     HAL2     0.900000E-01   1.00800           0
      9752 MEMB     74       POPC     H13S     HAL2     0.900000E-01   1.00800           0
      9753 MEMB     74       POPC     C214     CTL2    -0.180000       12.0110           0
      9754 MEMB     74       POPC     H14R     HAL2     0.900000E-01   1.00800           0
      9755 MEMB     74       POPC     H14S     HAL2     0.900000E-01   1.00800           0
      9756 MEMB     74       POPC     C215     CTL2    -0.180000       12.0110           0
      9757 MEMB     74       POPC     H15R     HAL2     0.900000E-01   1.00800           0
      9758 MEMB     74       POPC     H15S     HAL2     0.900000E-01   1.00800           0
      9759 MEMB     74       POPC     C216     CTL2    -0.180000       12.0110           0
      9760 MEMB     74       POPC     H16R     HAL2     0.900000E-01   1.00800           0
      9761 MEMB     74       POPC     H16S     HAL2     0.900000E-01   1.00800           0
      9762 MEMB     74       POPC     C217     CTL2    -0.180000       12.0110           0
      9763 MEMB     74       POPC     H17R     HAL2     0.900000E-01   1.00800           0
      9764 MEMB     74       POPC     H17S     HAL2     0.900000E-01   1.00800           0
      9765 MEMB     74       POPC     C218     CTL3    -0.270000       12.0110           0
      9766 MEMB     74       POPC     H18R     HAL3     0.900000E-01   1.00800           0
      9767 MEMB     74       POPC     H18S     HAL3     0.900000E-01   1.00800           0
      9768 MEMB     74       POPC     H18T     HAL3     0.900000E-01   1.00800           0
      9769 MEMB     74       POPC     C33      CTL2    -0.180000       12.0110           0
      9770 MEMB     74       POPC     H3X      HAL2     0.900000E-01   1.00800           0
      9771 MEMB     74       POPC     H3Y      HAL2     0.900000E-01   1.00800           0
      9772 MEMB     74       POPC     C34      CTL2    -0.180000       12.0110           0
      9773 MEMB     74       POPC     H4X      HAL2     0.900000E-01   1.00800           0
      9774 MEMB     74       POPC     H4Y      HAL2     0.900000E-01   1.00800           0
      9775 MEMB     74       POPC     C35      CTL2    -0.180000       12.0110           0
      9776 MEMB     74       POPC     H5X      HAL2     0.900000E-01   1.00800           0
      9777 MEMB     74       POPC     H5Y      HAL2     0.900000E-01   1.00800           0
      9778 MEMB     74       POPC     C36      CTL2    -0.180000       12.0110           0
      9779 MEMB     74       POPC     H6X      HAL2     0.900000E-01   1.00800           0
      9780 MEMB     74       POPC     H6Y      HAL2     0.900000E-01   1.00800           0
      9781 MEMB     74       POPC     C37      CTL2    -0.180000       12.0110           0
      9782 MEMB     74       POPC     H7X      HAL2     0.900000E-01   1.00800           0
      9783 MEMB     74       POPC     H7Y      HAL2     0.900000E-01   1.00800           0
      9784 MEMB     74       POPC     C38      CTL2    -0.180000       12.0110           0
      9785 MEMB     74       POPC     H8X      HAL2     0.900000E-01   1.00800           0
      9786 MEMB     74       POPC     H8Y      HAL2     0.900000E-01   1.00800           0
      9787 MEMB     74       POPC     C39      CTL2    -0.180000       12.0110           0
      9788 MEMB     74       POPC     H9X      HAL2     0.900000E-01   1.00800           0
      9789 MEMB     74       POPC     H9Y      HAL2     0.900000E-01   1.00800           0
      9790 MEMB     74       POPC     C310     CTL2    -0.180000       12.0110           0
      9791 MEMB     74       POPC     H10X     HAL2     0.900000E-01   1.00800           0
      9792 MEMB     74       POPC     H10Y     HAL2     0.900000E-01   1.00800           0
      9793 MEMB     74       POPC     C311     CTL2    -0.180000       12.0110           0
      9794 MEMB     74       POPC     H11X     HAL2     0.900000E-01   1.00800           0
      9795 MEMB     74       POPC     H11Y     HAL2     0.900000E-01   1.00800           0
      9796 MEMB     74       POPC     C312     CTL2    -0.180000       12.0110           0
      9797 MEMB     74       POPC     H12X     HAL2     0.900000E-01   1.00800           0
      9798 MEMB     74       POPC     H12Y     HAL2     0.900000E-01   1.00800           0
      9799 MEMB     74       POPC     C313     CTL2    -0.180000       12.0110           0
      9800 MEMB     74       POPC     H13X     HAL2     0.900000E-01   1.00800           0
      9801 MEMB     74       POPC     H13Y     HAL2     0.900000E-01   1.00800           0
      9802 MEMB     74       POPC     C314     CTL2    -0.180000       12.0110           0
      9803 MEMB     74       POPC     H14X     HAL2     0.900000E-01   1.00800           0
      9804 MEMB     74       POPC     H14Y     HAL2     0.900000E-01   1.00800           0
      9805 MEMB     74       POPC     C315     CTL2    -0.180000       12.0110           0
      9806 MEMB     74       POPC     H15X     HAL2     0.900000E-01   1.00800           0
      9807 MEMB     74       POPC     H15Y     HAL2     0.900000E-01   1.00800           0
      9808 MEMB     74       POPC     C316     CTL3    -0.270000       12.0110           0
      9809 MEMB     74       POPC     H16X     HAL3     0.900000E-01   1.00800           0
      9810 MEMB     74       POPC     H16Y     HAL3     0.900000E-01   1.00800           0
      9811 MEMB     74       POPC     H16Z     HAL3     0.900000E-01   1.00800           0
      9812 MEMB     75       POPS     N        NH3L    -0.300000       14.0070           0
      9813 MEMB     75       POPS     HN1      HCL      0.330000       1.00800           0
      9814 MEMB     75       POPS     HN2      HCL      0.330000       1.00800           0
      9815 MEMB     75       POPS     HN3      HCL      0.330000       1.00800           0
      9816 MEMB     75       POPS     C12      CTL1     0.210000       12.0110           0
      9817 MEMB     75       POPS     H12A     HBL      0.100000       1.00800           0
      9818 MEMB     75       POPS     C13      CCL      0.340000       12.0110           0
      9819 MEMB     75       POPS     O13A     OCL     -0.670000       15.9994           0
      9820 MEMB     75       POPS     O13B     OCL     -0.670000       15.9994           0
      9821 MEMB     75       POPS     C11      CTL2    -0.800000E-01   12.0110           0
      9822 MEMB     75       POPS     H11A     HAL2     0.900000E-01   1.00800           0
      9823 MEMB     75       POPS     H11B     HAL2     0.900000E-01   1.00800           0
      9824 MEMB     75       POPS     P        PL        1.50000       30.9740           0
      9825 MEMB     75       POPS     O13      O2L     -0.780000       15.9994           0
      9826 MEMB     75       POPS     O14      O2L     -0.780000       15.9994           0
      9827 MEMB     75       POPS     O12      OSLP    -0.570000       15.9994           0
      9828 MEMB     75       POPS     O11      OSLP    -0.570000       15.9994           0
      9829 MEMB     75       POPS     C1       CTL2    -0.800000E-01   12.0110           0
      9830 MEMB     75       POPS     HA       HAL2     0.900000E-01   1.00800           0
      9831 MEMB     75       POPS     HB       HAL2     0.900000E-01   1.00800           0
      9832 MEMB     75       POPS     C2       CTL1     0.170000       12.0110           0
      9833 MEMB     75       POPS     HS       HAL1     0.900000E-01   1.00800           0
      9834 MEMB     75       POPS     O21      OSL     -0.490000       15.9994           0
      9835 MEMB     75       POPS     C21      CL       0.900000       12.0110           0
      9836 MEMB     75       POPS     O22      OBL     -0.630000       15.9994           0
      9837 MEMB     75       POPS     C22      CTL2    -0.220000       12.0110           0
      9838 MEMB     75       POPS     H2R      HAL2     0.900000E-01   1.00800           0
      9839 MEMB     75       POPS     H2S      HAL2     0.900000E-01   1.00800           0
      9840 MEMB     75       POPS     C3       CTL2     0.800000E-01   12.0110           0
      9841 MEMB     75       POPS     HX       HAL2     0.900000E-01   1.00800           0
      9842 MEMB     75       POPS     HY       HAL2     0.900000E-01   1.00800           0
      9843 MEMB     75       POPS     O31      OSL     -0.490000       15.9994           0
      9844 MEMB     75       POPS     C31      CL       0.900000       12.0110           0
      9845 MEMB     75       POPS     O32      OBL     -0.630000       15.9994           0
      9846 MEMB     75       POPS     C32      CTL2    -0.220000       12.0110           0
      9847 MEMB     75       POPS     H2X      HAL2     0.900000E-01   1.00800           0
      9848 MEMB     75       POPS     H2Y      HAL2     0.900000E-01   1.00800           0
      9849 MEMB     75       POPS     C23      CTL2    -0.180000       12.0110           0
      9850 MEMB     75       POPS     H3R      HAL2     0.900000E-01   1.00800           0
      9851 MEMB     75       POPS     H3S      HAL2     0.900000E-01   1.00800           0
      9852 MEMB     75       POPS     C24      CTL2    -0.180000       12.0110           0
      9853 MEMB     75       POPS     H4R      HAL2     0.900000E-01   1.00800           0
      9854 MEMB     75       POPS     H4S      HAL2     0.900000E-01   1.00800           0
      9855 MEMB     75       POPS     C25      CTL2    -0.180000       12.0110           0
      9856 MEMB     75       POPS     H5R      HAL2     0.900000E-01   1.00800           0
      9857 MEMB     75       POPS     H5S      HAL2     0.900000E-01   1.00800           0
      9858 MEMB     75       POPS     C26      CTL2    -0.180000       12.0110           0
      9859 MEMB     75       POPS     H6R      HAL2     0.900000E-01   1.00800           0
      9860 MEMB     75       POPS     H6S      HAL2     0.900000E-01   1.00800           0
      9861 MEMB     75       POPS     C27      CTL2    -0.180000       12.0110           0
      9862 MEMB     75       POPS     H7R      HAL2     0.900000E-01   1.00800           0
      9863 MEMB     75       POPS     H7S      HAL2     0.900000E-01   1.00800           0
      9864 MEMB     75       POPS     C28      CTL2    -0.180000       12.0110           0
      9865 MEMB     75       POPS     H8R      HAL2     0.900000E-01   1.00800           0
      9866 MEMB     75       POPS     H8S      HAL2     0.900000E-01   1.00800           0
      9867 MEMB     75       POPS     C29      CEL1    -0.150000       12.0110           0
      9868 MEMB     75       POPS     H91      HEL1     0.150000       1.00800           0
      9869 MEMB     75       POPS     C210     CEL1    -0.150000       12.0110           0
      9870 MEMB     75       POPS     H101     HEL1     0.150000       1.00800           0
      9871 MEMB     75       POPS     C211     CTL2    -0.180000       12.0110           0
      9872 MEMB     75       POPS     H11R     HAL2     0.900000E-01   1.00800           0
      9873 MEMB     75       POPS     H11S     HAL2     0.900000E-01   1.00800           0
      9874 MEMB     75       POPS     C212     CTL2    -0.180000       12.0110           0
      9875 MEMB     75       POPS     H12R     HAL2     0.900000E-01   1.00800           0
      9876 MEMB     75       POPS     H12S     HAL2     0.900000E-01   1.00800           0
      9877 MEMB     75       POPS     C213     CTL2    -0.180000       12.0110           0
      9878 MEMB     75       POPS     H13R     HAL2     0.900000E-01   1.00800           0
      9879 MEMB     75       POPS     H13S     HAL2     0.900000E-01   1.00800           0
      9880 MEMB     75       POPS     C214     CTL2    -0.180000       12.0110           0
      9881 MEMB     75       POPS     H14R     HAL2     0.900000E-01   1.00800           0
      9882 MEMB     75       POPS     H14S     HAL2     0.900000E-01   1.00800           0
      9883 MEMB     75       POPS     C215     CTL2    -0.180000       12.0110           0
      9884 MEMB     75       POPS     H15R     HAL2     0.900000E-01   1.00800           0
      9885 MEMB     75       POPS     H15S     HAL2     0.900000E-01   1.00800           0
      9886 MEMB     75       POPS     C216     CTL2    -0.180000       12.0110           0
      9887 MEMB     75       POPS     H16R     HAL2     0.900000E-01   1.00800           0
      9888 MEMB     75       POPS     H16S     HAL2     0.900000E-01   1.00800           0
      9889 MEMB     75       POPS     C217     CTL2    -0.180000       12.0110           0
      9890 MEMB     75       POPS     H17R     HAL2     0.900000E-01   1.00800           0
      9891 MEMB     75       POPS     H17S     HAL2     0.900000E-01   1.00800           0
      9892 MEMB     75       POPS     C218     CTL3    -0.270000       12.0110           0
      9893 MEMB     75       POPS     H18R     HAL3     0.900000E-01   1.00800           0
      9894 MEMB     75       POPS     H18S     HAL3     0.900000E-01   1.00800           0
      9895 MEMB     75       POPS     H18T     HAL3     0.900000E-01   1.00800           0
      9896 MEMB     75       POPS     C33      CTL2    -0.180000       12.0110           0
      9897 MEMB     75       POPS     H3X      HAL2     0.900000E-01   1.00800           0
      9898 MEMB     75       POPS     H3Y      HAL2     0.900000E-01   1.00800           0
      9899 MEMB     75       POPS     C34      CTL2    -0.180000       12.0110           0
      9900 MEMB     75       POPS     H4X      HAL2     0.900000E-01   1.00800           0
      9901 MEMB     75       POPS     H4Y      HAL2     0.900000E-01   1.00800           0
      9902 MEMB     75       POPS     C35      CTL2    -0.180000       12.0110           0
      9903 MEMB     75       POPS     H5X      HAL2     0.900000E-01   1.00800           0
      9904 MEMB     75       POPS     H5Y      HAL2     0.900000E-01   1.00800           0
      9905 MEMB     75       POPS     C36      CTL2    -0.180000       12.0110           0
      9906 MEMB     75       POPS     H6X      HAL2     0.900000E-01   1.00800           0
      9907 MEMB     75       POPS     H6Y      HAL2     0.900000E-01   1.00800           0
      9908 MEMB     75       POPS     C37      CTL2    -0.180000       12.0110           0
      9909 MEMB     75       POPS     H7X      HAL2     0.900000E-01   1.00800           0
      9910 MEMB     75       POPS     H7Y      HAL2     0.900000E-01   1.00800           0
      9911 MEMB     75       POPS     C38      CTL2    -0.180000       12.0110           0
      9912 MEMB     75       POPS     H8X      HAL2     0.900000E-01   1.00800           0
      9913 MEMB     75       POPS     H8Y      HAL2     0.900000E-01   1.00800           0
      9914 MEMB     75       POPS     C39      CTL2    -0.180000       12.0110           0
      9915 MEMB     75       POPS     H9X      HAL2     0.900000E-01   1.00800           0
      9916 MEMB     75       POPS     H9Y      HAL2     0.900000E-01   1.00800           0
      9917 MEMB     75       POPS     C310     CTL2    -0.180000       12.0110           0
      9918 MEMB     75       POPS     H10X     HAL2     0.900000E-01   1.00800           0
      9919 MEMB     75       POPS     H10Y     HAL2     0.900000E-01   1.00800           0
      9920 MEMB     75       POPS     C311     CTL2    -0.180000       12.0110           0
      9921 MEMB     75       POPS     H11X     HAL2     0.900000E-01   1.00800           0
      9922 MEMB     75       POPS     H11Y     HAL2     0.900000E-01   1.00800           0
      9923 MEMB     75       POPS     C312     CTL2    -0.180000       12.0110           0
      9924 MEMB     75       POPS     H12X     HAL2     0.900000E-01   1.00800           0
      9925 MEMB     75       POPS     H12Y     HAL2     0.900000E-01   1.00800           0
      9926 MEMB     75       POPS     C313     CTL2    -0.180000       12.0110           0
      9927 MEMB     75       POPS     H13X     HAL2     0.900000E-01   1.00800           0
      9928 MEMB     75       POPS     H13Y     HAL2     0.900000E-01   1.00800           0
      9929 MEMB     75       POPS     C314     CTL2    -0.180000       12.0110           0
      9930 MEMB     75       POPS     H14X     HAL2     0.900000E-01   1.00800           0
      9931 MEMB     75       POPS     H14Y     HAL2     0.900000E-01   1.00800           0
      9932 MEMB     75       POPS     C315     CTL2    -0.180000       12.0110           0
      9933 MEMB     75       POPS     H15X     HAL2     0.900000E-01   1.00800           0
      9934 MEMB     75       POPS     H15Y     HAL2     0.900000E-01   1.00800           0
      9935 MEMB     75       POPS     C316     CTL3    -0.270000       12.0110           0
      9936 MEMB     75       POPS     H16X     HAL3     0.900000E-01   1.00800           0
      9937 MEMB     75       POPS     H16Y     HAL3     0.900000E-01   1.00800           0
      9938 MEMB     75       POPS     H16Z     HAL3     0.900000E-01   1.00800           0
      9939 MEMB     76       POPC     N        NTL     -0.600000       14.0070           0
      9940 MEMB     76       POPC     C12      CTL2    -0.100000       12.0110           0
      9941 MEMB     76       POPC     H12A     HL       0.250000       1.00800           0
      9942 MEMB     76       POPC     H12B     HL       0.250000       1.00800           0
      9943 MEMB     76       POPC     C13      CTL5    -0.350000       12.0110           0
      9944 MEMB     76       POPC     H13A     HL       0.250000       1.00800           0
      9945 MEMB     76       POPC     H13B     HL       0.250000       1.00800           0
      9946 MEMB     76       POPC     H13C     HL       0.250000       1.00800           0
      9947 MEMB     76       POPC     C14      CTL5    -0.350000       12.0110           0
      9948 MEMB     76       POPC     H14A     HL       0.250000       1.00800           0
      9949 MEMB     76       POPC     H14B     HL       0.250000       1.00800           0
      9950 MEMB     76       POPC     H14C     HL       0.250000       1.00800           0
      9951 MEMB     76       POPC     C15      CTL5    -0.350000       12.0110           0
      9952 MEMB     76       POPC     H15A     HL       0.250000       1.00800           0
      9953 MEMB     76       POPC     H15B     HL       0.250000       1.00800           0
      9954 MEMB     76       POPC     H15C     HL       0.250000       1.00800           0
      9955 MEMB     76       POPC     C11      CTL2    -0.800000E-01   12.0110           0
      9956 MEMB     76       POPC     H11A     HAL2     0.900000E-01   1.00800           0
      9957 MEMB     76       POPC     H11B     HAL2     0.900000E-01   1.00800           0
      9958 MEMB     76       POPC     P        PL        1.50000       30.9740           0
      9959 MEMB     76       POPC     O13      O2L     -0.780000       15.9994           0
      9960 MEMB     76       POPC     O14      O2L     -0.780000       15.9994           0
      9961 MEMB     76       POPC     O12      OSLP    -0.570000       15.9994           0
      9962 MEMB     76       POPC     O11      OSLP    -0.570000       15.9994           0
      9963 MEMB     76       POPC     C1       CTL2    -0.800000E-01   12.0110           0
      9964 MEMB     76       POPC     HA       HAL2     0.900000E-01   1.00800           0
      9965 MEMB     76       POPC     HB       HAL2     0.900000E-01   1.00800           0
      9966 MEMB     76       POPC     C2       CTL1     0.170000       12.0110           0
      9967 MEMB     76       POPC     HS       HAL1     0.900000E-01   1.00800           0
      9968 MEMB     76       POPC     O21      OSL     -0.490000       15.9994           0
      9969 MEMB     76       POPC     C21      CL       0.900000       12.0110           0
      9970 MEMB     76       POPC     O22      OBL     -0.630000       15.9994           0
      9971 MEMB     76       POPC     C22      CTL2    -0.220000       12.0110           0
      9972 MEMB     76       POPC     H2R      HAL2     0.900000E-01   1.00800           0
      9973 MEMB     76       POPC     H2S      HAL2     0.900000E-01   1.00800           0
      9974 MEMB     76       POPC     C3       CTL2     0.800000E-01   12.0110           0
      9975 MEMB     76       POPC     HX       HAL2     0.900000E-01   1.00800           0
      9976 MEMB     76       POPC     HY       HAL2     0.900000E-01   1.00800           0
      9977 MEMB     76       POPC     O31      OSL     -0.490000       15.9994           0
      9978 MEMB     76       POPC     C31      CL       0.900000       12.0110           0
      9979 MEMB     76       POPC     O32      OBL     -0.630000       15.9994           0
      9980 MEMB     76       POPC     C32      CTL2    -0.220000       12.0110           0
      9981 MEMB     76       POPC     H2X      HAL2     0.900000E-01   1.00800           0
      9982 MEMB     76       POPC     H2Y      HAL2     0.900000E-01   1.00800           0
      9983 MEMB     76       POPC     C23      CTL2    -0.180000       12.0110           0
      9984 MEMB     76       POPC     H3R      HAL2     0.900000E-01   1.00800           0
      9985 MEMB     76       POPC     H3S      HAL2     0.900000E-01   1.00800           0
      9986 MEMB     76       POPC     C24      CTL2    -0.180000       12.0110           0
      9987 MEMB     76       POPC     H4R      HAL2     0.900000E-01   1.00800           0
      9988 MEMB     76       POPC     H4S      HAL2     0.900000E-01   1.00800           0
      9989 MEMB     76       POPC     C25      CTL2    -0.180000       12.0110           0
      9990 MEMB     76       POPC     H5R      HAL2     0.900000E-01   1.00800           0
      9991 MEMB     76       POPC     H5S      HAL2     0.900000E-01   1.00800           0
      9992 MEMB     76       POPC     C26      CTL2    -0.180000       12.0110           0
      9993 MEMB     76       POPC     H6R      HAL2     0.900000E-01   1.00800           0
      9994 MEMB     76       POPC     H6S      HAL2     0.900000E-01   1.00800           0
      9995 MEMB     76       POPC     C27      CTL2    -0.180000       12.0110           0
      9996 MEMB     76       POPC     H7R      HAL2     0.900000E-01   1.00800           0
      9997 MEMB     76       POPC     H7S      HAL2     0.900000E-01   1.00800           0
      9998 MEMB     76       POPC     C28      CTL2    -0.180000       12.0110           0
      9999 MEMB     76       POPC     H8R      HAL2     0.900000E-01   1.00800           0
     10000 MEMB     76       POPC     H8S      HAL2     0.900000E-01   1.00800           0
     10001 MEMB     76       POPC     C29      CEL1    -0.150000       12.0110           0
     10002 MEMB     76       POPC     H91      HEL1     0.150000       1.00800           0
     10003 MEMB     76       POPC     C210     CEL1    -0.150000       12.0110           0
     10004 MEMB     76       POPC     H101     HEL1     0.150000       1.00800           0
     10005 MEMB     76       POPC     C211     CTL2    -0.180000       12.0110           0
     10006 MEMB     76       POPC     H11R     HAL2     0.900000E-01   1.00800           0
     10007 MEMB     76       POPC     H11S     HAL2     0.900000E-01   1.00800           0
     10008 MEMB     76       POPC     C212     CTL2    -0.180000       12.0110           0
     10009 MEMB     76       POPC     H12R     HAL2     0.900000E-01   1.00800           0
     10010 MEMB     76       POPC     H12S     HAL2     0.900000E-01   1.00800           0
     10011 MEMB     76       POPC     C213     CTL2    -0.180000       12.0110           0
     10012 MEMB     76       POPC     H13R     HAL2     0.900000E-01   1.00800           0
     10013 MEMB     76       POPC     H13S     HAL2     0.900000E-01   1.00800           0
     10014 MEMB     76       POPC     C214     CTL2    -0.180000       12.0110           0
     10015 MEMB     76       POPC     H14R     HAL2     0.900000E-01   1.00800           0
     10016 MEMB     76       POPC     H14S     HAL2     0.900000E-01   1.00800           0
     10017 MEMB     76       POPC     C215     CTL2    -0.180000       12.0110           0
     10018 MEMB     76       POPC     H15R     HAL2     0.900000E-01   1.00800           0
     10019 MEMB     76       POPC     H15S     HAL2     0.900000E-01   1.00800           0
     10020 MEMB     76       POPC     C216     CTL2    -0.180000       12.0110           0
     10021 MEMB     76       POPC     H16R     HAL2     0.900000E-01   1.00800           0
     10022 MEMB     76       POPC     H16S     HAL2     0.900000E-01   1.00800           0
     10023 MEMB     76       POPC     C217     CTL2    -0.180000       12.0110           0
     10024 MEMB     76       POPC     H17R     HAL2     0.900000E-01   1.00800           0
     10025 MEMB     76       POPC     H17S     HAL2     0.900000E-01   1.00800           0
     10026 MEMB     76       POPC     C218     CTL3    -0.270000       12.0110           0
     10027 MEMB     76       POPC     H18R     HAL3     0.900000E-01   1.00800           0
     10028 MEMB     76       POPC     H18S     HAL3     0.900000E-01   1.00800           0
     10029 MEMB     76       POPC     H18T     HAL3     0.900000E-01   1.00800           0
     10030 MEMB     76       POPC     C33      CTL2    -0.180000       12.0110           0
     10031 MEMB     76       POPC     H3X      HAL2     0.900000E-01   1.00800           0
     10032 MEMB     76       POPC     H3Y      HAL2     0.900000E-01   1.00800           0
     10033 MEMB     76       POPC     C34      CTL2    -0.180000       12.0110           0
     10034 MEMB     76       POPC     H4X      HAL2     0.900000E-01   1.00800           0
     10035 MEMB     76       POPC     H4Y      HAL2     0.900000E-01   1.00800           0
     10036 MEMB     76       POPC     C35      CTL2    -0.180000       12.0110           0
     10037 MEMB     76       POPC     H5X      HAL2     0.900000E-01   1.00800           0
     10038 MEMB     76       POPC     H5Y      HAL2     0.900000E-01   1.00800           0
     10039 MEMB     76       POPC     C36      CTL2    -0.180000       12.0110           0
     10040 MEMB     76       POPC     H6X      HAL2     0.900000E-01   1.00800           0
     10041 MEMB     76       POPC     H6Y      HAL2     0.900000E-01   1.00800           0
     10042 MEMB     76       POPC     C37      CTL2    -0.180000       12.0110           0
     10043 MEMB     76       POPC     H7X      HAL2     0.900000E-01   1.00800           0
     10044 MEMB     76       POPC     H7Y      HAL2     0.900000E-01   1.00800           0
     10045 MEMB     76       POPC     C38      CTL2    -0.180000       12.0110           0
     10046 MEMB     76       POPC     H8X      HAL2     0.900000E-01   1.00800           0
     10047 MEMB     76       POPC     H8Y      HAL2     0.900000E-01   1.00800           0
     10048 MEMB     76       POPC     C39      CTL2    -0.180000       12.0110           0
     10049 MEMB     76       POPC     H9X      HAL2     0.900000E-01   1.00800           0
     10050 MEMB     76       POPC     H9Y      HAL2     0.900000E-01   1.00800           0
     10051 MEMB     76       POPC     C310     CTL2    -0.180000       12.0110           0
     10052 MEMB     76       POPC     H10X     HAL2     0.900000E-01   1.00800           0
     10053 MEMB     76       POPC     H10Y     HAL2     0.900000E-01   1.00800           0
     10054 MEMB     76       POPC     C311     CTL2    -0.180000       12.0110           0
     10055 MEMB     76       POPC     H11X     HAL2     0.900000E-01   1.00800           0
     10056 MEMB     76       POPC     H11Y     HAL2     0.900000E-01   1.00800           0
     10057 MEMB     76       POPC     C312     CTL2    -0.180000       12.0110           0
     10058 MEMB     76       POPC     H12X     HAL2     0.900000E-01   1.00800           0
     10059 MEMB     76       POPC     H12Y     HAL2     0.900000E-01   1.00800           0
     10060 MEMB     76       POPC     C313     CTL2    -0.180000       12.0110           0
     10061 MEMB     76       POPC     H13X     HAL2     0.900000E-01   1.00800           0
     10062 MEMB     76       POPC     H13Y     HAL2     0.900000E-01   1.00800           0
     10063 MEMB     76       POPC     C314     CTL2    -0.180000       12.0110           0
     10064 MEMB     76       POPC     H14X     HAL2     0.900000E-01   1.00800           0
     10065 MEMB     76       POPC     H14Y     HAL2     0.900000E-01   1.00800           0
     10066 MEMB     76       POPC     C315     CTL2    -0.180000       12.0110           0
     10067 MEMB     76       POPC     H15X     HAL2     0.900000E-01   1.00800           0
     10068 MEMB     76       POPC     H15Y     HAL2     0.900000E-01   1.00800           0
     10069 MEMB     76       POPC     C316     CTL3    -0.270000       12.0110           0
     10070 MEMB     76       POPC     H16X     HAL3     0.900000E-01   1.00800           0
     10071 MEMB     76       POPC     H16Y     HAL3     0.900000E-01   1.00800           0
     10072 MEMB     76       POPC     H16Z     HAL3     0.900000E-01   1.00800           0
     10073 MEMB     77       POPC     N        NTL     -0.600000       14.0070           0
     10074 MEMB     77       POPC     C12      CTL2    -0.100000       12.0110           0
     10075 MEMB     77       POPC     H12A     HL       0.250000       1.00800           0
     10076 MEMB     77       POPC     H12B     HL       0.250000       1.00800           0
     10077 MEMB     77       POPC     C13      CTL5    -0.350000       12.0110           0
     10078 MEMB     77       POPC     H13A     HL       0.250000       1.00800           0
     10079 MEMB     77       POPC     H13B     HL       0.250000       1.00800           0
     10080 MEMB     77       POPC     H13C     HL       0.250000       1.00800           0
     10081 MEMB     77       POPC     C14      CTL5    -0.350000       12.0110           0
     10082 MEMB     77       POPC     H14A     HL       0.250000       1.00800           0
     10083 MEMB     77       POPC     H14B     HL       0.250000       1.00800           0
     10084 MEMB     77       POPC     H14C     HL       0.250000       1.00800           0
     10085 MEMB     77       POPC     C15      CTL5    -0.350000       12.0110           0
     10086 MEMB     77       POPC     H15A     HL       0.250000       1.00800           0
     10087 MEMB     77       POPC     H15B     HL       0.250000       1.00800           0
     10088 MEMB     77       POPC     H15C     HL       0.250000       1.00800           0
     10089 MEMB     77       POPC     C11      CTL2    -0.800000E-01   12.0110           0
     10090 MEMB     77       POPC     H11A     HAL2     0.900000E-01   1.00800           0
     10091 MEMB     77       POPC     H11B     HAL2     0.900000E-01   1.00800           0
     10092 MEMB     77       POPC     P        PL        1.50000       30.9740           0
     10093 MEMB     77       POPC     O13      O2L     -0.780000       15.9994           0
     10094 MEMB     77       POPC     O14      O2L     -0.780000       15.9994           0
     10095 MEMB     77       POPC     O12      OSLP    -0.570000       15.9994           0
     10096 MEMB     77       POPC     O11      OSLP    -0.570000       15.9994           0
     10097 MEMB     77       POPC     C1       CTL2    -0.800000E-01   12.0110           0
     10098 MEMB     77       POPC     HA       HAL2     0.900000E-01   1.00800           0
     10099 MEMB     77       POPC     HB       HAL2     0.900000E-01   1.00800           0
     10100 MEMB     77       POPC     C2       CTL1     0.170000       12.0110           0
     10101 MEMB     77       POPC     HS       HAL1     0.900000E-01   1.00800           0
     10102 MEMB     77       POPC     O21      OSL     -0.490000       15.9994           0
     10103 MEMB     77       POPC     C21      CL       0.900000       12.0110           0
     10104 MEMB     77       POPC     O22      OBL     -0.630000       15.9994           0
     10105 MEMB     77       POPC     C22      CTL2    -0.220000       12.0110           0
     10106 MEMB     77       POPC     H2R      HAL2     0.900000E-01   1.00800           0
     10107 MEMB     77       POPC     H2S      HAL2     0.900000E-01   1.00800           0
     10108 MEMB     77       POPC     C3       CTL2     0.800000E-01   12.0110           0
     10109 MEMB     77       POPC     HX       HAL2     0.900000E-01   1.00800           0
     10110 MEMB     77       POPC     HY       HAL2     0.900000E-01   1.00800           0
     10111 MEMB     77       POPC     O31      OSL     -0.490000       15.9994           0
     10112 MEMB     77       POPC     C31      CL       0.900000       12.0110           0
     10113 MEMB     77       POPC     O32      OBL     -0.630000       15.9994           0
     10114 MEMB     77       POPC     C32      CTL2    -0.220000       12.0110           0
     10115 MEMB     77       POPC     H2X      HAL2     0.900000E-01   1.00800           0
     10116 MEMB     77       POPC     H2Y      HAL2     0.900000E-01   1.00800           0
     10117 MEMB     77       POPC     C23      CTL2    -0.180000       12.0110           0
     10118 MEMB     77       POPC     H3R      HAL2     0.900000E-01   1.00800           0
     10119 MEMB     77       POPC     H3S      HAL2     0.900000E-01   1.00800           0
     10120 MEMB     77       POPC     C24      CTL2    -0.180000       12.0110           0
     10121 MEMB     77       POPC     H4R      HAL2     0.900000E-01   1.00800           0
     10122 MEMB     77       POPC     H4S      HAL2     0.900000E-01   1.00800           0
     10123 MEMB     77       POPC     C25      CTL2    -0.180000       12.0110           0
     10124 MEMB     77       POPC     H5R      HAL2     0.900000E-01   1.00800           0
     10125 MEMB     77       POPC     H5S      HAL2     0.900000E-01   1.00800           0
     10126 MEMB     77       POPC     C26      CTL2    -0.180000       12.0110           0
     10127 MEMB     77       POPC     H6R      HAL2     0.900000E-01   1.00800           0
     10128 MEMB     77       POPC     H6S      HAL2     0.900000E-01   1.00800           0
     10129 MEMB     77       POPC     C27      CTL2    -0.180000       12.0110           0
     10130 MEMB     77       POPC     H7R      HAL2     0.900000E-01   1.00800           0
     10131 MEMB     77       POPC     H7S      HAL2     0.900000E-01   1.00800           0
     10132 MEMB     77       POPC     C28      CTL2    -0.180000       12.0110           0
     10133 MEMB     77       POPC     H8R      HAL2     0.900000E-01   1.00800           0
     10134 MEMB     77       POPC     H8S      HAL2     0.900000E-01   1.00800           0
     10135 MEMB     77       POPC     C29      CEL1    -0.150000       12.0110           0
     10136 MEMB     77       POPC     H91      HEL1     0.150000       1.00800           0
     10137 MEMB     77       POPC     C210     CEL1    -0.150000       12.0110           0
     10138 MEMB     77       POPC     H101     HEL1     0.150000       1.00800           0
     10139 MEMB     77       POPC     C211     CTL2    -0.180000       12.0110           0
     10140 MEMB     77       POPC     H11R     HAL2     0.900000E-01   1.00800           0
     10141 MEMB     77       POPC     H11S     HAL2     0.900000E-01   1.00800           0
     10142 MEMB     77       POPC     C212     CTL2    -0.180000       12.0110           0
     10143 MEMB     77       POPC     H12R     HAL2     0.900000E-01   1.00800           0
     10144 MEMB     77       POPC     H12S     HAL2     0.900000E-01   1.00800           0
     10145 MEMB     77       POPC     C213     CTL2    -0.180000       12.0110           0
     10146 MEMB     77       POPC     H13R     HAL2     0.900000E-01   1.00800           0
     10147 MEMB     77       POPC     H13S     HAL2     0.900000E-01   1.00800           0
     10148 MEMB     77       POPC     C214     CTL2    -0.180000       12.0110           0
     10149 MEMB     77       POPC     H14R     HAL2     0.900000E-01   1.00800           0
     10150 MEMB     77       POPC     H14S     HAL2     0.900000E-01   1.00800           0
     10151 MEMB     77       POPC     C215     CTL2    -0.180000       12.0110           0
     10152 MEMB     77       POPC     H15R     HAL2     0.900000E-01   1.00800           0
     10153 MEMB     77       POPC     H15S     HAL2     0.900000E-01   1.00800           0
     10154 MEMB     77       POPC     C216     CTL2    -0.180000       12.0110           0
     10155 MEMB     77       POPC     H16R     HAL2     0.900000E-01   1.00800           0
     10156 MEMB     77       POPC     H16S     HAL2     0.900000E-01   1.00800           0
     10157 MEMB     77       POPC     C217     CTL2    -0.180000       12.0110           0
     10158 MEMB     77       POPC     H17R     HAL2     0.900000E-01   1.00800           0
     10159 MEMB     77       POPC     H17S     HAL2     0.900000E-01   1.00800           0
     10160 MEMB     77       POPC     C218     CTL3    -0.270000       12.0110           0
     10161 MEMB     77       POPC     H18R     HAL3     0.900000E-01   1.00800           0
     10162 MEMB     77       POPC     H18S     HAL3     0.900000E-01   1.00800           0
     10163 MEMB     77       POPC     H18T     HAL3     0.900000E-01   1.00800           0
     10164 MEMB     77       POPC     C33      CTL2    -0.180000       12.0110           0
     10165 MEMB     77       POPC     H3X      HAL2     0.900000E-01   1.00800           0
     10166 MEMB     77       POPC     H3Y      HAL2     0.900000E-01   1.00800           0
     10167 MEMB     77       POPC     C34      CTL2    -0.180000       12.0110           0
     10168 MEMB     77       POPC     H4X      HAL2     0.900000E-01   1.00800           0
     10169 MEMB     77       POPC     H4Y      HAL2     0.900000E-01   1.00800           0
     10170 MEMB     77       POPC     C35      CTL2    -0.180000       12.0110           0
     10171 MEMB     77       POPC     H5X      HAL2     0.900000E-01   1.00800           0
     10172 MEMB     77       POPC     H5Y      HAL2     0.900000E-01   1.00800           0
     10173 MEMB     77       POPC     C36      CTL2    -0.180000       12.0110           0
     10174 MEMB     77       POPC     H6X      HAL2     0.900000E-01   1.00800           0
     10175 MEMB     77       POPC     H6Y      HAL2     0.900000E-01   1.00800           0
     10176 MEMB     77       POPC     C37      CTL2    -0.180000       12.0110           0
     10177 MEMB     77       POPC     H7X      HAL2     0.900000E-01   1.00800           0
     10178 MEMB     77       POPC     H7Y      HAL2     0.900000E-01   1.00800           0
     10179 MEMB     77       POPC     C38      CTL2    -0.180000       12.0110           0
     10180 MEMB     77       POPC     H8X      HAL2     0.900000E-01   1.00800           0
     10181 MEMB     77       POPC     H8Y      HAL2     0.900000E-01   1.00800           0
     10182 MEMB     77       POPC     C39      CTL2    -0.180000       12.0110           0
     10183 MEMB     77       POPC     H9X      HAL2     0.900000E-01   1.00800           0
     10184 MEMB     77       POPC     H9Y      HAL2     0.900000E-01   1.00800           0
     10185 MEMB     77       POPC     C310     CTL2    -0.180000       12.0110           0
     10186 MEMB     77       POPC     H10X     HAL2     0.900000E-01   1.00800           0
     10187 MEMB     77       POPC     H10Y     HAL2     0.900000E-01   1.00800           0
     10188 MEMB     77       POPC     C311     CTL2    -0.180000       12.0110           0
     10189 MEMB     77       POPC     H11X     HAL2     0.900000E-01   1.00800           0
     10190 MEMB     77       POPC     H11Y     HAL2     0.900000E-01   1.00800           0
     10191 MEMB     77       POPC     C312     CTL2    -0.180000       12.0110           0
     10192 MEMB     77       POPC     H12X     HAL2     0.900000E-01   1.00800           0
     10193 MEMB     77       POPC     H12Y     HAL2     0.900000E-01   1.00800           0
     10194 MEMB     77       POPC     C313     CTL2    -0.180000       12.0110           0
     10195 MEMB     77       POPC     H13X     HAL2     0.900000E-01   1.00800           0
     10196 MEMB     77       POPC     H13Y     HAL2     0.900000E-01   1.00800           0
     10197 MEMB     77       POPC     C314     CTL2    -0.180000       12.0110           0
     10198 MEMB     77       POPC     H14X     HAL2     0.900000E-01   1.00800           0
     10199 MEMB     77       POPC     H14Y     HAL2     0.900000E-01   1.00800           0
     10200 MEMB     77       POPC     C315     CTL2    -0.180000       12.0110           0
     10201 MEMB     77       POPC     H15X     HAL2     0.900000E-01   1.00800           0
     10202 MEMB     77       POPC     H15Y     HAL2     0.900000E-01   1.00800           0
     10203 MEMB     77       POPC     C316     CTL3    -0.270000       12.0110           0
     10204 MEMB     77       POPC     H16X     HAL3     0.900000E-01   1.00800           0
     10205 MEMB     77       POPC     H16Y     HAL3     0.900000E-01   1.00800           0
     10206 MEMB     77       POPC     H16Z     HAL3     0.900000E-01   1.00800           0
     10207 MEMB     78       POPC     N        NTL     -0.600000       14.0070           0
     10208 MEMB     78       POPC     C12      CTL2    -0.100000       12.0110           0
     10209 MEMB     78       POPC     H12A     HL       0.250000       1.00800           0
     10210 MEMB     78       POPC     H12B     HL       0.250000       1.00800           0
     10211 MEMB     78       POPC     C13      CTL5    -0.350000       12.0110           0
     10212 MEMB     78       POPC     H13A     HL       0.250000       1.00800           0
     10213 MEMB     78       POPC     H13B     HL       0.250000       1.00800           0
     10214 MEMB     78       POPC     H13C     HL       0.250000       1.00800           0
     10215 MEMB     78       POPC     C14      CTL5    -0.350000       12.0110           0
     10216 MEMB     78       POPC     H14A     HL       0.250000       1.00800           0
     10217 MEMB     78       POPC     H14B     HL       0.250000       1.00800           0
     10218 MEMB     78       POPC     H14C     HL       0.250000       1.00800           0
     10219 MEMB     78       POPC     C15      CTL5    -0.350000       12.0110           0
     10220 MEMB     78       POPC     H15A     HL       0.250000       1.00800           0
     10221 MEMB     78       POPC     H15B     HL       0.250000       1.00800           0
     10222 MEMB     78       POPC     H15C     HL       0.250000       1.00800           0
     10223 MEMB     78       POPC     C11      CTL2    -0.800000E-01   12.0110           0
     10224 MEMB     78       POPC     H11A     HAL2     0.900000E-01   1.00800           0
     10225 MEMB     78       POPC     H11B     HAL2     0.900000E-01   1.00800           0
     10226 MEMB     78       POPC     P        PL        1.50000       30.9740           0
     10227 MEMB     78       POPC     O13      O2L     -0.780000       15.9994           0
     10228 MEMB     78       POPC     O14      O2L     -0.780000       15.9994           0
     10229 MEMB     78       POPC     O12      OSLP    -0.570000       15.9994           0
     10230 MEMB     78       POPC     O11      OSLP    -0.570000       15.9994           0
     10231 MEMB     78       POPC     C1       CTL2    -0.800000E-01   12.0110           0
     10232 MEMB     78       POPC     HA       HAL2     0.900000E-01   1.00800           0
     10233 MEMB     78       POPC     HB       HAL2     0.900000E-01   1.00800           0
     10234 MEMB     78       POPC     C2       CTL1     0.170000       12.0110           0
     10235 MEMB     78       POPC     HS       HAL1     0.900000E-01   1.00800           0
     10236 MEMB     78       POPC     O21      OSL     -0.490000       15.9994           0
     10237 MEMB     78       POPC     C21      CL       0.900000       12.0110           0
     10238 MEMB     78       POPC     O22      OBL     -0.630000       15.9994           0
     10239 MEMB     78       POPC     C22      CTL2    -0.220000       12.0110           0
     10240 MEMB     78       POPC     H2R      HAL2     0.900000E-01   1.00800           0
     10241 MEMB     78       POPC     H2S      HAL2     0.900000E-01   1.00800           0
     10242 MEMB     78       POPC     C3       CTL2     0.800000E-01   12.0110           0
     10243 MEMB     78       POPC     HX       HAL2     0.900000E-01   1.00800           0
     10244 MEMB     78       POPC     HY       HAL2     0.900000E-01   1.00800           0
     10245 MEMB     78       POPC     O31      OSL     -0.490000       15.9994           0
     10246 MEMB     78       POPC     C31      CL       0.900000       12.0110           0
     10247 MEMB     78       POPC     O32      OBL     -0.630000       15.9994           0
     10248 MEMB     78       POPC     C32      CTL2    -0.220000       12.0110           0
     10249 MEMB     78       POPC     H2X      HAL2     0.900000E-01   1.00800           0
     10250 MEMB     78       POPC     H2Y      HAL2     0.900000E-01   1.00800           0
     10251 MEMB     78       POPC     C23      CTL2    -0.180000       12.0110           0
     10252 MEMB     78       POPC     H3R      HAL2     0.900000E-01   1.00800           0
     10253 MEMB     78       POPC     H3S      HAL2     0.900000E-01   1.00800           0
     10254 MEMB     78       POPC     C24      CTL2    -0.180000       12.0110           0
     10255 MEMB     78       POPC     H4R      HAL2     0.900000E-01   1.00800           0
     10256 MEMB     78       POPC     H4S      HAL2     0.900000E-01   1.00800           0
     10257 MEMB     78       POPC     C25      CTL2    -0.180000       12.0110           0
     10258 MEMB     78       POPC     H5R      HAL2     0.900000E-01   1.00800           0
     10259 MEMB     78       POPC     H5S      HAL2     0.900000E-01   1.00800           0
     10260 MEMB     78       POPC     C26      CTL2    -0.180000       12.0110           0
     10261 MEMB     78       POPC     H6R      HAL2     0.900000E-01   1.00800           0
     10262 MEMB     78       POPC     H6S      HAL2     0.900000E-01   1.00800           0
     10263 MEMB     78       POPC     C27      CTL2    -0.180000       12.0110           0
     10264 MEMB     78       POPC     H7R      HAL2     0.900000E-01   1.00800           0
     10265 MEMB     78       POPC     H7S      HAL2     0.900000E-01   1.00800           0
     10266 MEMB     78       POPC     C28      CTL2    -0.180000       12.0110           0
     10267 MEMB     78       POPC     H8R      HAL2     0.900000E-01   1.00800           0
     10268 MEMB     78       POPC     H8S      HAL2     0.900000E-01   1.00800           0
     10269 MEMB     78       POPC     C29      CEL1    -0.150000       12.0110           0
     10270 MEMB     78       POPC     H91      HEL1     0.150000       1.00800           0
     10271 MEMB     78       POPC     C210     CEL1    -0.150000       12.0110           0
     10272 MEMB     78       POPC     H101     HEL1     0.150000       1.00800           0
     10273 MEMB     78       POPC     C211     CTL2    -0.180000       12.0110           0
     10274 MEMB     78       POPC     H11R     HAL2     0.900000E-01   1.00800           0
     10275 MEMB     78       POPC     H11S     HAL2     0.900000E-01   1.00800           0
     10276 MEMB     78       POPC     C212     CTL2    -0.180000       12.0110           0
     10277 MEMB     78       POPC     H12R     HAL2     0.900000E-01   1.00800           0
     10278 MEMB     78       POPC     H12S     HAL2     0.900000E-01   1.00800           0
     10279 MEMB     78       POPC     C213     CTL2    -0.180000       12.0110           0
     10280 MEMB     78       POPC     H13R     HAL2     0.900000E-01   1.00800           0
     10281 MEMB     78       POPC     H13S     HAL2     0.900000E-01   1.00800           0
     10282 MEMB     78       POPC     C214     CTL2    -0.180000       12.0110           0
     10283 MEMB     78       POPC     H14R     HAL2     0.900000E-01   1.00800           0
     10284 MEMB     78       POPC     H14S     HAL2     0.900000E-01   1.00800           0
     10285 MEMB     78       POPC     C215     CTL2    -0.180000       12.0110           0
     10286 MEMB     78       POPC     H15R     HAL2     0.900000E-01   1.00800           0
     10287 MEMB     78       POPC     H15S     HAL2     0.900000E-01   1.00800           0
     10288 MEMB     78       POPC     C216     CTL2    -0.180000       12.0110           0
     10289 MEMB     78       POPC     H16R     HAL2     0.900000E-01   1.00800           0
     10290 MEMB     78       POPC     H16S     HAL2     0.900000E-01   1.00800           0
     10291 MEMB     78       POPC     C217     CTL2    -0.180000       12.0110           0
     10292 MEMB     78       POPC     H17R     HAL2     0.900000E-01   1.00800           0
     10293 MEMB     78       POPC     H17S     HAL2     0.900000E-01   1.00800           0
     10294 MEMB     78       POPC     C218     CTL3    -0.270000       12.0110           0
     10295 MEMB     78       POPC     H18R     HAL3     0.900000E-01   1.00800           0
     10296 MEMB     78       POPC     H18S     HAL3     0.900000E-01   1.00800           0
     10297 MEMB     78       POPC     H18T     HAL3     0.900000E-01   1.00800           0
     10298 MEMB     78       POPC     C33      CTL2    -0.180000       12.0110           0
     10299 MEMB     78       POPC     H3X      HAL2     0.900000E-01   1.00800           0
     10300 MEMB     78       POPC     H3Y      HAL2     0.900000E-01   1.00800           0
     10301 MEMB     78       POPC     C34      CTL2    -0.180000       12.0110           0
     10302 MEMB     78       POPC     H4X      HAL2     0.900000E-01   1.00800           0
     10303 MEMB     78       POPC     H4Y      HAL2     0.900000E-01   1.00800           0
     10304 MEMB     78       POPC     C35      CTL2    -0.180000       12.0110           0
     10305 MEMB     78       POPC     H5X      HAL2     0.900000E-01   1.00800           0
     10306 MEMB     78       POPC     H5Y      HAL2     0.900000E-01   1.00800           0
     10307 MEMB     78       POPC     C36      CTL2    -0.180000       12.0110           0
     10308 MEMB     78       POPC     H6X      HAL2     0.900000E-01   1.00800           0
     10309 MEMB     78       POPC     H6Y      HAL2     0.900000E-01   1.00800           0
     10310 MEMB     78       POPC     C37      CTL2    -0.180000       12.0110           0
     10311 MEMB     78       POPC     H7X      HAL2     0.900000E-01   1.00800           0
     10312 MEMB     78       POPC     H7Y      HAL2     0.900000E-01   1.00800           0
     10313 MEMB     78       POPC     C38      CTL2    -0.180000       12.0110           0
     10314 MEMB     78       POPC     H8X      HAL2     0.900000E-01   1.00800           0
     10315 MEMB     78       POPC     H8Y      HAL2     0.900000E-01   1.00800           0
     10316 MEMB     78       POPC     C39      CTL2    -0.180000       12.0110           0
     10317 MEMB     78       POPC     H9X      HAL2     0.900000E-01   1.00800           0
     10318 MEMB     78       POPC     H9Y      HAL2     0.900000E-01   1.00800           0
     10319 MEMB     78       POPC     C310     CTL2    -0.180000       12.0110           0
     10320 MEMB     78       POPC     H10X     HAL2     0.900000E-01   1.00800           0
     10321 MEMB     78       POPC     H10Y     HAL2     0.900000E-01   1.00800           0
     10322 MEMB     78       POPC     C311     CTL2    -0.180000       12.0110           0
     10323 MEMB     78       POPC     H11X     HAL2     0.900000E-01   1.00800           0
     10324 MEMB     78       POPC     H11Y     HAL2     0.900000E-01   1.00800           0
     10325 MEMB     78       POPC     C312     CTL2    -0.180000       12.0110           0
     10326 MEMB     78       POPC     H12X     HAL2     0.900000E-01   1.00800           0
     10327 MEMB     78       POPC     H12Y     HAL2     0.900000E-01   1.00800           0
     10328 MEMB     78       POPC     C313     CTL2    -0.180000       12.0110           0
     10329 MEMB     78       POPC     H13X     HAL2     0.900000E-01   1.00800           0
     10330 MEMB     78       POPC     H13Y     HAL2     0.900000E-01   1.00800           0
     10331 MEMB     78       POPC     C314     CTL2    -0.180000       12.0110           0
     10332 MEMB     78       POPC     H14X     HAL2     0.900000E-01   1.00800           0
     10333 MEMB     78       POPC     H14Y     HAL2     0.900000E-01   1.00800           0
     10334 MEMB     78       POPC     C315     CTL2    -0.180000       12.0110           0
     10335 MEMB     78       POPC     H15X     HAL2     0.900000E-01   1.00800           0
     10336 MEMB     78       POPC     H15Y     HAL2     0.900000E-01   1.00800           0
     10337 MEMB     78       POPC     C316     CTL3    -0.270000       12.0110           0
     10338 MEMB     78       POPC     H16X     HAL3     0.900000E-01   1.00800           0
     10339 MEMB     78       POPC     H16Y     HAL3     0.900000E-01   1.00800           0
     10340 MEMB     78       POPC     H16Z     HAL3     0.900000E-01   1.00800           0
     10341 MEMB     79       POPC     N        NTL     -0.600000       14.0070           0
     10342 MEMB     79       POPC     C12      CTL2    -0.100000       12.0110           0
     10343 MEMB     79       POPC     H12A     HL       0.250000       1.00800           0
     10344 MEMB     79       POPC     H12B     HL       0.250000       1.00800           0
     10345 MEMB     79       POPC     C13      CTL5    -0.350000       12.0110           0
     10346 MEMB     79       POPC     H13A     HL       0.250000       1.00800           0
     10347 MEMB     79       POPC     H13B     HL       0.250000       1.00800           0
     10348 MEMB     79       POPC     H13C     HL       0.250000       1.00800           0
     10349 MEMB     79       POPC     C14      CTL5    -0.350000       12.0110           0
     10350 MEMB     79       POPC     H14A     HL       0.250000       1.00800           0
     10351 MEMB     79       POPC     H14B     HL       0.250000       1.00800           0
     10352 MEMB     79       POPC     H14C     HL       0.250000       1.00800           0
     10353 MEMB     79       POPC     C15      CTL5    -0.350000       12.0110           0
     10354 MEMB     79       POPC     H15A     HL       0.250000       1.00800           0
     10355 MEMB     79       POPC     H15B     HL       0.250000       1.00800           0
     10356 MEMB     79       POPC     H15C     HL       0.250000       1.00800           0
     10357 MEMB     79       POPC     C11      CTL2    -0.800000E-01   12.0110           0
     10358 MEMB     79       POPC     H11A     HAL2     0.900000E-01   1.00800           0
     10359 MEMB     79       POPC     H11B     HAL2     0.900000E-01   1.00800           0
     10360 MEMB     79       POPC     P        PL        1.50000       30.9740           0
     10361 MEMB     79       POPC     O13      O2L     -0.780000       15.9994           0
     10362 MEMB     79       POPC     O14      O2L     -0.780000       15.9994           0
     10363 MEMB     79       POPC     O12      OSLP    -0.570000       15.9994           0
     10364 MEMB     79       POPC     O11      OSLP    -0.570000       15.9994           0
     10365 MEMB     79       POPC     C1       CTL2    -0.800000E-01   12.0110           0
     10366 MEMB     79       POPC     HA       HAL2     0.900000E-01   1.00800           0
     10367 MEMB     79       POPC     HB       HAL2     0.900000E-01   1.00800           0
     10368 MEMB     79       POPC     C2       CTL1     0.170000       12.0110           0
     10369 MEMB     79       POPC     HS       HAL1     0.900000E-01   1.00800           0
     10370 MEMB     79       POPC     O21      OSL     -0.490000       15.9994           0
     10371 MEMB     79       POPC     C21      CL       0.900000       12.0110           0
     10372 MEMB     79       POPC     O22      OBL     -0.630000       15.9994           0
     10373 MEMB     79       POPC     C22      CTL2    -0.220000       12.0110           0
     10374 MEMB     79       POPC     H2R      HAL2     0.900000E-01   1.00800           0
     10375 MEMB     79       POPC     H2S      HAL2     0.900000E-01   1.00800           0
     10376 MEMB     79       POPC     C3       CTL2     0.800000E-01   12.0110           0
     10377 MEMB     79       POPC     HX       HAL2     0.900000E-01   1.00800           0
     10378 MEMB     79       POPC     HY       HAL2     0.900000E-01   1.00800           0
     10379 MEMB     79       POPC     O31      OSL     -0.490000       15.9994           0
     10380 MEMB     79       POPC     C31      CL       0.900000       12.0110           0
     10381 MEMB     79       POPC     O32      OBL     -0.630000       15.9994           0
     10382 MEMB     79       POPC     C32      CTL2    -0.220000       12.0110           0
     10383 MEMB     79       POPC     H2X      HAL2     0.900000E-01   1.00800           0
     10384 MEMB     79       POPC     H2Y      HAL2     0.900000E-01   1.00800           0
     10385 MEMB     79       POPC     C23      CTL2    -0.180000       12.0110           0
     10386 MEMB     79       POPC     H3R      HAL2     0.900000E-01   1.00800           0
     10387 MEMB     79       POPC     H3S      HAL2     0.900000E-01   1.00800           0
     10388 MEMB     79       POPC     C24      CTL2    -0.180000       12.0110           0
     10389 MEMB     79       POPC     H4R      HAL2     0.900000E-01   1.00800           0
     10390 MEMB     79       POPC     H4S      HAL2     0.900000E-01   1.00800           0
     10391 MEMB     79       POPC     C25      CTL2    -0.180000       12.0110           0
     10392 MEMB     79       POPC     H5R      HAL2     0.900000E-01   1.00800           0
     10393 MEMB     79       POPC     H5S      HAL2     0.900000E-01   1.00800           0
     10394 MEMB     79       POPC     C26      CTL2    -0.180000       12.0110           0
     10395 MEMB     79       POPC     H6R      HAL2     0.900000E-01   1.00800           0
     10396 MEMB     79       POPC     H6S      HAL2     0.900000E-01   1.00800           0
     10397 MEMB     79       POPC     C27      CTL2    -0.180000       12.0110           0
     10398 MEMB     79       POPC     H7R      HAL2     0.900000E-01   1.00800           0
     10399 MEMB     79       POPC     H7S      HAL2     0.900000E-01   1.00800           0
     10400 MEMB     79       POPC     C28      CTL2    -0.180000       12.0110           0
     10401 MEMB     79       POPC     H8R      HAL2     0.900000E-01   1.00800           0
     10402 MEMB     79       POPC     H8S      HAL2     0.900000E-01   1.00800           0
     10403 MEMB     79       POPC     C29      CEL1    -0.150000       12.0110           0
     10404 MEMB     79       POPC     H91      HEL1     0.150000       1.00800           0
     10405 MEMB     79       POPC     C210     CEL1    -0.150000       12.0110           0
     10406 MEMB     79       POPC     H101     HEL1     0.150000       1.00800           0
     10407 MEMB     79       POPC     C211     CTL2    -0.180000       12.0110           0
     10408 MEMB     79       POPC     H11R     HAL2     0.900000E-01   1.00800           0
     10409 MEMB     79       POPC     H11S     HAL2     0.900000E-01   1.00800           0
     10410 MEMB     79       POPC     C212     CTL2    -0.180000       12.0110           0
     10411 MEMB     79       POPC     H12R     HAL2     0.900000E-01   1.00800           0
     10412 MEMB     79       POPC     H12S     HAL2     0.900000E-01   1.00800           0
     10413 MEMB     79       POPC     C213     CTL2    -0.180000       12.0110           0
     10414 MEMB     79       POPC     H13R     HAL2     0.900000E-01   1.00800           0
     10415 MEMB     79       POPC     H13S     HAL2     0.900000E-01   1.00800           0
     10416 MEMB     79       POPC     C214     CTL2    -0.180000       12.0110           0
     10417 MEMB     79       POPC     H14R     HAL2     0.900000E-01   1.00800           0
     10418 MEMB     79       POPC     H14S     HAL2     0.900000E-01   1.00800           0
     10419 MEMB     79       POPC     C215     CTL2    -0.180000       12.0110           0
     10420 MEMB     79       POPC     H15R     HAL2     0.900000E-01   1.00800           0
     10421 MEMB     79       POPC     H15S     HAL2     0.900000E-01   1.00800           0
     10422 MEMB     79       POPC     C216     CTL2    -0.180000       12.0110           0
     10423 MEMB     79       POPC     H16R     HAL2     0.900000E-01   1.00800           0
     10424 MEMB     79       POPC     H16S     HAL2     0.900000E-01   1.00800           0
     10425 MEMB     79       POPC     C217     CTL2    -0.180000       12.0110           0
     10426 MEMB     79       POPC     H17R     HAL2     0.900000E-01   1.00800           0
     10427 MEMB     79       POPC     H17S     HAL2     0.900000E-01   1.00800           0
     10428 MEMB     79       POPC     C218     CTL3    -0.270000       12.0110           0
     10429 MEMB     79       POPC     H18R     HAL3     0.900000E-01   1.00800           0
     10430 MEMB     79       POPC     H18S     HAL3     0.900000E-01   1.00800           0
     10431 MEMB     79       POPC     H18T     HAL3     0.900000E-01   1.00800           0
     10432 MEMB     79       POPC     C33      CTL2    -0.180000       12.0110           0
     10433 MEMB     79       POPC     H3X      HAL2     0.900000E-01   1.00800           0
     10434 MEMB     79       POPC     H3Y      HAL2     0.900000E-01   1.00800           0
     10435 MEMB     79       POPC     C34      CTL2    -0.180000       12.0110           0
     10436 MEMB     79       POPC     H4X      HAL2     0.900000E-01   1.00800           0
     10437 MEMB     79       POPC     H4Y      HAL2     0.900000E-01   1.00800           0
     10438 MEMB     79       POPC     C35      CTL2    -0.180000       12.0110           0
     10439 MEMB     79       POPC     H5X      HAL2     0.900000E-01   1.00800           0
     10440 MEMB     79       POPC     H5Y      HAL2     0.900000E-01   1.00800           0
     10441 MEMB     79       POPC     C36      CTL2    -0.180000       12.0110           0
     10442 MEMB     79       POPC     H6X      HAL2     0.900000E-01   1.00800           0
     10443 MEMB     79       POPC     H6Y      HAL2     0.900000E-01   1.00800           0
     10444 MEMB     79       POPC     C37      CTL2    -0.180000       12.0110           0
     10445 MEMB     79       POPC     H7X      HAL2     0.900000E-01   1.00800           0
     10446 MEMB     79       POPC     H7Y      HAL2     0.900000E-01   1.00800           0
     10447 MEMB     79       POPC     C38      CTL2    -0.180000       12.0110           0
     10448 MEMB     79       POPC     H8X      HAL2     0.900000E-01   1.00800           0
     10449 MEMB     79       POPC     H8Y      HAL2     0.900000E-01   1.00800           0
     10450 MEMB     79       POPC     C39      CTL2    -0.180000       12.0110           0
     10451 MEMB     79       POPC     H9X      HAL2     0.900000E-01   1.00800           0
     10452 MEMB     79       POPC     H9Y      HAL2     0.900000E-01   1.00800           0
     10453 MEMB     79       POPC     C310     CTL2    -0.180000       12.0110           0
     10454 MEMB     79       POPC     H10X     HAL2     0.900000E-01   1.00800           0
     10455 MEMB     79       POPC     H10Y     HAL2     0.900000E-01   1.00800           0
     10456 MEMB     79       POPC     C311     CTL2    -0.180000       12.0110           0
     10457 MEMB     79       POPC     H11X     HAL2     0.900000E-01   1.00800           0
     10458 MEMB     79       POPC     H11Y     HAL2     0.900000E-01   1.00800           0
     10459 MEMB     79       POPC     C312     CTL2    -0.180000       12.0110           0
     10460 MEMB     79       POPC     H12X     HAL2     0.900000E-01   1.00800           0
     10461 MEMB     79       POPC     H12Y     HAL2     0.900000E-01   1.00800           0
     10462 MEMB     79       POPC     C313     CTL2    -0.180000       12.0110           0
     10463 MEMB     79       POPC     H13X     HAL2     0.900000E-01   1.00800           0
     10464 MEMB     79       POPC     H13Y     HAL2     0.900000E-01   1.00800           0
     10465 MEMB     79       POPC     C314     CTL2    -0.180000       12.0110           0
     10466 MEMB     79       POPC     H14X     HAL2     0.900000E-01   1.00800           0
     10467 MEMB     79       POPC     H14Y     HAL2     0.900000E-01   1.00800           0
     10468 MEMB     79       POPC     C315     CTL2    -0.180000       12.0110           0
     10469 MEMB     79       POPC     H15X     HAL2     0.900000E-01   1.00800           0
     10470 MEMB     79       POPC     H15Y     HAL2     0.900000E-01   1.00800           0
     10471 MEMB     79       POPC     C316     CTL3    -0.270000       12.0110           0
     10472 MEMB     79       POPC     H16X     HAL3     0.900000E-01   1.00800           0
     10473 MEMB     79       POPC     H16Y     HAL3     0.900000E-01   1.00800           0
     10474 MEMB     79       POPC     H16Z     HAL3     0.900000E-01   1.00800           0
     10475 MEMB     80       POPS     N        NH3L    -0.300000       14.0070           0
     10476 MEMB     80       POPS     HN1      HCL      0.330000       1.00800           0
     10477 MEMB     80       POPS     HN2      HCL      0.330000       1.00800           0
     10478 MEMB     80       POPS     HN3      HCL      0.330000       1.00800           0
     10479 MEMB     80       POPS     C12      CTL1     0.210000       12.0110           0
     10480 MEMB     80       POPS     H12A     HBL      0.100000       1.00800           0
     10481 MEMB     80       POPS     C13      CCL      0.340000       12.0110           0
     10482 MEMB     80       POPS     O13A     OCL     -0.670000       15.9994           0
     10483 MEMB     80       POPS     O13B     OCL     -0.670000       15.9994           0
     10484 MEMB     80       POPS     C11      CTL2    -0.800000E-01   12.0110           0
     10485 MEMB     80       POPS     H11A     HAL2     0.900000E-01   1.00800           0
     10486 MEMB     80       POPS     H11B     HAL2     0.900000E-01   1.00800           0
     10487 MEMB     80       POPS     P        PL        1.50000       30.9740           0
     10488 MEMB     80       POPS     O13      O2L     -0.780000       15.9994           0
     10489 MEMB     80       POPS     O14      O2L     -0.780000       15.9994           0
     10490 MEMB     80       POPS     O12      OSLP    -0.570000       15.9994           0
     10491 MEMB     80       POPS     O11      OSLP    -0.570000       15.9994           0
     10492 MEMB     80       POPS     C1       CTL2    -0.800000E-01   12.0110           0
     10493 MEMB     80       POPS     HA       HAL2     0.900000E-01   1.00800           0
     10494 MEMB     80       POPS     HB       HAL2     0.900000E-01   1.00800           0
     10495 MEMB     80       POPS     C2       CTL1     0.170000       12.0110           0
     10496 MEMB     80       POPS     HS       HAL1     0.900000E-01   1.00800           0
     10497 MEMB     80       POPS     O21      OSL     -0.490000       15.9994           0
     10498 MEMB     80       POPS     C21      CL       0.900000       12.0110           0
     10499 MEMB     80       POPS     O22      OBL     -0.630000       15.9994           0
     10500 MEMB     80       POPS     C22      CTL2    -0.220000       12.0110           0
     10501 MEMB     80       POPS     H2R      HAL2     0.900000E-01   1.00800           0
     10502 MEMB     80       POPS     H2S      HAL2     0.900000E-01   1.00800           0
     10503 MEMB     80       POPS     C3       CTL2     0.800000E-01   12.0110           0
     10504 MEMB     80       POPS     HX       HAL2     0.900000E-01   1.00800           0
     10505 MEMB     80       POPS     HY       HAL2     0.900000E-01   1.00800           0
     10506 MEMB     80       POPS     O31      OSL     -0.490000       15.9994           0
     10507 MEMB     80       POPS     C31      CL       0.900000       12.0110           0
     10508 MEMB     80       POPS     O32      OBL     -0.630000       15.9994           0
     10509 MEMB     80       POPS     C32      CTL2    -0.220000       12.0110           0
     10510 MEMB     80       POPS     H2X      HAL2     0.900000E-01   1.00800           0
     10511 MEMB     80       POPS     H2Y      HAL2     0.900000E-01   1.00800           0
     10512 MEMB     80       POPS     C23      CTL2    -0.180000       12.0110           0
     10513 MEMB     80       POPS     H3R      HAL2     0.900000E-01   1.00800           0
     10514 MEMB     80       POPS     H3S      HAL2     0.900000E-01   1.00800           0
     10515 MEMB     80       POPS     C24      CTL2    -0.180000       12.0110           0
     10516 MEMB     80       POPS     H4R      HAL2     0.900000E-01   1.00800           0
     10517 MEMB     80       POPS     H4S      HAL2     0.900000E-01   1.00800           0
     10518 MEMB     80       POPS     C25      CTL2    -0.180000       12.0110           0
     10519 MEMB     80       POPS     H5R      HAL2     0.900000E-01   1.00800           0
     10520 MEMB     80       POPS     H5S      HAL2     0.900000E-01   1.00800           0
     10521 MEMB     80       POPS     C26      CTL2    -0.180000       12.0110           0
     10522 MEMB     80       POPS     H6R      HAL2     0.900000E-01   1.00800           0
     10523 MEMB     80       POPS     H6S      HAL2     0.900000E-01   1.00800           0
     10524 MEMB     80       POPS     C27      CTL2    -0.180000       12.0110           0
     10525 MEMB     80       POPS     H7R      HAL2     0.900000E-01   1.00800           0
     10526 MEMB     80       POPS     H7S      HAL2     0.900000E-01   1.00800           0
     10527 MEMB     80       POPS     C28      CTL2    -0.180000       12.0110           0
     10528 MEMB     80       POPS     H8R      HAL2     0.900000E-01   1.00800           0
     10529 MEMB     80       POPS     H8S      HAL2     0.900000E-01   1.00800           0
     10530 MEMB     80       POPS     C29      CEL1    -0.150000       12.0110           0
     10531 MEMB     80       POPS     H91      HEL1     0.150000       1.00800           0
     10532 MEMB     80       POPS     C210     CEL1    -0.150000       12.0110           0
     10533 MEMB     80       POPS     H101     HEL1     0.150000       1.00800           0
     10534 MEMB     80       POPS     C211     CTL2    -0.180000       12.0110           0
     10535 MEMB     80       POPS     H11R     HAL2     0.900000E-01   1.00800           0
     10536 MEMB     80       POPS     H11S     HAL2     0.900000E-01   1.00800           0
     10537 MEMB     80       POPS     C212     CTL2    -0.180000       12.0110           0
     10538 MEMB     80       POPS     H12R     HAL2     0.900000E-01   1.00800           0
     10539 MEMB     80       POPS     H12S     HAL2     0.900000E-01   1.00800           0
     10540 MEMB     80       POPS     C213     CTL2    -0.180000       12.0110           0
     10541 MEMB     80       POPS     H13R     HAL2     0.900000E-01   1.00800           0
     10542 MEMB     80       POPS     H13S     HAL2     0.900000E-01   1.00800           0
     10543 MEMB     80       POPS     C214     CTL2    -0.180000       12.0110           0
     10544 MEMB     80       POPS     H14R     HAL2     0.900000E-01   1.00800           0
     10545 MEMB     80       POPS     H14S     HAL2     0.900000E-01   1.00800           0
     10546 MEMB     80       POPS     C215     CTL2    -0.180000       12.0110           0
     10547 MEMB     80       POPS     H15R     HAL2     0.900000E-01   1.00800           0
     10548 MEMB     80       POPS     H15S     HAL2     0.900000E-01   1.00800           0
     10549 MEMB     80       POPS     C216     CTL2    -0.180000       12.0110           0
     10550 MEMB     80       POPS     H16R     HAL2     0.900000E-01   1.00800           0
     10551 MEMB     80       POPS     H16S     HAL2     0.900000E-01   1.00800           0
     10552 MEMB     80       POPS     C217     CTL2    -0.180000       12.0110           0
     10553 MEMB     80       POPS     H17R     HAL2     0.900000E-01   1.00800           0
     10554 MEMB     80       POPS     H17S     HAL2     0.900000E-01   1.00800           0
     10555 MEMB     80       POPS     C218     CTL3    -0.270000       12.0110           0
     10556 MEMB     80       POPS     H18R     HAL3     0.900000E-01   1.00800           0
     10557 MEMB     80       POPS     H18S     HAL3     0.900000E-01   1.00800           0
     10558 MEMB     80       POPS     H18T     HAL3     0.900000E-01   1.00800           0
     10559 MEMB     80       POPS     C33      CTL2    -0.180000       12.0110           0
     10560 MEMB     80       POPS     H3X      HAL2     0.900000E-01   1.00800           0
     10561 MEMB     80       POPS     H3Y      HAL2     0.900000E-01   1.00800           0
     10562 MEMB     80       POPS     C34      CTL2    -0.180000       12.0110           0
     10563 MEMB     80       POPS     H4X      HAL2     0.900000E-01   1.00800           0
     10564 MEMB     80       POPS     H4Y      HAL2     0.900000E-01   1.00800           0
     10565 MEMB     80       POPS     C35      CTL2    -0.180000       12.0110           0
     10566 MEMB     80       POPS     H5X      HAL2     0.900000E-01   1.00800           0
     10567 MEMB     80       POPS     H5Y      HAL2     0.900000E-01   1.00800           0
     10568 MEMB     80       POPS     C36      CTL2    -0.180000       12.0110           0
     10569 MEMB     80       POPS     H6X      HAL2     0.900000E-01   1.00800           0
     10570 MEMB     80       POPS     H6Y      HAL2     0.900000E-01   1.00800           0
     10571 MEMB     80       POPS     C37      CTL2    -0.180000       12.0110           0
     10572 MEMB     80       POPS     H7X      HAL2     0.900000E-01   1.00800           0
     10573 MEMB     80       POPS     H7Y      HAL2     0.900000E-01   1.00800           0
     10574 MEMB     80       POPS     C38      CTL2    -0.180000       12.0110           0
     10575 MEMB     80       POPS     H8X      HAL2     0.900000E-01   1.00800           0
     10576 MEMB     80       POPS     H8Y      HAL2     0.900000E-01   1.00800           0
     10577 MEMB     80       POPS     C39      CTL2    -0.180000       12.0110           0
     10578 MEMB     80       POPS     H9X      HAL2     0.900000E-01   1.00800           0
     10579 MEMB     80       POPS     H9Y      HAL2     0.900000E-01   1.00800           0
     10580 MEMB     80       POPS     C310     CTL2    -0.180000       12.0110           0
     10581 MEMB     80       POPS     H10X     HAL2     0.900000E-01   1.00800           0
     10582 MEMB     80       POPS     H10Y     HAL2     0.900000E-01   1.00800           0
     10583 MEMB     80       POPS     C311     CTL2    -0.180000       12.0110           0
     10584 MEMB     80       POPS     H11X     HAL2     0.900000E-01   1.00800           0
     10585 MEMB     80       POPS     H11Y     HAL2     0.900000E-01   1.00800           0
     10586 MEMB     80       POPS     C312     CTL2    -0.180000       12.0110           0
     10587 MEMB     80       POPS     H12X     HAL2     0.900000E-01   1.00800           0
     10588 MEMB     80       POPS     H12Y     HAL2     0.900000E-01   1.00800           0
     10589 MEMB     80       POPS     C313     CTL2    -0.180000       12.0110           0
     10590 MEMB     80       POPS     H13X     HAL2     0.900000E-01   1.00800           0
     10591 MEMB     80       POPS     H13Y     HAL2     0.900000E-01   1.00800           0
     10592 MEMB     80       POPS     C314     CTL2    -0.180000       12.0110           0
     10593 MEMB     80       POPS     H14X     HAL2     0.900000E-01   1.00800           0
     10594 MEMB     80       POPS     H14Y     HAL2     0.900000E-01   1.00800           0
     10595 MEMB     80       POPS     C315     CTL2    -0.180000       12.0110           0
     10596 MEMB     80       POPS     H15X     HAL2     0.900000E-01   1.00800           0
     10597 MEMB     80       POPS     H15Y     HAL2     0.900000E-01   1.00800           0
     10598 MEMB     80       POPS     C316     CTL3    -0.270000       12.0110           0
     10599 MEMB     80       POPS     H16X     HAL3     0.900000E-01   1.00800           0
     10600 MEMB     80       POPS     H16Y     HAL3     0.900000E-01   1.00800           0
     10601 MEMB     80       POPS     H16Z     HAL3     0.900000E-01   1.00800           0
     10602 MEMB     81       POPS     N        NH3L    -0.300000       14.0070           0
     10603 MEMB     81       POPS     HN1      HCL      0.330000       1.00800           0
     10604 MEMB     81       POPS     HN2      HCL      0.330000       1.00800           0
     10605 MEMB     81       POPS     HN3      HCL      0.330000       1.00800           0
     10606 MEMB     81       POPS     C12      CTL1     0.210000       12.0110           0
     10607 MEMB     81       POPS     H12A     HBL      0.100000       1.00800           0
     10608 MEMB     81       POPS     C13      CCL      0.340000       12.0110           0
     10609 MEMB     81       POPS     O13A     OCL     -0.670000       15.9994           0
     10610 MEMB     81       POPS     O13B     OCL     -0.670000       15.9994           0
     10611 MEMB     81       POPS     C11      CTL2    -0.800000E-01   12.0110           0
     10612 MEMB     81       POPS     H11A     HAL2     0.900000E-01   1.00800           0
     10613 MEMB     81       POPS     H11B     HAL2     0.900000E-01   1.00800           0
     10614 MEMB     81       POPS     P        PL        1.50000       30.9740           0
     10615 MEMB     81       POPS     O13      O2L     -0.780000       15.9994           0
     10616 MEMB     81       POPS     O14      O2L     -0.780000       15.9994           0
     10617 MEMB     81       POPS     O12      OSLP    -0.570000       15.9994           0
     10618 MEMB     81       POPS     O11      OSLP    -0.570000       15.9994           0
     10619 MEMB     81       POPS     C1       CTL2    -0.800000E-01   12.0110           0
     10620 MEMB     81       POPS     HA       HAL2     0.900000E-01   1.00800           0
     10621 MEMB     81       POPS     HB       HAL2     0.900000E-01   1.00800           0
     10622 MEMB     81       POPS     C2       CTL1     0.170000       12.0110           0
     10623 MEMB     81       POPS     HS       HAL1     0.900000E-01   1.00800           0
     10624 MEMB     81       POPS     O21      OSL     -0.490000       15.9994           0
     10625 MEMB     81       POPS     C21      CL       0.900000       12.0110           0
     10626 MEMB     81       POPS     O22      OBL     -0.630000       15.9994           0
     10627 MEMB     81       POPS     C22      CTL2    -0.220000       12.0110           0
     10628 MEMB     81       POPS     H2R      HAL2     0.900000E-01   1.00800           0
     10629 MEMB     81       POPS     H2S      HAL2     0.900000E-01   1.00800           0
     10630 MEMB     81       POPS     C3       CTL2     0.800000E-01   12.0110           0
     10631 MEMB     81       POPS     HX       HAL2     0.900000E-01   1.00800           0
     10632 MEMB     81       POPS     HY       HAL2     0.900000E-01   1.00800           0
     10633 MEMB     81       POPS     O31      OSL     -0.490000       15.9994           0
     10634 MEMB     81       POPS     C31      CL       0.900000       12.0110           0
     10635 MEMB     81       POPS     O32      OBL     -0.630000       15.9994           0
     10636 MEMB     81       POPS     C32      CTL2    -0.220000       12.0110           0
     10637 MEMB     81       POPS     H2X      HAL2     0.900000E-01   1.00800           0
     10638 MEMB     81       POPS     H2Y      HAL2     0.900000E-01   1.00800           0
     10639 MEMB     81       POPS     C23      CTL2    -0.180000       12.0110           0
     10640 MEMB     81       POPS     H3R      HAL2     0.900000E-01   1.00800           0
     10641 MEMB     81       POPS     H3S      HAL2     0.900000E-01   1.00800           0
     10642 MEMB     81       POPS     C24      CTL2    -0.180000       12.0110           0
     10643 MEMB     81       POPS     H4R      HAL2     0.900000E-01   1.00800           0
     10644 MEMB     81       POPS     H4S      HAL2     0.900000E-01   1.00800           0
     10645 MEMB     81       POPS     C25      CTL2    -0.180000       12.0110           0
     10646 MEMB     81       POPS     H5R      HAL2     0.900000E-01   1.00800           0
     10647 MEMB     81       POPS     H5S      HAL2     0.900000E-01   1.00800           0
     10648 MEMB     81       POPS     C26      CTL2    -0.180000       12.0110           0
     10649 MEMB     81       POPS     H6R      HAL2     0.900000E-01   1.00800           0
     10650 MEMB     81       POPS     H6S      HAL2     0.900000E-01   1.00800           0
     10651 MEMB     81       POPS     C27      CTL2    -0.180000       12.0110           0
     10652 MEMB     81       POPS     H7R      HAL2     0.900000E-01   1.00800           0
     10653 MEMB     81       POPS     H7S      HAL2     0.900000E-01   1.00800           0
     10654 MEMB     81       POPS     C28      CTL2    -0.180000       12.0110           0
     10655 MEMB     81       POPS     H8R      HAL2     0.900000E-01   1.00800           0
     10656 MEMB     81       POPS     H8S      HAL2     0.900000E-01   1.00800           0
     10657 MEMB     81       POPS     C29      CEL1    -0.150000       12.0110           0
     10658 MEMB     81       POPS     H91      HEL1     0.150000       1.00800           0
     10659 MEMB     81       POPS     C210     CEL1    -0.150000       12.0110           0
     10660 MEMB     81       POPS     H101     HEL1     0.150000       1.00800           0
     10661 MEMB     81       POPS     C211     CTL2    -0.180000       12.0110           0
     10662 MEMB     81       POPS     H11R     HAL2     0.900000E-01   1.00800           0
     10663 MEMB     81       POPS     H11S     HAL2     0.900000E-01   1.00800           0
     10664 MEMB     81       POPS     C212     CTL2    -0.180000       12.0110           0
     10665 MEMB     81       POPS     H12R     HAL2     0.900000E-01   1.00800           0
     10666 MEMB     81       POPS     H12S     HAL2     0.900000E-01   1.00800           0
     10667 MEMB     81       POPS     C213     CTL2    -0.180000       12.0110           0
     10668 MEMB     81       POPS     H13R     HAL2     0.900000E-01   1.00800           0
     10669 MEMB     81       POPS     H13S     HAL2     0.900000E-01   1.00800           0
     10670 MEMB     81       POPS     C214     CTL2    -0.180000       12.0110           0
     10671 MEMB     81       POPS     H14R     HAL2     0.900000E-01   1.00800           0
     10672 MEMB     81       POPS     H14S     HAL2     0.900000E-01   1.00800           0
     10673 MEMB     81       POPS     C215     CTL2    -0.180000       12.0110           0
     10674 MEMB     81       POPS     H15R     HAL2     0.900000E-01   1.00800           0
     10675 MEMB     81       POPS     H15S     HAL2     0.900000E-01   1.00800           0
     10676 MEMB     81       POPS     C216     CTL2    -0.180000       12.0110           0
     10677 MEMB     81       POPS     H16R     HAL2     0.900000E-01   1.00800           0
     10678 MEMB     81       POPS     H16S     HAL2     0.900000E-01   1.00800           0
     10679 MEMB     81       POPS     C217     CTL2    -0.180000       12.0110           0
     10680 MEMB     81       POPS     H17R     HAL2     0.900000E-01   1.00800           0
     10681 MEMB     81       POPS     H17S     HAL2     0.900000E-01   1.00800           0
     10682 MEMB     81       POPS     C218     CTL3    -0.270000       12.0110           0
     10683 MEMB     81       POPS     H18R     HAL3     0.900000E-01   1.00800           0
     10684 MEMB     81       POPS     H18S     HAL3     0.900000E-01   1.00800           0
     10685 MEMB     81       POPS     H18T     HAL3     0.900000E-01   1.00800           0
     10686 MEMB     81       POPS     C33      CTL2    -0.180000       12.0110           0
     10687 MEMB     81       POPS     H3X      HAL2     0.900000E-01   1.00800           0
     10688 MEMB     81       POPS     H3Y      HAL2     0.900000E-01   1.00800           0
     10689 MEMB     81       POPS     C34      CTL2    -0.180000       12.0110           0
     10690 MEMB     81       POPS     H4X      HAL2     0.900000E-01   1.00800           0
     10691 MEMB     81       POPS     H4Y      HAL2     0.900000E-01   1.00800           0
     10692 MEMB     81       POPS     C35      CTL2    -0.180000       12.0110           0
     10693 MEMB     81       POPS     H5X      HAL2     0.900000E-01   1.00800           0
     10694 MEMB     81       POPS     H5Y      HAL2     0.900000E-01   1.00800           0
     10695 MEMB     81       POPS     C36      CTL2    -0.180000       12.0110           0
     10696 MEMB     81       POPS     H6X      HAL2     0.900000E-01   1.00800           0
     10697 MEMB     81       POPS     H6Y      HAL2     0.900000E-01   1.00800           0
     10698 MEMB     81       POPS     C37      CTL2    -0.180000       12.0110           0
     10699 MEMB     81       POPS     H7X      HAL2     0.900000E-01   1.00800           0
     10700 MEMB     81       POPS     H7Y      HAL2     0.900000E-01   1.00800           0
     10701 MEMB     81       POPS     C38      CTL2    -0.180000       12.0110           0
     10702 MEMB     81       POPS     H8X      HAL2     0.900000E-01   1.00800           0
     10703 MEMB     81       POPS     H8Y      HAL2     0.900000E-01   1.00800           0
     10704 MEMB     81       POPS     C39      CTL2    -0.180000       12.0110           0
     10705 MEMB     81       POPS     H9X      HAL2     0.900000E-01   1.00800           0
     10706 MEMB     81       POPS     H9Y      HAL2     0.900000E-01   1.00800           0
     10707 MEMB     81       POPS     C310     CTL2    -0.180000       12.0110           0
     10708 MEMB     81       POPS     H10X     HAL2     0.900000E-01   1.00800           0
     10709 MEMB     81       POPS     H10Y     HAL2     0.900000E-01   1.00800           0
     10710 MEMB     81       POPS     C311     CTL2    -0.180000       12.0110           0
     10711 MEMB     81       POPS     H11X     HAL2     0.900000E-01   1.00800           0
     10712 MEMB     81       POPS     H11Y     HAL2     0.900000E-01   1.00800           0
     10713 MEMB     81       POPS     C312     CTL2    -0.180000       12.0110           0
     10714 MEMB     81       POPS     H12X     HAL2     0.900000E-01   1.00800           0
     10715 MEMB     81       POPS     H12Y     HAL2     0.900000E-01   1.00800           0
     10716 MEMB     81       POPS     C313     CTL2    -0.180000       12.0110           0
     10717 MEMB     81       POPS     H13X     HAL2     0.900000E-01   1.00800           0
     10718 MEMB     81       POPS     H13Y     HAL2     0.900000E-01   1.00800           0
     10719 MEMB     81       POPS     C314     CTL2    -0.180000       12.0110           0
     10720 MEMB     81       POPS     H14X     HAL2     0.900000E-01   1.00800           0
     10721 MEMB     81       POPS     H14Y     HAL2     0.900000E-01   1.00800           0
     10722 MEMB     81       POPS     C315     CTL2    -0.180000       12.0110           0
     10723 MEMB     81       POPS     H15X     HAL2     0.900000E-01   1.00800           0
     10724 MEMB     81       POPS     H15Y     HAL2     0.900000E-01   1.00800           0
     10725 MEMB     81       POPS     C316     CTL3    -0.270000       12.0110           0
     10726 MEMB     81       POPS     H16X     HAL3     0.900000E-01   1.00800           0
     10727 MEMB     81       POPS     H16Y     HAL3     0.900000E-01   1.00800           0
     10728 MEMB     81       POPS     H16Z     HAL3     0.900000E-01   1.00800           0
     10729 MEMB     82       POPS     N        NH3L    -0.300000       14.0070           0
     10730 MEMB     82       POPS     HN1      HCL      0.330000       1.00800           0
     10731 MEMB     82       POPS     HN2      HCL      0.330000       1.00800           0
     10732 MEMB     82       POPS     HN3      HCL      0.330000       1.00800           0
     10733 MEMB     82       POPS     C12      CTL1     0.210000       12.0110           0
     10734 MEMB     82       POPS     H12A     HBL      0.100000       1.00800           0
     10735 MEMB     82       POPS     C13      CCL      0.340000       12.0110           0
     10736 MEMB     82       POPS     O13A     OCL     -0.670000       15.9994           0
     10737 MEMB     82       POPS     O13B     OCL     -0.670000       15.9994           0
     10738 MEMB     82       POPS     C11      CTL2    -0.800000E-01   12.0110           0
     10739 MEMB     82       POPS     H11A     HAL2     0.900000E-01   1.00800           0
     10740 MEMB     82       POPS     H11B     HAL2     0.900000E-01   1.00800           0
     10741 MEMB     82       POPS     P        PL        1.50000       30.9740           0
     10742 MEMB     82       POPS     O13      O2L     -0.780000       15.9994           0
     10743 MEMB     82       POPS     O14      O2L     -0.780000       15.9994           0
     10744 MEMB     82       POPS     O12      OSLP    -0.570000       15.9994           0
     10745 MEMB     82       POPS     O11      OSLP    -0.570000       15.9994           0
     10746 MEMB     82       POPS     C1       CTL2    -0.800000E-01   12.0110           0
     10747 MEMB     82       POPS     HA       HAL2     0.900000E-01   1.00800           0
     10748 MEMB     82       POPS     HB       HAL2     0.900000E-01   1.00800           0
     10749 MEMB     82       POPS     C2       CTL1     0.170000       12.0110           0
     10750 MEMB     82       POPS     HS       HAL1     0.900000E-01   1.00800           0
     10751 MEMB     82       POPS     O21      OSL     -0.490000       15.9994           0
     10752 MEMB     82       POPS     C21      CL       0.900000       12.0110           0
     10753 MEMB     82       POPS     O22      OBL     -0.630000       15.9994           0
     10754 MEMB     82       POPS     C22      CTL2    -0.220000       12.0110           0
     10755 MEMB     82       POPS     H2R      HAL2     0.900000E-01   1.00800           0
     10756 MEMB     82       POPS     H2S      HAL2     0.900000E-01   1.00800           0
     10757 MEMB     82       POPS     C3       CTL2     0.800000E-01   12.0110           0
     10758 MEMB     82       POPS     HX       HAL2     0.900000E-01   1.00800           0
     10759 MEMB     82       POPS     HY       HAL2     0.900000E-01   1.00800           0
     10760 MEMB     82       POPS     O31      OSL     -0.490000       15.9994           0
     10761 MEMB     82       POPS     C31      CL       0.900000       12.0110           0
     10762 MEMB     82       POPS     O32      OBL     -0.630000       15.9994           0
     10763 MEMB     82       POPS     C32      CTL2    -0.220000       12.0110           0
     10764 MEMB     82       POPS     H2X      HAL2     0.900000E-01   1.00800           0
     10765 MEMB     82       POPS     H2Y      HAL2     0.900000E-01   1.00800           0
     10766 MEMB     82       POPS     C23      CTL2    -0.180000       12.0110           0
     10767 MEMB     82       POPS     H3R      HAL2     0.900000E-01   1.00800           0
     10768 MEMB     82       POPS     H3S      HAL2     0.900000E-01   1.00800           0
     10769 MEMB     82       POPS     C24      CTL2    -0.180000       12.0110           0
     10770 MEMB     82       POPS     H4R      HAL2     0.900000E-01   1.00800           0
     10771 MEMB     82       POPS     H4S      HAL2     0.900000E-01   1.00800           0
     10772 MEMB     82       POPS     C25      CTL2    -0.180000       12.0110           0
     10773 MEMB     82       POPS     H5R      HAL2     0.900000E-01   1.00800           0
     10774 MEMB     82       POPS     H5S      HAL2     0.900000E-01   1.00800           0
     10775 MEMB     82       POPS     C26      CTL2    -0.180000       12.0110           0
     10776 MEMB     82       POPS     H6R      HAL2     0.900000E-01   1.00800           0
     10777 MEMB     82       POPS     H6S      HAL2     0.900000E-01   1.00800           0
     10778 MEMB     82       POPS     C27      CTL2    -0.180000       12.0110           0
     10779 MEMB     82       POPS     H7R      HAL2     0.900000E-01   1.00800           0
     10780 MEMB     82       POPS     H7S      HAL2     0.900000E-01   1.00800           0
     10781 MEMB     82       POPS     C28      CTL2    -0.180000       12.0110           0
     10782 MEMB     82       POPS     H8R      HAL2     0.900000E-01   1.00800           0
     10783 MEMB     82       POPS     H8S      HAL2     0.900000E-01   1.00800           0
     10784 MEMB     82       POPS     C29      CEL1    -0.150000       12.0110           0
     10785 MEMB     82       POPS     H91      HEL1     0.150000       1.00800           0
     10786 MEMB     82       POPS     C210     CEL1    -0.150000       12.0110           0
     10787 MEMB     82       POPS     H101     HEL1     0.150000       1.00800           0
     10788 MEMB     82       POPS     C211     CTL2    -0.180000       12.0110           0
     10789 MEMB     82       POPS     H11R     HAL2     0.900000E-01   1.00800           0
     10790 MEMB     82       POPS     H11S     HAL2     0.900000E-01   1.00800           0
     10791 MEMB     82       POPS     C212     CTL2    -0.180000       12.0110           0
     10792 MEMB     82       POPS     H12R     HAL2     0.900000E-01   1.00800           0
     10793 MEMB     82       POPS     H12S     HAL2     0.900000E-01   1.00800           0
     10794 MEMB     82       POPS     C213     CTL2    -0.180000       12.0110           0
     10795 MEMB     82       POPS     H13R     HAL2     0.900000E-01   1.00800           0
     10796 MEMB     82       POPS     H13S     HAL2     0.900000E-01   1.00800           0
     10797 MEMB     82       POPS     C214     CTL2    -0.180000       12.0110           0
     10798 MEMB     82       POPS     H14R     HAL2     0.900000E-01   1.00800           0
     10799 MEMB     82       POPS     H14S     HAL2     0.900000E-01   1.00800           0
     10800 MEMB     82       POPS     C215     CTL2    -0.180000       12.0110           0
     10801 MEMB     82       POPS     H15R     HAL2     0.900000E-01   1.00800           0
     10802 MEMB     82       POPS     H15S     HAL2     0.900000E-01   1.00800           0
     10803 MEMB     82       POPS     C216     CTL2    -0.180000       12.0110           0
     10804 MEMB     82       POPS     H16R     HAL2     0.900000E-01   1.00800           0
     10805 MEMB     82       POPS     H16S     HAL2     0.900000E-01   1.00800           0
     10806 MEMB     82       POPS     C217     CTL2    -0.180000       12.0110           0
     10807 MEMB     82       POPS     H17R     HAL2     0.900000E-01   1.00800           0
     10808 MEMB     82       POPS     H17S     HAL2     0.900000E-01   1.00800           0
     10809 MEMB     82       POPS     C218     CTL3    -0.270000       12.0110           0
     10810 MEMB     82       POPS     H18R     HAL3     0.900000E-01   1.00800           0
     10811 MEMB     82       POPS     H18S     HAL3     0.900000E-01   1.00800           0
     10812 MEMB     82       POPS     H18T     HAL3     0.900000E-01   1.00800           0
     10813 MEMB     82       POPS     C33      CTL2    -0.180000       12.0110           0
     10814 MEMB     82       POPS     H3X      HAL2     0.900000E-01   1.00800           0
     10815 MEMB     82       POPS     H3Y      HAL2     0.900000E-01   1.00800           0
     10816 MEMB     82       POPS     C34      CTL2    -0.180000       12.0110           0
     10817 MEMB     82       POPS     H4X      HAL2     0.900000E-01   1.00800           0
     10818 MEMB     82       POPS     H4Y      HAL2     0.900000E-01   1.00800           0
     10819 MEMB     82       POPS     C35      CTL2    -0.180000       12.0110           0
     10820 MEMB     82       POPS     H5X      HAL2     0.900000E-01   1.00800           0
     10821 MEMB     82       POPS     H5Y      HAL2     0.900000E-01   1.00800           0
     10822 MEMB     82       POPS     C36      CTL2    -0.180000       12.0110           0
     10823 MEMB     82       POPS     H6X      HAL2     0.900000E-01   1.00800           0
     10824 MEMB     82       POPS     H6Y      HAL2     0.900000E-01   1.00800           0
     10825 MEMB     82       POPS     C37      CTL2    -0.180000       12.0110           0
     10826 MEMB     82       POPS     H7X      HAL2     0.900000E-01   1.00800           0
     10827 MEMB     82       POPS     H7Y      HAL2     0.900000E-01   1.00800           0
     10828 MEMB     82       POPS     C38      CTL2    -0.180000       12.0110           0
     10829 MEMB     82       POPS     H8X      HAL2     0.900000E-01   1.00800           0
     10830 MEMB     82       POPS     H8Y      HAL2     0.900000E-01   1.00800           0
     10831 MEMB     82       POPS     C39      CTL2    -0.180000       12.0110           0
     10832 MEMB     82       POPS     H9X      HAL2     0.900000E-01   1.00800           0
     10833 MEMB     82       POPS     H9Y      HAL2     0.900000E-01   1.00800           0
     10834 MEMB     82       POPS     C310     CTL2    -0.180000       12.0110           0
     10835 MEMB     82       POPS     H10X     HAL2     0.900000E-01   1.00800           0
     10836 MEMB     82       POPS     H10Y     HAL2     0.900000E-01   1.00800           0
     10837 MEMB     82       POPS     C311     CTL2    -0.180000       12.0110           0
     10838 MEMB     82       POPS     H11X     HAL2     0.900000E-01   1.00800           0
     10839 MEMB     82       POPS     H11Y     HAL2     0.900000E-01   1.00800           0
     10840 MEMB     82       POPS     C312     CTL2    -0.180000       12.0110           0
     10841 MEMB     82       POPS     H12X     HAL2     0.900000E-01   1.00800           0
     10842 MEMB     82       POPS     H12Y     HAL2     0.900000E-01   1.00800           0
     10843 MEMB     82       POPS     C313     CTL2    -0.180000       12.0110           0
     10844 MEMB     82       POPS     H13X     HAL2     0.900000E-01   1.00800           0
     10845 MEMB     82       POPS     H13Y     HAL2     0.900000E-01   1.00800           0
     10846 MEMB     82       POPS     C314     CTL2    -0.180000       12.0110           0
     10847 MEMB     82       POPS     H14X     HAL2     0.900000E-01   1.00800           0
     10848 MEMB     82       POPS     H14Y     HAL2     0.900000E-01   1.00800           0
     10849 MEMB     82       POPS     C315     CTL2    -0.180000       12.0110           0
     10850 MEMB     82       POPS     H15X     HAL2     0.900000E-01   1.00800           0
     10851 MEMB     82       POPS     H15Y     HAL2     0.900000E-01   1.00800           0
     10852 MEMB     82       POPS     C316     CTL3    -0.270000       12.0110           0
     10853 MEMB     82       POPS     H16X     HAL3     0.900000E-01   1.00800           0
     10854 MEMB     82       POPS     H16Y     HAL3     0.900000E-01   1.00800           0
     10855 MEMB     82       POPS     H16Z     HAL3     0.900000E-01   1.00800           0
     10856 MEMB     83       POPC     N        NTL     -0.600000       14.0070           0
     10857 MEMB     83       POPC     C12      CTL2    -0.100000       12.0110           0
     10858 MEMB     83       POPC     H12A     HL       0.250000       1.00800           0
     10859 MEMB     83       POPC     H12B     HL       0.250000       1.00800           0
     10860 MEMB     83       POPC     C13      CTL5    -0.350000       12.0110           0
     10861 MEMB     83       POPC     H13A     HL       0.250000       1.00800           0
     10862 MEMB     83       POPC     H13B     HL       0.250000       1.00800           0
     10863 MEMB     83       POPC     H13C     HL       0.250000       1.00800           0
     10864 MEMB     83       POPC     C14      CTL5    -0.350000       12.0110           0
     10865 MEMB     83       POPC     H14A     HL       0.250000       1.00800           0
     10866 MEMB     83       POPC     H14B     HL       0.250000       1.00800           0
     10867 MEMB     83       POPC     H14C     HL       0.250000       1.00800           0
     10868 MEMB     83       POPC     C15      CTL5    -0.350000       12.0110           0
     10869 MEMB     83       POPC     H15A     HL       0.250000       1.00800           0
     10870 MEMB     83       POPC     H15B     HL       0.250000       1.00800           0
     10871 MEMB     83       POPC     H15C     HL       0.250000       1.00800           0
     10872 MEMB     83       POPC     C11      CTL2    -0.800000E-01   12.0110           0
     10873 MEMB     83       POPC     H11A     HAL2     0.900000E-01   1.00800           0
     10874 MEMB     83       POPC     H11B     HAL2     0.900000E-01   1.00800           0
     10875 MEMB     83       POPC     P        PL        1.50000       30.9740           0
     10876 MEMB     83       POPC     O13      O2L     -0.780000       15.9994           0
     10877 MEMB     83       POPC     O14      O2L     -0.780000       15.9994           0
     10878 MEMB     83       POPC     O12      OSLP    -0.570000       15.9994           0
     10879 MEMB     83       POPC     O11      OSLP    -0.570000       15.9994           0
     10880 MEMB     83       POPC     C1       CTL2    -0.800000E-01   12.0110           0
     10881 MEMB     83       POPC     HA       HAL2     0.900000E-01   1.00800           0
     10882 MEMB     83       POPC     HB       HAL2     0.900000E-01   1.00800           0
     10883 MEMB     83       POPC     C2       CTL1     0.170000       12.0110           0
     10884 MEMB     83       POPC     HS       HAL1     0.900000E-01   1.00800           0
     10885 MEMB     83       POPC     O21      OSL     -0.490000       15.9994           0
     10886 MEMB     83       POPC     C21      CL       0.900000       12.0110           0
     10887 MEMB     83       POPC     O22      OBL     -0.630000       15.9994           0
     10888 MEMB     83       POPC     C22      CTL2    -0.220000       12.0110           0
     10889 MEMB     83       POPC     H2R      HAL2     0.900000E-01   1.00800           0
     10890 MEMB     83       POPC     H2S      HAL2     0.900000E-01   1.00800           0
     10891 MEMB     83       POPC     C3       CTL2     0.800000E-01   12.0110           0
     10892 MEMB     83       POPC     HX       HAL2     0.900000E-01   1.00800           0
     10893 MEMB     83       POPC     HY       HAL2     0.900000E-01   1.00800           0
     10894 MEMB     83       POPC     O31      OSL     -0.490000       15.9994           0
     10895 MEMB     83       POPC     C31      CL       0.900000       12.0110           0
     10896 MEMB     83       POPC     O32      OBL     -0.630000       15.9994           0
     10897 MEMB     83       POPC     C32      CTL2    -0.220000       12.0110           0
     10898 MEMB     83       POPC     H2X      HAL2     0.900000E-01   1.00800           0
     10899 MEMB     83       POPC     H2Y      HAL2     0.900000E-01   1.00800           0
     10900 MEMB     83       POPC     C23      CTL2    -0.180000       12.0110           0
     10901 MEMB     83       POPC     H3R      HAL2     0.900000E-01   1.00800           0
     10902 MEMB     83       POPC     H3S      HAL2     0.900000E-01   1.00800           0
     10903 MEMB     83       POPC     C24      CTL2    -0.180000       12.0110           0
     10904 MEMB     83       POPC     H4R      HAL2     0.900000E-01   1.00800           0
     10905 MEMB     83       POPC     H4S      HAL2     0.900000E-01   1.00800           0
     10906 MEMB     83       POPC     C25      CTL2    -0.180000       12.0110           0
     10907 MEMB     83       POPC     H5R      HAL2     0.900000E-01   1.00800           0
     10908 MEMB     83       POPC     H5S      HAL2     0.900000E-01   1.00800           0
     10909 MEMB     83       POPC     C26      CTL2    -0.180000       12.0110           0
     10910 MEMB     83       POPC     H6R      HAL2     0.900000E-01   1.00800           0
     10911 MEMB     83       POPC     H6S      HAL2     0.900000E-01   1.00800           0
     10912 MEMB     83       POPC     C27      CTL2    -0.180000       12.0110           0
     10913 MEMB     83       POPC     H7R      HAL2     0.900000E-01   1.00800           0
     10914 MEMB     83       POPC     H7S      HAL2     0.900000E-01   1.00800           0
     10915 MEMB     83       POPC     C28      CTL2    -0.180000       12.0110           0
     10916 MEMB     83       POPC     H8R      HAL2     0.900000E-01   1.00800           0
     10917 MEMB     83       POPC     H8S      HAL2     0.900000E-01   1.00800           0
     10918 MEMB     83       POPC     C29      CEL1    -0.150000       12.0110           0
     10919 MEMB     83       POPC     H91      HEL1     0.150000       1.00800           0
     10920 MEMB     83       POPC     C210     CEL1    -0.150000       12.0110           0
     10921 MEMB     83       POPC     H101     HEL1     0.150000       1.00800           0
     10922 MEMB     83       POPC     C211     CTL2    -0.180000       12.0110           0
     10923 MEMB     83       POPC     H11R     HAL2     0.900000E-01   1.00800           0
     10924 MEMB     83       POPC     H11S     HAL2     0.900000E-01   1.00800           0
     10925 MEMB     83       POPC     C212     CTL2    -0.180000       12.0110           0
     10926 MEMB     83       POPC     H12R     HAL2     0.900000E-01   1.00800           0
     10927 MEMB     83       POPC     H12S     HAL2     0.900000E-01   1.00800           0
     10928 MEMB     83       POPC     C213     CTL2    -0.180000       12.0110           0
     10929 MEMB     83       POPC     H13R     HAL2     0.900000E-01   1.00800           0
     10930 MEMB     83       POPC     H13S     HAL2     0.900000E-01   1.00800           0
     10931 MEMB     83       POPC     C214     CTL2    -0.180000       12.0110           0
     10932 MEMB     83       POPC     H14R     HAL2     0.900000E-01   1.00800           0
     10933 MEMB     83       POPC     H14S     HAL2     0.900000E-01   1.00800           0
     10934 MEMB     83       POPC     C215     CTL2    -0.180000       12.0110           0
     10935 MEMB     83       POPC     H15R     HAL2     0.900000E-01   1.00800           0
     10936 MEMB     83       POPC     H15S     HAL2     0.900000E-01   1.00800           0
     10937 MEMB     83       POPC     C216     CTL2    -0.180000       12.0110           0
     10938 MEMB     83       POPC     H16R     HAL2     0.900000E-01   1.00800           0
     10939 MEMB     83       POPC     H16S     HAL2     0.900000E-01   1.00800           0
     10940 MEMB     83       POPC     C217     CTL2    -0.180000       12.0110           0
     10941 MEMB     83       POPC     H17R     HAL2     0.900000E-01   1.00800           0
     10942 MEMB     83       POPC     H17S     HAL2     0.900000E-01   1.00800           0
     10943 MEMB     83       POPC     C218     CTL3    -0.270000       12.0110           0
     10944 MEMB     83       POPC     H18R     HAL3     0.900000E-01   1.00800           0
     10945 MEMB     83       POPC     H18S     HAL3     0.900000E-01   1.00800           0
     10946 MEMB     83       POPC     H18T     HAL3     0.900000E-01   1.00800           0
     10947 MEMB     83       POPC     C33      CTL2    -0.180000       12.0110           0
     10948 MEMB     83       POPC     H3X      HAL2     0.900000E-01   1.00800           0
     10949 MEMB     83       POPC     H3Y      HAL2     0.900000E-01   1.00800           0
     10950 MEMB     83       POPC     C34      CTL2    -0.180000       12.0110           0
     10951 MEMB     83       POPC     H4X      HAL2     0.900000E-01   1.00800           0
     10952 MEMB     83       POPC     H4Y      HAL2     0.900000E-01   1.00800           0
     10953 MEMB     83       POPC     C35      CTL2    -0.180000       12.0110           0
     10954 MEMB     83       POPC     H5X      HAL2     0.900000E-01   1.00800           0
     10955 MEMB     83       POPC     H5Y      HAL2     0.900000E-01   1.00800           0
     10956 MEMB     83       POPC     C36      CTL2    -0.180000       12.0110           0
     10957 MEMB     83       POPC     H6X      HAL2     0.900000E-01   1.00800           0
     10958 MEMB     83       POPC     H6Y      HAL2     0.900000E-01   1.00800           0
     10959 MEMB     83       POPC     C37      CTL2    -0.180000       12.0110           0
     10960 MEMB     83       POPC     H7X      HAL2     0.900000E-01   1.00800           0
     10961 MEMB     83       POPC     H7Y      HAL2     0.900000E-01   1.00800           0
     10962 MEMB     83       POPC     C38      CTL2    -0.180000       12.0110           0
     10963 MEMB     83       POPC     H8X      HAL2     0.900000E-01   1.00800           0
     10964 MEMB     83       POPC     H8Y      HAL2     0.900000E-01   1.00800           0
     10965 MEMB     83       POPC     C39      CTL2    -0.180000       12.0110           0
     10966 MEMB     83       POPC     H9X      HAL2     0.900000E-01   1.00800           0
     10967 MEMB     83       POPC     H9Y      HAL2     0.900000E-01   1.00800           0
     10968 MEMB     83       POPC     C310     CTL2    -0.180000       12.0110           0
     10969 MEMB     83       POPC     H10X     HAL2     0.900000E-01   1.00800           0
     10970 MEMB     83       POPC     H10Y     HAL2     0.900000E-01   1.00800           0
     10971 MEMB     83       POPC     C311     CTL2    -0.180000       12.0110           0
     10972 MEMB     83       POPC     H11X     HAL2     0.900000E-01   1.00800           0
     10973 MEMB     83       POPC     H11Y     HAL2     0.900000E-01   1.00800           0
     10974 MEMB     83       POPC     C312     CTL2    -0.180000       12.0110           0
     10975 MEMB     83       POPC     H12X     HAL2     0.900000E-01   1.00800           0
     10976 MEMB     83       POPC     H12Y     HAL2     0.900000E-01   1.00800           0
     10977 MEMB     83       POPC     C313     CTL2    -0.180000       12.0110           0
     10978 MEMB     83       POPC     H13X     HAL2     0.900000E-01   1.00800           0
     10979 MEMB     83       POPC     H13Y     HAL2     0.900000E-01   1.00800           0
     10980 MEMB     83       POPC     C314     CTL2    -0.180000       12.0110           0
     10981 MEMB     83       POPC     H14X     HAL2     0.900000E-01   1.00800           0
     10982 MEMB     83       POPC     H14Y     HAL2     0.900000E-01   1.00800           0
     10983 MEMB     83       POPC     C315     CTL2    -0.180000       12.0110           0
     10984 MEMB     83       POPC     H15X     HAL2     0.900000E-01   1.00800           0
     10985 MEMB     83       POPC     H15Y     HAL2     0.900000E-01   1.00800           0
     10986 MEMB     83       POPC     C316     CTL3    -0.270000       12.0110           0
     10987 MEMB     83       POPC     H16X     HAL3     0.900000E-01   1.00800           0
     10988 MEMB     83       POPC     H16Y     HAL3     0.900000E-01   1.00800           0
     10989 MEMB     83       POPC     H16Z     HAL3     0.900000E-01   1.00800           0
     10990 MEMB     84       POPC     N        NTL     -0.600000       14.0070           0
     10991 MEMB     84       POPC     C12      CTL2    -0.100000       12.0110           0
     10992 MEMB     84       POPC     H12A     HL       0.250000       1.00800           0
     10993 MEMB     84       POPC     H12B     HL       0.250000       1.00800           0
     10994 MEMB     84       POPC     C13      CTL5    -0.350000       12.0110           0
     10995 MEMB     84       POPC     H13A     HL       0.250000       1.00800           0
     10996 MEMB     84       POPC     H13B     HL       0.250000       1.00800           0
     10997 MEMB     84       POPC     H13C     HL       0.250000       1.00800           0
     10998 MEMB     84       POPC     C14      CTL5    -0.350000       12.0110           0
     10999 MEMB     84       POPC     H14A     HL       0.250000       1.00800           0
     11000 MEMB     84       POPC     H14B     HL       0.250000       1.00800           0
     11001 MEMB     84       POPC     H14C     HL       0.250000       1.00800           0
     11002 MEMB     84       POPC     C15      CTL5    -0.350000       12.0110           0
     11003 MEMB     84       POPC     H15A     HL       0.250000       1.00800           0
     11004 MEMB     84       POPC     H15B     HL       0.250000       1.00800           0
     11005 MEMB     84       POPC     H15C     HL       0.250000       1.00800           0
     11006 MEMB     84       POPC     C11      CTL2    -0.800000E-01   12.0110           0
     11007 MEMB     84       POPC     H11A     HAL2     0.900000E-01   1.00800           0
     11008 MEMB     84       POPC     H11B     HAL2     0.900000E-01   1.00800           0
     11009 MEMB     84       POPC     P        PL        1.50000       30.9740           0
     11010 MEMB     84       POPC     O13      O2L     -0.780000       15.9994           0
     11011 MEMB     84       POPC     O14      O2L     -0.780000       15.9994           0
     11012 MEMB     84       POPC     O12      OSLP    -0.570000       15.9994           0
     11013 MEMB     84       POPC     O11      OSLP    -0.570000       15.9994           0
     11014 MEMB     84       POPC     C1       CTL2    -0.800000E-01   12.0110           0
     11015 MEMB     84       POPC     HA       HAL2     0.900000E-01   1.00800           0
     11016 MEMB     84       POPC     HB       HAL2     0.900000E-01   1.00800           0
     11017 MEMB     84       POPC     C2       CTL1     0.170000       12.0110           0
     11018 MEMB     84       POPC     HS       HAL1     0.900000E-01   1.00800           0
     11019 MEMB     84       POPC     O21      OSL     -0.490000       15.9994           0
     11020 MEMB     84       POPC     C21      CL       0.900000       12.0110           0
     11021 MEMB     84       POPC     O22      OBL     -0.630000       15.9994           0
     11022 MEMB     84       POPC     C22      CTL2    -0.220000       12.0110           0
     11023 MEMB     84       POPC     H2R      HAL2     0.900000E-01   1.00800           0
     11024 MEMB     84       POPC     H2S      HAL2     0.900000E-01   1.00800           0
     11025 MEMB     84       POPC     C3       CTL2     0.800000E-01   12.0110           0
     11026 MEMB     84       POPC     HX       HAL2     0.900000E-01   1.00800           0
     11027 MEMB     84       POPC     HY       HAL2     0.900000E-01   1.00800           0
     11028 MEMB     84       POPC     O31      OSL     -0.490000       15.9994           0
     11029 MEMB     84       POPC     C31      CL       0.900000       12.0110           0
     11030 MEMB     84       POPC     O32      OBL     -0.630000       15.9994           0
     11031 MEMB     84       POPC     C32      CTL2    -0.220000       12.0110           0
     11032 MEMB     84       POPC     H2X      HAL2     0.900000E-01   1.00800           0
     11033 MEMB     84       POPC     H2Y      HAL2     0.900000E-01   1.00800           0
     11034 MEMB     84       POPC     C23      CTL2    -0.180000       12.0110           0
     11035 MEMB     84       POPC     H3R      HAL2     0.900000E-01   1.00800           0
     11036 MEMB     84       POPC     H3S      HAL2     0.900000E-01   1.00800           0
     11037 MEMB     84       POPC     C24      CTL2    -0.180000       12.0110           0
     11038 MEMB     84       POPC     H4R      HAL2     0.900000E-01   1.00800           0
     11039 MEMB     84       POPC     H4S      HAL2     0.900000E-01   1.00800           0
     11040 MEMB     84       POPC     C25      CTL2    -0.180000       12.0110           0
     11041 MEMB     84       POPC     H5R      HAL2     0.900000E-01   1.00800           0
     11042 MEMB     84       POPC     H5S      HAL2     0.900000E-01   1.00800           0
     11043 MEMB     84       POPC     C26      CTL2    -0.180000       12.0110           0
     11044 MEMB     84       POPC     H6R      HAL2     0.900000E-01   1.00800           0
     11045 MEMB     84       POPC     H6S      HAL2     0.900000E-01   1.00800           0
     11046 MEMB     84       POPC     C27      CTL2    -0.180000       12.0110           0
     11047 MEMB     84       POPC     H7R      HAL2     0.900000E-01   1.00800           0
     11048 MEMB     84       POPC     H7S      HAL2     0.900000E-01   1.00800           0
     11049 MEMB     84       POPC     C28      CTL2    -0.180000       12.0110           0
     11050 MEMB     84       POPC     H8R      HAL2     0.900000E-01   1.00800           0
     11051 MEMB     84       POPC     H8S      HAL2     0.900000E-01   1.00800           0
     11052 MEMB     84       POPC     C29      CEL1    -0.150000       12.0110           0
     11053 MEMB     84       POPC     H91      HEL1     0.150000       1.00800           0
     11054 MEMB     84       POPC     C210     CEL1    -0.150000       12.0110           0
     11055 MEMB     84       POPC     H101     HEL1     0.150000       1.00800           0
     11056 MEMB     84       POPC     C211     CTL2    -0.180000       12.0110           0
     11057 MEMB     84       POPC     H11R     HAL2     0.900000E-01   1.00800           0
     11058 MEMB     84       POPC     H11S     HAL2     0.900000E-01   1.00800           0
     11059 MEMB     84       POPC     C212     CTL2    -0.180000       12.0110           0
     11060 MEMB     84       POPC     H12R     HAL2     0.900000E-01   1.00800           0
     11061 MEMB     84       POPC     H12S     HAL2     0.900000E-01   1.00800           0
     11062 MEMB     84       POPC     C213     CTL2    -0.180000       12.0110           0
     11063 MEMB     84       POPC     H13R     HAL2     0.900000E-01   1.00800           0
     11064 MEMB     84       POPC     H13S     HAL2     0.900000E-01   1.00800           0
     11065 MEMB     84       POPC     C214     CTL2    -0.180000       12.0110           0
     11066 MEMB     84       POPC     H14R     HAL2     0.900000E-01   1.00800           0
     11067 MEMB     84       POPC     H14S     HAL2     0.900000E-01   1.00800           0
     11068 MEMB     84       POPC     C215     CTL2    -0.180000       12.0110           0
     11069 MEMB     84       POPC     H15R     HAL2     0.900000E-01   1.00800           0
     11070 MEMB     84       POPC     H15S     HAL2     0.900000E-01   1.00800           0
     11071 MEMB     84       POPC     C216     CTL2    -0.180000       12.0110           0
     11072 MEMB     84       POPC     H16R     HAL2     0.900000E-01   1.00800           0
     11073 MEMB     84       POPC     H16S     HAL2     0.900000E-01   1.00800           0
     11074 MEMB     84       POPC     C217     CTL2    -0.180000       12.0110           0
     11075 MEMB     84       POPC     H17R     HAL2     0.900000E-01   1.00800           0
     11076 MEMB     84       POPC     H17S     HAL2     0.900000E-01   1.00800           0
     11077 MEMB     84       POPC     C218     CTL3    -0.270000       12.0110           0
     11078 MEMB     84       POPC     H18R     HAL3     0.900000E-01   1.00800           0
     11079 MEMB     84       POPC     H18S     HAL3     0.900000E-01   1.00800           0
     11080 MEMB     84       POPC     H18T     HAL3     0.900000E-01   1.00800           0
     11081 MEMB     84       POPC     C33      CTL2    -0.180000       12.0110           0
     11082 MEMB     84       POPC     H3X      HAL2     0.900000E-01   1.00800           0
     11083 MEMB     84       POPC     H3Y      HAL2     0.900000E-01   1.00800           0
     11084 MEMB     84       POPC     C34      CTL2    -0.180000       12.0110           0
     11085 MEMB     84       POPC     H4X      HAL2     0.900000E-01   1.00800           0
     11086 MEMB     84       POPC     H4Y      HAL2     0.900000E-01   1.00800           0
     11087 MEMB     84       POPC     C35      CTL2    -0.180000       12.0110           0
     11088 MEMB     84       POPC     H5X      HAL2     0.900000E-01   1.00800           0
     11089 MEMB     84       POPC     H5Y      HAL2     0.900000E-01   1.00800           0
     11090 MEMB     84       POPC     C36      CTL2    -0.180000       12.0110           0
     11091 MEMB     84       POPC     H6X      HAL2     0.900000E-01   1.00800           0
     11092 MEMB     84       POPC     H6Y      HAL2     0.900000E-01   1.00800           0
     11093 MEMB     84       POPC     C37      CTL2    -0.180000       12.0110           0
     11094 MEMB     84       POPC     H7X      HAL2     0.900000E-01   1.00800           0
     11095 MEMB     84       POPC     H7Y      HAL2     0.900000E-01   1.00800           0
     11096 MEMB     84       POPC     C38      CTL2    -0.180000       12.0110           0
     11097 MEMB     84       POPC     H8X      HAL2     0.900000E-01   1.00800           0
     11098 MEMB     84       POPC     H8Y      HAL2     0.900000E-01   1.00800           0
     11099 MEMB     84       POPC     C39      CTL2    -0.180000       12.0110           0
     11100 MEMB     84       POPC     H9X      HAL2     0.900000E-01   1.00800           0
     11101 MEMB     84       POPC     H9Y      HAL2     0.900000E-01   1.00800           0
     11102 MEMB     84       POPC     C310     CTL2    -0.180000       12.0110           0
     11103 MEMB     84       POPC     H10X     HAL2     0.900000E-01   1.00800           0
     11104 MEMB     84       POPC     H10Y     HAL2     0.900000E-01   1.00800           0
     11105 MEMB     84       POPC     C311     CTL2    -0.180000       12.0110           0
     11106 MEMB     84       POPC     H11X     HAL2     0.900000E-01   1.00800           0
     11107 MEMB     84       POPC     H11Y     HAL2     0.900000E-01   1.00800           0
     11108 MEMB     84       POPC     C312     CTL2    -0.180000       12.0110           0
     11109 MEMB     84       POPC     H12X     HAL2     0.900000E-01   1.00800           0
     11110 MEMB     84       POPC     H12Y     HAL2     0.900000E-01   1.00800           0
     11111 MEMB     84       POPC     C313     CTL2    -0.180000       12.0110           0
     11112 MEMB     84       POPC     H13X     HAL2     0.900000E-01   1.00800           0
     11113 MEMB     84       POPC     H13Y     HAL2     0.900000E-01   1.00800           0
     11114 MEMB     84       POPC     C314     CTL2    -0.180000       12.0110           0
     11115 MEMB     84       POPC     H14X     HAL2     0.900000E-01   1.00800           0
     11116 MEMB     84       POPC     H14Y     HAL2     0.900000E-01   1.00800           0
     11117 MEMB     84       POPC     C315     CTL2    -0.180000       12.0110           0
     11118 MEMB     84       POPC     H15X     HAL2     0.900000E-01   1.00800           0
     11119 MEMB     84       POPC     H15Y     HAL2     0.900000E-01   1.00800           0
     11120 MEMB     84       POPC     C316     CTL3    -0.270000       12.0110           0
     11121 MEMB     84       POPC     H16X     HAL3     0.900000E-01   1.00800           0
     11122 MEMB     84       POPC     H16Y     HAL3     0.900000E-01   1.00800           0
     11123 MEMB     84       POPC     H16Z     HAL3     0.900000E-01   1.00800           0
     11124 MEMB     85       POPC     N        NTL     -0.600000       14.0070           0
     11125 MEMB     85       POPC     C12      CTL2    -0.100000       12.0110           0
     11126 MEMB     85       POPC     H12A     HL       0.250000       1.00800           0
     11127 MEMB     85       POPC     H12B     HL       0.250000       1.00800           0
     11128 MEMB     85       POPC     C13      CTL5    -0.350000       12.0110           0
     11129 MEMB     85       POPC     H13A     HL       0.250000       1.00800           0
     11130 MEMB     85       POPC     H13B     HL       0.250000       1.00800           0
     11131 MEMB     85       POPC     H13C     HL       0.250000       1.00800           0
     11132 MEMB     85       POPC     C14      CTL5    -0.350000       12.0110           0
     11133 MEMB     85       POPC     H14A     HL       0.250000       1.00800           0
     11134 MEMB     85       POPC     H14B     HL       0.250000       1.00800           0
     11135 MEMB     85       POPC     H14C     HL       0.250000       1.00800           0
     11136 MEMB     85       POPC     C15      CTL5    -0.350000       12.0110           0
     11137 MEMB     85       POPC     H15A     HL       0.250000       1.00800           0
     11138 MEMB     85       POPC     H15B     HL       0.250000       1.00800           0
     11139 MEMB     85       POPC     H15C     HL       0.250000       1.00800           0
     11140 MEMB     85       POPC     C11      CTL2    -0.800000E-01   12.0110           0
     11141 MEMB     85       POPC     H11A     HAL2     0.900000E-01   1.00800           0
     11142 MEMB     85       POPC     H11B     HAL2     0.900000E-01   1.00800           0
     11143 MEMB     85       POPC     P        PL        1.50000       30.9740           0
     11144 MEMB     85       POPC     O13      O2L     -0.780000       15.9994           0
     11145 MEMB     85       POPC     O14      O2L     -0.780000       15.9994           0
     11146 MEMB     85       POPC     O12      OSLP    -0.570000       15.9994           0
     11147 MEMB     85       POPC     O11      OSLP    -0.570000       15.9994           0
     11148 MEMB     85       POPC     C1       CTL2    -0.800000E-01   12.0110           0
     11149 MEMB     85       POPC     HA       HAL2     0.900000E-01   1.00800           0
     11150 MEMB     85       POPC     HB       HAL2     0.900000E-01   1.00800           0
     11151 MEMB     85       POPC     C2       CTL1     0.170000       12.0110           0
     11152 MEMB     85       POPC     HS       HAL1     0.900000E-01   1.00800           0
     11153 MEMB     85       POPC     O21      OSL     -0.490000       15.9994           0
     11154 MEMB     85       POPC     C21      CL       0.900000       12.0110           0
     11155 MEMB     85       POPC     O22      OBL     -0.630000       15.9994           0
     11156 MEMB     85       POPC     C22      CTL2    -0.220000       12.0110           0
     11157 MEMB     85       POPC     H2R      HAL2     0.900000E-01   1.00800           0
     11158 MEMB     85       POPC     H2S      HAL2     0.900000E-01   1.00800           0
     11159 MEMB     85       POPC     C3       CTL2     0.800000E-01   12.0110           0
     11160 MEMB     85       POPC     HX       HAL2     0.900000E-01   1.00800           0
     11161 MEMB     85       POPC     HY       HAL2     0.900000E-01   1.00800           0
     11162 MEMB     85       POPC     O31      OSL     -0.490000       15.9994           0
     11163 MEMB     85       POPC     C31      CL       0.900000       12.0110           0
     11164 MEMB     85       POPC     O32      OBL     -0.630000       15.9994           0
     11165 MEMB     85       POPC     C32      CTL2    -0.220000       12.0110           0
     11166 MEMB     85       POPC     H2X      HAL2     0.900000E-01   1.00800           0
     11167 MEMB     85       POPC     H2Y      HAL2     0.900000E-01   1.00800           0
     11168 MEMB     85       POPC     C23      CTL2    -0.180000       12.0110           0
     11169 MEMB     85       POPC     H3R      HAL2     0.900000E-01   1.00800           0
     11170 MEMB     85       POPC     H3S      HAL2     0.900000E-01   1.00800           0
     11171 MEMB     85       POPC     C24      CTL2    -0.180000       12.0110           0
     11172 MEMB     85       POPC     H4R      HAL2     0.900000E-01   1.00800           0
     11173 MEMB     85       POPC     H4S      HAL2     0.900000E-01   1.00800           0
     11174 MEMB     85       POPC     C25      CTL2    -0.180000       12.0110           0
     11175 MEMB     85       POPC     H5R      HAL2     0.900000E-01   1.00800           0
     11176 MEMB     85       POPC     H5S      HAL2     0.900000E-01   1.00800           0
     11177 MEMB     85       POPC     C26      CTL2    -0.180000       12.0110           0
     11178 MEMB     85       POPC     H6R      HAL2     0.900000E-01   1.00800           0
     11179 MEMB     85       POPC     H6S      HAL2     0.900000E-01   1.00800           0
     11180 MEMB     85       POPC     C27      CTL2    -0.180000       12.0110           0
     11181 MEMB     85       POPC     H7R      HAL2     0.900000E-01   1.00800           0
     11182 MEMB     85       POPC     H7S      HAL2     0.900000E-01   1.00800           0
     11183 MEMB     85       POPC     C28      CTL2    -0.180000       12.0110           0
     11184 MEMB     85       POPC     H8R      HAL2     0.900000E-01   1.00800           0
     11185 MEMB     85       POPC     H8S      HAL2     0.900000E-01   1.00800           0
     11186 MEMB     85       POPC     C29      CEL1    -0.150000       12.0110           0
     11187 MEMB     85       POPC     H91      HEL1     0.150000       1.00800           0
     11188 MEMB     85       POPC     C210     CEL1    -0.150000       12.0110           0
     11189 MEMB     85       POPC     H101     HEL1     0.150000       1.00800           0
     11190 MEMB     85       POPC     C211     CTL2    -0.180000       12.0110           0
     11191 MEMB     85       POPC     H11R     HAL2     0.900000E-01   1.00800           0
     11192 MEMB     85       POPC     H11S     HAL2     0.900000E-01   1.00800           0
     11193 MEMB     85       POPC     C212     CTL2    -0.180000       12.0110           0
     11194 MEMB     85       POPC     H12R     HAL2     0.900000E-01   1.00800           0
     11195 MEMB     85       POPC     H12S     HAL2     0.900000E-01   1.00800           0
     11196 MEMB     85       POPC     C213     CTL2    -0.180000       12.0110           0
     11197 MEMB     85       POPC     H13R     HAL2     0.900000E-01   1.00800           0
     11198 MEMB     85       POPC     H13S     HAL2     0.900000E-01   1.00800           0
     11199 MEMB     85       POPC     C214     CTL2    -0.180000       12.0110           0
     11200 MEMB     85       POPC     H14R     HAL2     0.900000E-01   1.00800           0
     11201 MEMB     85       POPC     H14S     HAL2     0.900000E-01   1.00800           0
     11202 MEMB     85       POPC     C215     CTL2    -0.180000       12.0110           0
     11203 MEMB     85       POPC     H15R     HAL2     0.900000E-01   1.00800           0
     11204 MEMB     85       POPC     H15S     HAL2     0.900000E-01   1.00800           0
     11205 MEMB     85       POPC     C216     CTL2    -0.180000       12.0110           0
     11206 MEMB     85       POPC     H16R     HAL2     0.900000E-01   1.00800           0
     11207 MEMB     85       POPC     H16S     HAL2     0.900000E-01   1.00800           0
     11208 MEMB     85       POPC     C217     CTL2    -0.180000       12.0110           0
     11209 MEMB     85       POPC     H17R     HAL2     0.900000E-01   1.00800           0
     11210 MEMB     85       POPC     H17S     HAL2     0.900000E-01   1.00800           0
     11211 MEMB     85       POPC     C218     CTL3    -0.270000       12.0110           0
     11212 MEMB     85       POPC     H18R     HAL3     0.900000E-01   1.00800           0
     11213 MEMB     85       POPC     H18S     HAL3     0.900000E-01   1.00800           0
     11214 MEMB     85       POPC     H18T     HAL3     0.900000E-01   1.00800           0
     11215 MEMB     85       POPC     C33      CTL2    -0.180000       12.0110           0
     11216 MEMB     85       POPC     H3X      HAL2     0.900000E-01   1.00800           0
     11217 MEMB     85       POPC     H3Y      HAL2     0.900000E-01   1.00800           0
     11218 MEMB     85       POPC     C34      CTL2    -0.180000       12.0110           0
     11219 MEMB     85       POPC     H4X      HAL2     0.900000E-01   1.00800           0
     11220 MEMB     85       POPC     H4Y      HAL2     0.900000E-01   1.00800           0
     11221 MEMB     85       POPC     C35      CTL2    -0.180000       12.0110           0
     11222 MEMB     85       POPC     H5X      HAL2     0.900000E-01   1.00800           0
     11223 MEMB     85       POPC     H5Y      HAL2     0.900000E-01   1.00800           0
     11224 MEMB     85       POPC     C36      CTL2    -0.180000       12.0110           0
     11225 MEMB     85       POPC     H6X      HAL2     0.900000E-01   1.00800           0
     11226 MEMB     85       POPC     H6Y      HAL2     0.900000E-01   1.00800           0
     11227 MEMB     85       POPC     C37      CTL2    -0.180000       12.0110           0
     11228 MEMB     85       POPC     H7X      HAL2     0.900000E-01   1.00800           0
     11229 MEMB     85       POPC     H7Y      HAL2     0.900000E-01   1.00800           0
     11230 MEMB     85       POPC     C38      CTL2    -0.180000       12.0110           0
     11231 MEMB     85       POPC     H8X      HAL2     0.900000E-01   1.00800           0
     11232 MEMB     85       POPC     H8Y      HAL2     0.900000E-01   1.00800           0
     11233 MEMB     85       POPC     C39      CTL2    -0.180000       12.0110           0
     11234 MEMB     85       POPC     H9X      HAL2     0.900000E-01   1.00800           0
     11235 MEMB     85       POPC     H9Y      HAL2     0.900000E-01   1.00800           0
     11236 MEMB     85       POPC     C310     CTL2    -0.180000       12.0110           0
     11237 MEMB     85       POPC     H10X     HAL2     0.900000E-01   1.00800           0
     11238 MEMB     85       POPC     H10Y     HAL2     0.900000E-01   1.00800           0
     11239 MEMB     85       POPC     C311     CTL2    -0.180000       12.0110           0
     11240 MEMB     85       POPC     H11X     HAL2     0.900000E-01   1.00800           0
     11241 MEMB     85       POPC     H11Y     HAL2     0.900000E-01   1.00800           0
     11242 MEMB     85       POPC     C312     CTL2    -0.180000       12.0110           0
     11243 MEMB     85       POPC     H12X     HAL2     0.900000E-01   1.00800           0
     11244 MEMB     85       POPC     H12Y     HAL2     0.900000E-01   1.00800           0
     11245 MEMB     85       POPC     C313     CTL2    -0.180000       12.0110           0
     11246 MEMB     85       POPC     H13X     HAL2     0.900000E-01   1.00800           0
     11247 MEMB     85       POPC     H13Y     HAL2     0.900000E-01   1.00800           0
     11248 MEMB     85       POPC     C314     CTL2    -0.180000       12.0110           0
     11249 MEMB     85       POPC     H14X     HAL2     0.900000E-01   1.00800           0
     11250 MEMB     85       POPC     H14Y     HAL2     0.900000E-01   1.00800           0
     11251 MEMB     85       POPC     C315     CTL2    -0.180000       12.0110           0
     11252 MEMB     85       POPC     H15X     HAL2     0.900000E-01   1.00800           0
     11253 MEMB     85       POPC     H15Y     HAL2     0.900000E-01   1.00800           0
     11254 MEMB     85       POPC     C316     CTL3    -0.270000       12.0110           0
     11255 MEMB     85       POPC     H16X     HAL3     0.900000E-01   1.00800           0
     11256 MEMB     85       POPC     H16Y     HAL3     0.900000E-01   1.00800           0
     11257 MEMB     85       POPC     H16Z     HAL3     0.900000E-01   1.00800           0
     11258 MEMB     86       POPC     N        NTL     -0.600000       14.0070           0
     11259 MEMB     86       POPC     C12      CTL2    -0.100000       12.0110           0
     11260 MEMB     86       POPC     H12A     HL       0.250000       1.00800           0
     11261 MEMB     86       POPC     H12B     HL       0.250000       1.00800           0
     11262 MEMB     86       POPC     C13      CTL5    -0.350000       12.0110           0
     11263 MEMB     86       POPC     H13A     HL       0.250000       1.00800           0
     11264 MEMB     86       POPC     H13B     HL       0.250000       1.00800           0
     11265 MEMB     86       POPC     H13C     HL       0.250000       1.00800           0
     11266 MEMB     86       POPC     C14      CTL5    -0.350000       12.0110           0
     11267 MEMB     86       POPC     H14A     HL       0.250000       1.00800           0
     11268 MEMB     86       POPC     H14B     HL       0.250000       1.00800           0
     11269 MEMB     86       POPC     H14C     HL       0.250000       1.00800           0
     11270 MEMB     86       POPC     C15      CTL5    -0.350000       12.0110           0
     11271 MEMB     86       POPC     H15A     HL       0.250000       1.00800           0
     11272 MEMB     86       POPC     H15B     HL       0.250000       1.00800           0
     11273 MEMB     86       POPC     H15C     HL       0.250000       1.00800           0
     11274 MEMB     86       POPC     C11      CTL2    -0.800000E-01   12.0110           0
     11275 MEMB     86       POPC     H11A     HAL2     0.900000E-01   1.00800           0
     11276 MEMB     86       POPC     H11B     HAL2     0.900000E-01   1.00800           0
     11277 MEMB     86       POPC     P        PL        1.50000       30.9740           0
     11278 MEMB     86       POPC     O13      O2L     -0.780000       15.9994           0
     11279 MEMB     86       POPC     O14      O2L     -0.780000       15.9994           0
     11280 MEMB     86       POPC     O12      OSLP    -0.570000       15.9994           0
     11281 MEMB     86       POPC     O11      OSLP    -0.570000       15.9994           0
     11282 MEMB     86       POPC     C1       CTL2    -0.800000E-01   12.0110           0
     11283 MEMB     86       POPC     HA       HAL2     0.900000E-01   1.00800           0
     11284 MEMB     86       POPC     HB       HAL2     0.900000E-01   1.00800           0
     11285 MEMB     86       POPC     C2       CTL1     0.170000       12.0110           0
     11286 MEMB     86       POPC     HS       HAL1     0.900000E-01   1.00800           0
     11287 MEMB     86       POPC     O21      OSL     -0.490000       15.9994           0
     11288 MEMB     86       POPC     C21      CL       0.900000       12.0110           0
     11289 MEMB     86       POPC     O22      OBL     -0.630000       15.9994           0
     11290 MEMB     86       POPC     C22      CTL2    -0.220000       12.0110           0
     11291 MEMB     86       POPC     H2R      HAL2     0.900000E-01   1.00800           0
     11292 MEMB     86       POPC     H2S      HAL2     0.900000E-01   1.00800           0
     11293 MEMB     86       POPC     C3       CTL2     0.800000E-01   12.0110           0
     11294 MEMB     86       POPC     HX       HAL2     0.900000E-01   1.00800           0
     11295 MEMB     86       POPC     HY       HAL2     0.900000E-01   1.00800           0
     11296 MEMB     86       POPC     O31      OSL     -0.490000       15.9994           0
     11297 MEMB     86       POPC     C31      CL       0.900000       12.0110           0
     11298 MEMB     86       POPC     O32      OBL     -0.630000       15.9994           0
     11299 MEMB     86       POPC     C32      CTL2    -0.220000       12.0110           0
     11300 MEMB     86       POPC     H2X      HAL2     0.900000E-01   1.00800           0
     11301 MEMB     86       POPC     H2Y      HAL2     0.900000E-01   1.00800           0
     11302 MEMB     86       POPC     C23      CTL2    -0.180000       12.0110           0
     11303 MEMB     86       POPC     H3R      HAL2     0.900000E-01   1.00800           0
     11304 MEMB     86       POPC     H3S      HAL2     0.900000E-01   1.00800           0
     11305 MEMB     86       POPC     C24      CTL2    -0.180000       12.0110           0
     11306 MEMB     86       POPC     H4R      HAL2     0.900000E-01   1.00800           0
     11307 MEMB     86       POPC     H4S      HAL2     0.900000E-01   1.00800           0
     11308 MEMB     86       POPC     C25      CTL2    -0.180000       12.0110           0
     11309 MEMB     86       POPC     H5R      HAL2     0.900000E-01   1.00800           0
     11310 MEMB     86       POPC     H5S      HAL2     0.900000E-01   1.00800           0
     11311 MEMB     86       POPC     C26      CTL2    -0.180000       12.0110           0
     11312 MEMB     86       POPC     H6R      HAL2     0.900000E-01   1.00800           0
     11313 MEMB     86       POPC     H6S      HAL2     0.900000E-01   1.00800           0
     11314 MEMB     86       POPC     C27      CTL2    -0.180000       12.0110           0
     11315 MEMB     86       POPC     H7R      HAL2     0.900000E-01   1.00800           0
     11316 MEMB     86       POPC     H7S      HAL2     0.900000E-01   1.00800           0
     11317 MEMB     86       POPC     C28      CTL2    -0.180000       12.0110           0
     11318 MEMB     86       POPC     H8R      HAL2     0.900000E-01   1.00800           0
     11319 MEMB     86       POPC     H8S      HAL2     0.900000E-01   1.00800           0
     11320 MEMB     86       POPC     C29      CEL1    -0.150000       12.0110           0
     11321 MEMB     86       POPC     H91      HEL1     0.150000       1.00800           0
     11322 MEMB     86       POPC     C210     CEL1    -0.150000       12.0110           0
     11323 MEMB     86       POPC     H101     HEL1     0.150000       1.00800           0
     11324 MEMB     86       POPC     C211     CTL2    -0.180000       12.0110           0
     11325 MEMB     86       POPC     H11R     HAL2     0.900000E-01   1.00800           0
     11326 MEMB     86       POPC     H11S     HAL2     0.900000E-01   1.00800           0
     11327 MEMB     86       POPC     C212     CTL2    -0.180000       12.0110           0
     11328 MEMB     86       POPC     H12R     HAL2     0.900000E-01   1.00800           0
     11329 MEMB     86       POPC     H12S     HAL2     0.900000E-01   1.00800           0
     11330 MEMB     86       POPC     C213     CTL2    -0.180000       12.0110           0
     11331 MEMB     86       POPC     H13R     HAL2     0.900000E-01   1.00800           0
     11332 MEMB     86       POPC     H13S     HAL2     0.900000E-01   1.00800           0
     11333 MEMB     86       POPC     C214     CTL2    -0.180000       12.0110           0
     11334 MEMB     86       POPC     H14R     HAL2     0.900000E-01   1.00800           0
     11335 MEMB     86       POPC     H14S     HAL2     0.900000E-01   1.00800           0
     11336 MEMB     86       POPC     C215     CTL2    -0.180000       12.0110           0
     11337 MEMB     86       POPC     H15R     HAL2     0.900000E-01   1.00800           0
     11338 MEMB     86       POPC     H15S     HAL2     0.900000E-01   1.00800           0
     11339 MEMB     86       POPC     C216     CTL2    -0.180000       12.0110           0
     11340 MEMB     86       POPC     H16R     HAL2     0.900000E-01   1.00800           0
     11341 MEMB     86       POPC     H16S     HAL2     0.900000E-01   1.00800           0
     11342 MEMB     86       POPC     C217     CTL2    -0.180000       12.0110           0
     11343 MEMB     86       POPC     H17R     HAL2     0.900000E-01   1.00800           0
     11344 MEMB     86       POPC     H17S     HAL2     0.900000E-01   1.00800           0
     11345 MEMB     86       POPC     C218     CTL3    -0.270000       12.0110           0
     11346 MEMB     86       POPC     H18R     HAL3     0.900000E-01   1.00800           0
     11347 MEMB     86       POPC     H18S     HAL3     0.900000E-01   1.00800           0
     11348 MEMB     86       POPC     H18T     HAL3     0.900000E-01   1.00800           0
     11349 MEMB     86       POPC     C33      CTL2    -0.180000       12.0110           0
     11350 MEMB     86       POPC     H3X      HAL2     0.900000E-01   1.00800           0
     11351 MEMB     86       POPC     H3Y      HAL2     0.900000E-01   1.00800           0
     11352 MEMB     86       POPC     C34      CTL2    -0.180000       12.0110           0
     11353 MEMB     86       POPC     H4X      HAL2     0.900000E-01   1.00800           0
     11354 MEMB     86       POPC     H4Y      HAL2     0.900000E-01   1.00800           0
     11355 MEMB     86       POPC     C35      CTL2    -0.180000       12.0110           0
     11356 MEMB     86       POPC     H5X      HAL2     0.900000E-01   1.00800           0
     11357 MEMB     86       POPC     H5Y      HAL2     0.900000E-01   1.00800           0
     11358 MEMB     86       POPC     C36      CTL2    -0.180000       12.0110           0
     11359 MEMB     86       POPC     H6X      HAL2     0.900000E-01   1.00800           0
     11360 MEMB     86       POPC     H6Y      HAL2     0.900000E-01   1.00800           0
     11361 MEMB     86       POPC     C37      CTL2    -0.180000       12.0110           0
     11362 MEMB     86       POPC     H7X      HAL2     0.900000E-01   1.00800           0
     11363 MEMB     86       POPC     H7Y      HAL2     0.900000E-01   1.00800           0
     11364 MEMB     86       POPC     C38      CTL2    -0.180000       12.0110           0
     11365 MEMB     86       POPC     H8X      HAL2     0.900000E-01   1.00800           0
     11366 MEMB     86       POPC     H8Y      HAL2     0.900000E-01   1.00800           0
     11367 MEMB     86       POPC     C39      CTL2    -0.180000       12.0110           0
     11368 MEMB     86       POPC     H9X      HAL2     0.900000E-01   1.00800           0
     11369 MEMB     86       POPC     H9Y      HAL2     0.900000E-01   1.00800           0
     11370 MEMB     86       POPC     C310     CTL2    -0.180000       12.0110           0
     11371 MEMB     86       POPC     H10X     HAL2     0.900000E-01   1.00800           0
     11372 MEMB     86       POPC     H10Y     HAL2     0.900000E-01   1.00800           0
     11373 MEMB     86       POPC     C311     CTL2    -0.180000       12.0110           0
     11374 MEMB     86       POPC     H11X     HAL2     0.900000E-01   1.00800           0
     11375 MEMB     86       POPC     H11Y     HAL2     0.900000E-01   1.00800           0
     11376 MEMB     86       POPC     C312     CTL2    -0.180000       12.0110           0
     11377 MEMB     86       POPC     H12X     HAL2     0.900000E-01   1.00800           0
     11378 MEMB     86       POPC     H12Y     HAL2     0.900000E-01   1.00800           0
     11379 MEMB     86       POPC     C313     CTL2    -0.180000       12.0110           0
     11380 MEMB     86       POPC     H13X     HAL2     0.900000E-01   1.00800           0
     11381 MEMB     86       POPC     H13Y     HAL2     0.900000E-01   1.00800           0
     11382 MEMB     86       POPC     C314     CTL2    -0.180000       12.0110           0
     11383 MEMB     86       POPC     H14X     HAL2     0.900000E-01   1.00800           0
     11384 MEMB     86       POPC     H14Y     HAL2     0.900000E-01   1.00800           0
     11385 MEMB     86       POPC     C315     CTL2    -0.180000       12.0110           0
     11386 MEMB     86       POPC     H15X     HAL2     0.900000E-01   1.00800           0
     11387 MEMB     86       POPC     H15Y     HAL2     0.900000E-01   1.00800           0
     11388 MEMB     86       POPC     C316     CTL3    -0.270000       12.0110           0
     11389 MEMB     86       POPC     H16X     HAL3     0.900000E-01   1.00800           0
     11390 MEMB     86       POPC     H16Y     HAL3     0.900000E-01   1.00800           0
     11391 MEMB     86       POPC     H16Z     HAL3     0.900000E-01   1.00800           0
     11392 MEMB     87       POPC     N        NTL     -0.600000       14.0070           0
     11393 MEMB     87       POPC     C12      CTL2    -0.100000       12.0110           0
     11394 MEMB     87       POPC     H12A     HL       0.250000       1.00800           0
     11395 MEMB     87       POPC     H12B     HL       0.250000       1.00800           0
     11396 MEMB     87       POPC     C13      CTL5    -0.350000       12.0110           0
     11397 MEMB     87       POPC     H13A     HL       0.250000       1.00800           0
     11398 MEMB     87       POPC     H13B     HL       0.250000       1.00800           0
     11399 MEMB     87       POPC     H13C     HL       0.250000       1.00800           0
     11400 MEMB     87       POPC     C14      CTL5    -0.350000       12.0110           0
     11401 MEMB     87       POPC     H14A     HL       0.250000       1.00800           0
     11402 MEMB     87       POPC     H14B     HL       0.250000       1.00800           0
     11403 MEMB     87       POPC     H14C     HL       0.250000       1.00800           0
     11404 MEMB     87       POPC     C15      CTL5    -0.350000       12.0110           0
     11405 MEMB     87       POPC     H15A     HL       0.250000       1.00800           0
     11406 MEMB     87       POPC     H15B     HL       0.250000       1.00800           0
     11407 MEMB     87       POPC     H15C     HL       0.250000       1.00800           0
     11408 MEMB     87       POPC     C11      CTL2    -0.800000E-01   12.0110           0
     11409 MEMB     87       POPC     H11A     HAL2     0.900000E-01   1.00800           0
     11410 MEMB     87       POPC     H11B     HAL2     0.900000E-01   1.00800           0
     11411 MEMB     87       POPC     P        PL        1.50000       30.9740           0
     11412 MEMB     87       POPC     O13      O2L     -0.780000       15.9994           0
     11413 MEMB     87       POPC     O14      O2L     -0.780000       15.9994           0
     11414 MEMB     87       POPC     O12      OSLP    -0.570000       15.9994           0
     11415 MEMB     87       POPC     O11      OSLP    -0.570000       15.9994           0
     11416 MEMB     87       POPC     C1       CTL2    -0.800000E-01   12.0110           0
     11417 MEMB     87       POPC     HA       HAL2     0.900000E-01   1.00800           0
     11418 MEMB     87       POPC     HB       HAL2     0.900000E-01   1.00800           0
     11419 MEMB     87       POPC     C2       CTL1     0.170000       12.0110           0
     11420 MEMB     87       POPC     HS       HAL1     0.900000E-01   1.00800           0
     11421 MEMB     87       POPC     O21      OSL     -0.490000       15.9994           0
     11422 MEMB     87       POPC     C21      CL       0.900000       12.0110           0
     11423 MEMB     87       POPC     O22      OBL     -0.630000       15.9994           0
     11424 MEMB     87       POPC     C22      CTL2    -0.220000       12.0110           0
     11425 MEMB     87       POPC     H2R      HAL2     0.900000E-01   1.00800           0
     11426 MEMB     87       POPC     H2S      HAL2     0.900000E-01   1.00800           0
     11427 MEMB     87       POPC     C3       CTL2     0.800000E-01   12.0110           0
     11428 MEMB     87       POPC     HX       HAL2     0.900000E-01   1.00800           0
     11429 MEMB     87       POPC     HY       HAL2     0.900000E-01   1.00800           0
     11430 MEMB     87       POPC     O31      OSL     -0.490000       15.9994           0
     11431 MEMB     87       POPC     C31      CL       0.900000       12.0110           0
     11432 MEMB     87       POPC     O32      OBL     -0.630000       15.9994           0
     11433 MEMB     87       POPC     C32      CTL2    -0.220000       12.0110           0
     11434 MEMB     87       POPC     H2X      HAL2     0.900000E-01   1.00800           0
     11435 MEMB     87       POPC     H2Y      HAL2     0.900000E-01   1.00800           0
     11436 MEMB     87       POPC     C23      CTL2    -0.180000       12.0110           0
     11437 MEMB     87       POPC     H3R      HAL2     0.900000E-01   1.00800           0
     11438 MEMB     87       POPC     H3S      HAL2     0.900000E-01   1.00800           0
     11439 MEMB     87       POPC     C24      CTL2    -0.180000       12.0110           0
     11440 MEMB     87       POPC     H4R      HAL2     0.900000E-01   1.00800           0
     11441 MEMB     87       POPC     H4S      HAL2     0.900000E-01   1.00800           0
     11442 MEMB     87       POPC     C25      CTL2    -0.180000       12.0110           0
     11443 MEMB     87       POPC     H5R      HAL2     0.900000E-01   1.00800           0
     11444 MEMB     87       POPC     H5S      HAL2     0.900000E-01   1.00800           0
     11445 MEMB     87       POPC     C26      CTL2    -0.180000       12.0110           0
     11446 MEMB     87       POPC     H6R      HAL2     0.900000E-01   1.00800           0
     11447 MEMB     87       POPC     H6S      HAL2     0.900000E-01   1.00800           0
     11448 MEMB     87       POPC     C27      CTL2    -0.180000       12.0110           0
     11449 MEMB     87       POPC     H7R      HAL2     0.900000E-01   1.00800           0
     11450 MEMB     87       POPC     H7S      HAL2     0.900000E-01   1.00800           0
     11451 MEMB     87       POPC     C28      CTL2    -0.180000       12.0110           0
     11452 MEMB     87       POPC     H8R      HAL2     0.900000E-01   1.00800           0
     11453 MEMB     87       POPC     H8S      HAL2     0.900000E-01   1.00800           0
     11454 MEMB     87       POPC     C29      CEL1    -0.150000       12.0110           0
     11455 MEMB     87       POPC     H91      HEL1     0.150000       1.00800           0
     11456 MEMB     87       POPC     C210     CEL1    -0.150000       12.0110           0
     11457 MEMB     87       POPC     H101     HEL1     0.150000       1.00800           0
     11458 MEMB     87       POPC     C211     CTL2    -0.180000       12.0110           0
     11459 MEMB     87       POPC     H11R     HAL2     0.900000E-01   1.00800           0
     11460 MEMB     87       POPC     H11S     HAL2     0.900000E-01   1.00800           0
     11461 MEMB     87       POPC     C212     CTL2    -0.180000       12.0110           0
     11462 MEMB     87       POPC     H12R     HAL2     0.900000E-01   1.00800           0
     11463 MEMB     87       POPC     H12S     HAL2     0.900000E-01   1.00800           0
     11464 MEMB     87       POPC     C213     CTL2    -0.180000       12.0110           0
     11465 MEMB     87       POPC     H13R     HAL2     0.900000E-01   1.00800           0
     11466 MEMB     87       POPC     H13S     HAL2     0.900000E-01   1.00800           0
     11467 MEMB     87       POPC     C214     CTL2    -0.180000       12.0110           0
     11468 MEMB     87       POPC     H14R     HAL2     0.900000E-01   1.00800           0
     11469 MEMB     87       POPC     H14S     HAL2     0.900000E-01   1.00800           0
     11470 MEMB     87       POPC     C215     CTL2    -0.180000       12.0110           0
     11471 MEMB     87       POPC     H15R     HAL2     0.900000E-01   1.00800           0
     11472 MEMB     87       POPC     H15S     HAL2     0.900000E-01   1.00800           0
     11473 MEMB     87       POPC     C216     CTL2    -0.180000       12.0110           0
     11474 MEMB     87       POPC     H16R     HAL2     0.900000E-01   1.00800           0
     11475 MEMB     87       POPC     H16S     HAL2     0.900000E-01   1.00800           0
     11476 MEMB     87       POPC     C217     CTL2    -0.180000       12.0110           0
     11477 MEMB     87       POPC     H17R     HAL2     0.900000E-01   1.00800           0
     11478 MEMB     87       POPC     H17S     HAL2     0.900000E-01   1.00800           0
     11479 MEMB     87       POPC     C218     CTL3    -0.270000       12.0110           0
     11480 MEMB     87       POPC     H18R     HAL3     0.900000E-01   1.00800           0
     11481 MEMB     87       POPC     H18S     HAL3     0.900000E-01   1.00800           0
     11482 MEMB     87       POPC     H18T     HAL3     0.900000E-01   1.00800           0
     11483 MEMB     87       POPC     C33      CTL2    -0.180000       12.0110           0
     11484 MEMB     87       POPC     H3X      HAL2     0.900000E-01   1.00800           0
     11485 MEMB     87       POPC     H3Y      HAL2     0.900000E-01   1.00800           0
     11486 MEMB     87       POPC     C34      CTL2    -0.180000       12.0110           0
     11487 MEMB     87       POPC     H4X      HAL2     0.900000E-01   1.00800           0
     11488 MEMB     87       POPC     H4Y      HAL2     0.900000E-01   1.00800           0
     11489 MEMB     87       POPC     C35      CTL2    -0.180000       12.0110           0
     11490 MEMB     87       POPC     H5X      HAL2     0.900000E-01   1.00800           0
     11491 MEMB     87       POPC     H5Y      HAL2     0.900000E-01   1.00800           0
     11492 MEMB     87       POPC     C36      CTL2    -0.180000       12.0110           0
     11493 MEMB     87       POPC     H6X      HAL2     0.900000E-01   1.00800           0
     11494 MEMB     87       POPC     H6Y      HAL2     0.900000E-01   1.00800           0
     11495 MEMB     87       POPC     C37      CTL2    -0.180000       12.0110           0
     11496 MEMB     87       POPC     H7X      HAL2     0.900000E-01   1.00800           0
     11497 MEMB     87       POPC     H7Y      HAL2     0.900000E-01   1.00800           0
     11498 MEMB     87       POPC     C38      CTL2    -0.180000       12.0110           0
     11499 MEMB     87       POPC     H8X      HAL2     0.900000E-01   1.00800           0
     11500 MEMB     87       POPC     H8Y      HAL2     0.900000E-01   1.00800           0
     11501 MEMB     87       POPC     C39      CTL2    -0.180000       12.0110           0
     11502 MEMB     87       POPC     H9X      HAL2     0.900000E-01   1.00800           0
     11503 MEMB     87       POPC     H9Y      HAL2     0.900000E-01   1.00800           0
     11504 MEMB     87       POPC     C310     CTL2    -0.180000       12.0110           0
     11505 MEMB     87       POPC     H10X     HAL2     0.900000E-01   1.00800           0
     11506 MEMB     87       POPC     H10Y     HAL2     0.900000E-01   1.00800           0
     11507 MEMB     87       POPC     C311     CTL2    -0.180000       12.0110           0
     11508 MEMB     87       POPC     H11X     HAL2     0.900000E-01   1.00800           0
     11509 MEMB     87       POPC     H11Y     HAL2     0.900000E-01   1.00800           0
     11510 MEMB     87       POPC     C312     CTL2    -0.180000       12.0110           0
     11511 MEMB     87       POPC     H12X     HAL2     0.900000E-01   1.00800           0
     11512 MEMB     87       POPC     H12Y     HAL2     0.900000E-01   1.00800           0
     11513 MEMB     87       POPC     C313     CTL2    -0.180000       12.0110           0
     11514 MEMB     87       POPC     H13X     HAL2     0.900000E-01   1.00800           0
     11515 MEMB     87       POPC     H13Y     HAL2     0.900000E-01   1.00800           0
     11516 MEMB     87       POPC     C314     CTL2    -0.180000       12.0110           0
     11517 MEMB     87       POPC     H14X     HAL2     0.900000E-01   1.00800           0
     11518 MEMB     87       POPC     H14Y     HAL2     0.900000E-01   1.00800           0
     11519 MEMB     87       POPC     C315     CTL2    -0.180000       12.0110           0
     11520 MEMB     87       POPC     H15X     HAL2     0.900000E-01   1.00800           0
     11521 MEMB     87       POPC     H15Y     HAL2     0.900000E-01   1.00800           0
     11522 MEMB     87       POPC     C316     CTL3    -0.270000       12.0110           0
     11523 MEMB     87       POPC     H16X     HAL3     0.900000E-01   1.00800           0
     11524 MEMB     87       POPC     H16Y     HAL3     0.900000E-01   1.00800           0
     11525 MEMB     87       POPC     H16Z     HAL3     0.900000E-01   1.00800           0
     11526 MEMB     88       POPC     N        NTL     -0.600000       14.0070           0
     11527 MEMB     88       POPC     C12      CTL2    -0.100000       12.0110           0
     11528 MEMB     88       POPC     H12A     HL       0.250000       1.00800           0
     11529 MEMB     88       POPC     H12B     HL       0.250000       1.00800           0
     11530 MEMB     88       POPC     C13      CTL5    -0.350000       12.0110           0
     11531 MEMB     88       POPC     H13A     HL       0.250000       1.00800           0
     11532 MEMB     88       POPC     H13B     HL       0.250000       1.00800           0
     11533 MEMB     88       POPC     H13C     HL       0.250000       1.00800           0
     11534 MEMB     88       POPC     C14      CTL5    -0.350000       12.0110           0
     11535 MEMB     88       POPC     H14A     HL       0.250000       1.00800           0
     11536 MEMB     88       POPC     H14B     HL       0.250000       1.00800           0
     11537 MEMB     88       POPC     H14C     HL       0.250000       1.00800           0
     11538 MEMB     88       POPC     C15      CTL5    -0.350000       12.0110           0
     11539 MEMB     88       POPC     H15A     HL       0.250000       1.00800           0
     11540 MEMB     88       POPC     H15B     HL       0.250000       1.00800           0
     11541 MEMB     88       POPC     H15C     HL       0.250000       1.00800           0
     11542 MEMB     88       POPC     C11      CTL2    -0.800000E-01   12.0110           0
     11543 MEMB     88       POPC     H11A     HAL2     0.900000E-01   1.00800           0
     11544 MEMB     88       POPC     H11B     HAL2     0.900000E-01   1.00800           0
     11545 MEMB     88       POPC     P        PL        1.50000       30.9740           0
     11546 MEMB     88       POPC     O13      O2L     -0.780000       15.9994           0
     11547 MEMB     88       POPC     O14      O2L     -0.780000       15.9994           0
     11548 MEMB     88       POPC     O12      OSLP    -0.570000       15.9994           0
     11549 MEMB     88       POPC     O11      OSLP    -0.570000       15.9994           0
     11550 MEMB     88       POPC     C1       CTL2    -0.800000E-01   12.0110           0
     11551 MEMB     88       POPC     HA       HAL2     0.900000E-01   1.00800           0
     11552 MEMB     88       POPC     HB       HAL2     0.900000E-01   1.00800           0
     11553 MEMB     88       POPC     C2       CTL1     0.170000       12.0110           0
     11554 MEMB     88       POPC     HS       HAL1     0.900000E-01   1.00800           0
     11555 MEMB     88       POPC     O21      OSL     -0.490000       15.9994           0
     11556 MEMB     88       POPC     C21      CL       0.900000       12.0110           0
     11557 MEMB     88       POPC     O22      OBL     -0.630000       15.9994           0
     11558 MEMB     88       POPC     C22      CTL2    -0.220000       12.0110           0
     11559 MEMB     88       POPC     H2R      HAL2     0.900000E-01   1.00800           0
     11560 MEMB     88       POPC     H2S      HAL2     0.900000E-01   1.00800           0
     11561 MEMB     88       POPC     C3       CTL2     0.800000E-01   12.0110           0
     11562 MEMB     88       POPC     HX       HAL2     0.900000E-01   1.00800           0
     11563 MEMB     88       POPC     HY       HAL2     0.900000E-01   1.00800           0
     11564 MEMB     88       POPC     O31      OSL     -0.490000       15.9994           0
     11565 MEMB     88       POPC     C31      CL       0.900000       12.0110           0
     11566 MEMB     88       POPC     O32      OBL     -0.630000       15.9994           0
     11567 MEMB     88       POPC     C32      CTL2    -0.220000       12.0110           0
     11568 MEMB     88       POPC     H2X      HAL2     0.900000E-01   1.00800           0
     11569 MEMB     88       POPC     H2Y      HAL2     0.900000E-01   1.00800           0
     11570 MEMB     88       POPC     C23      CTL2    -0.180000       12.0110           0
     11571 MEMB     88       POPC     H3R      HAL2     0.900000E-01   1.00800           0
     11572 MEMB     88       POPC     H3S      HAL2     0.900000E-01   1.00800           0
     11573 MEMB     88       POPC     C24      CTL2    -0.180000       12.0110           0
     11574 MEMB     88       POPC     H4R      HAL2     0.900000E-01   1.00800           0
     11575 MEMB     88       POPC     H4S      HAL2     0.900000E-01   1.00800           0
     11576 MEMB     88       POPC     C25      CTL2    -0.180000       12.0110           0
     11577 MEMB     88       POPC     H5R      HAL2     0.900000E-01   1.00800           0
     11578 MEMB     88       POPC     H5S      HAL2     0.900000E-01   1.00800           0
     11579 MEMB     88       POPC     C26      CTL2    -0.180000       12.0110           0
     11580 MEMB     88       POPC     H6R      HAL2     0.900000E-01   1.00800           0
     11581 MEMB     88       POPC     H6S      HAL2     0.900000E-01   1.00800           0
     11582 MEMB     88       POPC     C27      CTL2    -0.180000       12.0110           0
     11583 MEMB     88       POPC     H7R      HAL2     0.900000E-01   1.00800           0
     11584 MEMB     88       POPC     H7S      HAL2     0.900000E-01   1.00800           0
     11585 MEMB     88       POPC     C28      CTL2    -0.180000       12.0110           0
     11586 MEMB     88       POPC     H8R      HAL2     0.900000E-01   1.00800           0
     11587 MEMB     88       POPC     H8S      HAL2     0.900000E-01   1.00800           0
     11588 MEMB     88       POPC     C29      CEL1    -0.150000       12.0110           0
     11589 MEMB     88       POPC     H91      HEL1     0.150000       1.00800           0
     11590 MEMB     88       POPC     C210     CEL1    -0.150000       12.0110           0
     11591 MEMB     88       POPC     H101     HEL1     0.150000       1.00800           0
     11592 MEMB     88       POPC     C211     CTL2    -0.180000       12.0110           0
     11593 MEMB     88       POPC     H11R     HAL2     0.900000E-01   1.00800           0
     11594 MEMB     88       POPC     H11S     HAL2     0.900000E-01   1.00800           0
     11595 MEMB     88       POPC     C212     CTL2    -0.180000       12.0110           0
     11596 MEMB     88       POPC     H12R     HAL2     0.900000E-01   1.00800           0
     11597 MEMB     88       POPC     H12S     HAL2     0.900000E-01   1.00800           0
     11598 MEMB     88       POPC     C213     CTL2    -0.180000       12.0110           0
     11599 MEMB     88       POPC     H13R     HAL2     0.900000E-01   1.00800           0
     11600 MEMB     88       POPC     H13S     HAL2     0.900000E-01   1.00800           0
     11601 MEMB     88       POPC     C214     CTL2    -0.180000       12.0110           0
     11602 MEMB     88       POPC     H14R     HAL2     0.900000E-01   1.00800           0
     11603 MEMB     88       POPC     H14S     HAL2     0.900000E-01   1.00800           0
     11604 MEMB     88       POPC     C215     CTL2    -0.180000       12.0110           0
     11605 MEMB     88       POPC     H15R     HAL2     0.900000E-01   1.00800           0
     11606 MEMB     88       POPC     H15S     HAL2     0.900000E-01   1.00800           0
     11607 MEMB     88       POPC     C216     CTL2    -0.180000       12.0110           0
     11608 MEMB     88       POPC     H16R     HAL2     0.900000E-01   1.00800           0
     11609 MEMB     88       POPC     H16S     HAL2     0.900000E-01   1.00800           0
     11610 MEMB     88       POPC     C217     CTL2    -0.180000       12.0110           0
     11611 MEMB     88       POPC     H17R     HAL2     0.900000E-01   1.00800           0
     11612 MEMB     88       POPC     H17S     HAL2     0.900000E-01   1.00800           0
     11613 MEMB     88       POPC     C218     CTL3    -0.270000       12.0110           0
     11614 MEMB     88       POPC     H18R     HAL3     0.900000E-01   1.00800           0
     11615 MEMB     88       POPC     H18S     HAL3     0.900000E-01   1.00800           0
     11616 MEMB     88       POPC     H18T     HAL3     0.900000E-01   1.00800           0
     11617 MEMB     88       POPC     C33      CTL2    -0.180000       12.0110           0
     11618 MEMB     88       POPC     H3X      HAL2     0.900000E-01   1.00800           0
     11619 MEMB     88       POPC     H3Y      HAL2     0.900000E-01   1.00800           0
     11620 MEMB     88       POPC     C34      CTL2    -0.180000       12.0110           0
     11621 MEMB     88       POPC     H4X      HAL2     0.900000E-01   1.00800           0
     11622 MEMB     88       POPC     H4Y      HAL2     0.900000E-01   1.00800           0
     11623 MEMB     88       POPC     C35      CTL2    -0.180000       12.0110           0
     11624 MEMB     88       POPC     H5X      HAL2     0.900000E-01   1.00800           0
     11625 MEMB     88       POPC     H5Y      HAL2     0.900000E-01   1.00800           0
     11626 MEMB     88       POPC     C36      CTL2    -0.180000       12.0110           0
     11627 MEMB     88       POPC     H6X      HAL2     0.900000E-01   1.00800           0
     11628 MEMB     88       POPC     H6Y      HAL2     0.900000E-01   1.00800           0
     11629 MEMB     88       POPC     C37      CTL2    -0.180000       12.0110           0
     11630 MEMB     88       POPC     H7X      HAL2     0.900000E-01   1.00800           0
     11631 MEMB     88       POPC     H7Y      HAL2     0.900000E-01   1.00800           0
     11632 MEMB     88       POPC     C38      CTL2    -0.180000       12.0110           0
     11633 MEMB     88       POPC     H8X      HAL2     0.900000E-01   1.00800           0
     11634 MEMB     88       POPC     H8Y      HAL2     0.900000E-01   1.00800           0
     11635 MEMB     88       POPC     C39      CTL2    -0.180000       12.0110           0
     11636 MEMB     88       POPC     H9X      HAL2     0.900000E-01   1.00800           0
     11637 MEMB     88       POPC     H9Y      HAL2     0.900000E-01   1.00800           0
     11638 MEMB     88       POPC     C310     CTL2    -0.180000       12.0110           0
     11639 MEMB     88       POPC     H10X     HAL2     0.900000E-01   1.00800           0
     11640 MEMB     88       POPC     H10Y     HAL2     0.900000E-01   1.00800           0
     11641 MEMB     88       POPC     C311     CTL2    -0.180000       12.0110           0
     11642 MEMB     88       POPC     H11X     HAL2     0.900000E-01   1.00800           0
     11643 MEMB     88       POPC     H11Y     HAL2     0.900000E-01   1.00800           0
     11644 MEMB     88       POPC     C312     CTL2    -0.180000       12.0110           0
     11645 MEMB     88       POPC     H12X     HAL2     0.900000E-01   1.00800           0
     11646 MEMB     88       POPC     H12Y     HAL2     0.900000E-01   1.00800           0
     11647 MEMB     88       POPC     C313     CTL2    -0.180000       12.0110           0
     11648 MEMB     88       POPC     H13X     HAL2     0.900000E-01   1.00800           0
     11649 MEMB     88       POPC     H13Y     HAL2     0.900000E-01   1.00800           0
     11650 MEMB     88       POPC     C314     CTL2    -0.180000       12.0110           0
     11651 MEMB     88       POPC     H14X     HAL2     0.900000E-01   1.00800           0
     11652 MEMB     88       POPC     H14Y     HAL2     0.900000E-01   1.00800           0
     11653 MEMB     88       POPC     C315     CTL2    -0.180000       12.0110           0
     11654 MEMB     88       POPC     H15X     HAL2     0.900000E-01   1.00800           0
     11655 MEMB     88       POPC     H15Y     HAL2     0.900000E-01   1.00800           0
     11656 MEMB     88       POPC     C316     CTL3    -0.270000       12.0110           0
     11657 MEMB     88       POPC     H16X     HAL3     0.900000E-01   1.00800           0
     11658 MEMB     88       POPC     H16Y     HAL3     0.900000E-01   1.00800           0
     11659 MEMB     88       POPC     H16Z     HAL3     0.900000E-01   1.00800           0
     11660 MEMB     89       POPC     N        NTL     -0.600000       14.0070           0
     11661 MEMB     89       POPC     C12      CTL2    -0.100000       12.0110           0
     11662 MEMB     89       POPC     H12A     HL       0.250000       1.00800           0
     11663 MEMB     89       POPC     H12B     HL       0.250000       1.00800           0
     11664 MEMB     89       POPC     C13      CTL5    -0.350000       12.0110           0
     11665 MEMB     89       POPC     H13A     HL       0.250000       1.00800           0
     11666 MEMB     89       POPC     H13B     HL       0.250000       1.00800           0
     11667 MEMB     89       POPC     H13C     HL       0.250000       1.00800           0
     11668 MEMB     89       POPC     C14      CTL5    -0.350000       12.0110           0
     11669 MEMB     89       POPC     H14A     HL       0.250000       1.00800           0
     11670 MEMB     89       POPC     H14B     HL       0.250000       1.00800           0
     11671 MEMB     89       POPC     H14C     HL       0.250000       1.00800           0
     11672 MEMB     89       POPC     C15      CTL5    -0.350000       12.0110           0
     11673 MEMB     89       POPC     H15A     HL       0.250000       1.00800           0
     11674 MEMB     89       POPC     H15B     HL       0.250000       1.00800           0
     11675 MEMB     89       POPC     H15C     HL       0.250000       1.00800           0
     11676 MEMB     89       POPC     C11      CTL2    -0.800000E-01   12.0110           0
     11677 MEMB     89       POPC     H11A     HAL2     0.900000E-01   1.00800           0
     11678 MEMB     89       POPC     H11B     HAL2     0.900000E-01   1.00800           0
     11679 MEMB     89       POPC     P        PL        1.50000       30.9740           0
     11680 MEMB     89       POPC     O13      O2L     -0.780000       15.9994           0
     11681 MEMB     89       POPC     O14      O2L     -0.780000       15.9994           0
     11682 MEMB     89       POPC     O12      OSLP    -0.570000       15.9994           0
     11683 MEMB     89       POPC     O11      OSLP    -0.570000       15.9994           0
     11684 MEMB     89       POPC     C1       CTL2    -0.800000E-01   12.0110           0
     11685 MEMB     89       POPC     HA       HAL2     0.900000E-01   1.00800           0
     11686 MEMB     89       POPC     HB       HAL2     0.900000E-01   1.00800           0
     11687 MEMB     89       POPC     C2       CTL1     0.170000       12.0110           0
     11688 MEMB     89       POPC     HS       HAL1     0.900000E-01   1.00800           0
     11689 MEMB     89       POPC     O21      OSL     -0.490000       15.9994           0
     11690 MEMB     89       POPC     C21      CL       0.900000       12.0110           0
     11691 MEMB     89       POPC     O22      OBL     -0.630000       15.9994           0
     11692 MEMB     89       POPC     C22      CTL2    -0.220000       12.0110           0
     11693 MEMB     89       POPC     H2R      HAL2     0.900000E-01   1.00800           0
     11694 MEMB     89       POPC     H2S      HAL2     0.900000E-01   1.00800           0
     11695 MEMB     89       POPC     C3       CTL2     0.800000E-01   12.0110           0
     11696 MEMB     89       POPC     HX       HAL2     0.900000E-01   1.00800           0
     11697 MEMB     89       POPC     HY       HAL2     0.900000E-01   1.00800           0
     11698 MEMB     89       POPC     O31      OSL     -0.490000       15.9994           0
     11699 MEMB     89       POPC     C31      CL       0.900000       12.0110           0
     11700 MEMB     89       POPC     O32      OBL     -0.630000       15.9994           0
     11701 MEMB     89       POPC     C32      CTL2    -0.220000       12.0110           0
     11702 MEMB     89       POPC     H2X      HAL2     0.900000E-01   1.00800           0
     11703 MEMB     89       POPC     H2Y      HAL2     0.900000E-01   1.00800           0
     11704 MEMB     89       POPC     C23      CTL2    -0.180000       12.0110           0
     11705 MEMB     89       POPC     H3R      HAL2     0.900000E-01   1.00800           0
     11706 MEMB     89       POPC     H3S      HAL2     0.900000E-01   1.00800           0
     11707 MEMB     89       POPC     C24      CTL2    -0.180000       12.0110           0
     11708 MEMB     89       POPC     H4R      HAL2     0.900000E-01   1.00800           0
     11709 MEMB     89       POPC     H4S      HAL2     0.900000E-01   1.00800           0
     11710 MEMB     89       POPC     C25      CTL2    -0.180000       12.0110           0
     11711 MEMB     89       POPC     H5R      HAL2     0.900000E-01   1.00800           0
     11712 MEMB     89       POPC     H5S      HAL2     0.900000E-01   1.00800           0
     11713 MEMB     89       POPC     C26      CTL2    -0.180000       12.0110           0
     11714 MEMB     89       POPC     H6R      HAL2     0.900000E-01   1.00800           0
     11715 MEMB     89       POPC     H6S      HAL2     0.900000E-01   1.00800           0
     11716 MEMB     89       POPC     C27      CTL2    -0.180000       12.0110           0
     11717 MEMB     89       POPC     H7R      HAL2     0.900000E-01   1.00800           0
     11718 MEMB     89       POPC     H7S      HAL2     0.900000E-01   1.00800           0
     11719 MEMB     89       POPC     C28      CTL2    -0.180000       12.0110           0
     11720 MEMB     89       POPC     H8R      HAL2     0.900000E-01   1.00800           0
     11721 MEMB     89       POPC     H8S      HAL2     0.900000E-01   1.00800           0
     11722 MEMB     89       POPC     C29      CEL1    -0.150000       12.0110           0
     11723 MEMB     89       POPC     H91      HEL1     0.150000       1.00800           0
     11724 MEMB     89       POPC     C210     CEL1    -0.150000       12.0110           0
     11725 MEMB     89       POPC     H101     HEL1     0.150000       1.00800           0
     11726 MEMB     89       POPC     C211     CTL2    -0.180000       12.0110           0
     11727 MEMB     89       POPC     H11R     HAL2     0.900000E-01   1.00800           0
     11728 MEMB     89       POPC     H11S     HAL2     0.900000E-01   1.00800           0
     11729 MEMB     89       POPC     C212     CTL2    -0.180000       12.0110           0
     11730 MEMB     89       POPC     H12R     HAL2     0.900000E-01   1.00800           0
     11731 MEMB     89       POPC     H12S     HAL2     0.900000E-01   1.00800           0
     11732 MEMB     89       POPC     C213     CTL2    -0.180000       12.0110           0
     11733 MEMB     89       POPC     H13R     HAL2     0.900000E-01   1.00800           0
     11734 MEMB     89       POPC     H13S     HAL2     0.900000E-01   1.00800           0
     11735 MEMB     89       POPC     C214     CTL2    -0.180000       12.0110           0
     11736 MEMB     89       POPC     H14R     HAL2     0.900000E-01   1.00800           0
     11737 MEMB     89       POPC     H14S     HAL2     0.900000E-01   1.00800           0
     11738 MEMB     89       POPC     C215     CTL2    -0.180000       12.0110           0
     11739 MEMB     89       POPC     H15R     HAL2     0.900000E-01   1.00800           0
     11740 MEMB     89       POPC     H15S     HAL2     0.900000E-01   1.00800           0
     11741 MEMB     89       POPC     C216     CTL2    -0.180000       12.0110           0
     11742 MEMB     89       POPC     H16R     HAL2     0.900000E-01   1.00800           0
     11743 MEMB     89       POPC     H16S     HAL2     0.900000E-01   1.00800           0
     11744 MEMB     89       POPC     C217     CTL2    -0.180000       12.0110           0
     11745 MEMB     89       POPC     H17R     HAL2     0.900000E-01   1.00800           0
     11746 MEMB     89       POPC     H17S     HAL2     0.900000E-01   1.00800           0
     11747 MEMB     89       POPC     C218     CTL3    -0.270000       12.0110           0
     11748 MEMB     89       POPC     H18R     HAL3     0.900000E-01   1.00800           0
     11749 MEMB     89       POPC     H18S     HAL3     0.900000E-01   1.00800           0
     11750 MEMB     89       POPC     H18T     HAL3     0.900000E-01   1.00800           0
     11751 MEMB     89       POPC     C33      CTL2    -0.180000       12.0110           0
     11752 MEMB     89       POPC     H3X      HAL2     0.900000E-01   1.00800           0
     11753 MEMB     89       POPC     H3Y      HAL2     0.900000E-01   1.00800           0
     11754 MEMB     89       POPC     C34      CTL2    -0.180000       12.0110           0
     11755 MEMB     89       POPC     H4X      HAL2     0.900000E-01   1.00800           0
     11756 MEMB     89       POPC     H4Y      HAL2     0.900000E-01   1.00800           0
     11757 MEMB     89       POPC     C35      CTL2    -0.180000       12.0110           0
     11758 MEMB     89       POPC     H5X      HAL2     0.900000E-01   1.00800           0
     11759 MEMB     89       POPC     H5Y      HAL2     0.900000E-01   1.00800           0
     11760 MEMB     89       POPC     C36      CTL2    -0.180000       12.0110           0
     11761 MEMB     89       POPC     H6X      HAL2     0.900000E-01   1.00800           0
     11762 MEMB     89       POPC     H6Y      HAL2     0.900000E-01   1.00800           0
     11763 MEMB     89       POPC     C37      CTL2    -0.180000       12.0110           0
     11764 MEMB     89       POPC     H7X      HAL2     0.900000E-01   1.00800           0
     11765 MEMB     89       POPC     H7Y      HAL2     0.900000E-01   1.00800           0
     11766 MEMB     89       POPC     C38      CTL2    -0.180000       12.0110           0
     11767 MEMB     89       POPC     H8X      HAL2     0.900000E-01   1.00800           0
     11768 MEMB     89       POPC     H8Y      HAL2     0.900000E-01   1.00800           0
     11769 MEMB     89       POPC     C39      CTL2    -0.180000       12.0110           0
     11770 MEMB     89       POPC     H9X      HAL2     0.900000E-01   1.00800           0
     11771 MEMB     89       POPC     H9Y      HAL2     0.900000E-01   1.00800           0
     11772 MEMB     89       POPC     C310     CTL2    -0.180000       12.0110           0
     11773 MEMB     89       POPC     H10X     HAL2     0.900000E-01   1.00800           0
     11774 MEMB     89       POPC     H10Y     HAL2     0.900000E-01   1.00800           0
     11775 MEMB     89       POPC     C311     CTL2    -0.180000       12.0110           0
     11776 MEMB     89       POPC     H11X     HAL2     0.900000E-01   1.00800           0
     11777 MEMB     89       POPC     H11Y     HAL2     0.900000E-01   1.00800           0
     11778 MEMB     89       POPC     C312     CTL2    -0.180000       12.0110           0
     11779 MEMB     89       POPC     H12X     HAL2     0.900000E-01   1.00800           0
     11780 MEMB     89       POPC     H12Y     HAL2     0.900000E-01   1.00800           0
     11781 MEMB     89       POPC     C313     CTL2    -0.180000       12.0110           0
     11782 MEMB     89       POPC     H13X     HAL2     0.900000E-01   1.00800           0
     11783 MEMB     89       POPC     H13Y     HAL2     0.900000E-01   1.00800           0
     11784 MEMB     89       POPC     C314     CTL2    -0.180000       12.0110           0
     11785 MEMB     89       POPC     H14X     HAL2     0.900000E-01   1.00800           0
     11786 MEMB     89       POPC     H14Y     HAL2     0.900000E-01   1.00800           0
     11787 MEMB     89       POPC     C315     CTL2    -0.180000       12.0110           0
     11788 MEMB     89       POPC     H15X     HAL2     0.900000E-01   1.00800           0
     11789 MEMB     89       POPC     H15Y     HAL2     0.900000E-01   1.00800           0
     11790 MEMB     89       POPC     C316     CTL3    -0.270000       12.0110           0
     11791 MEMB     89       POPC     H16X     HAL3     0.900000E-01   1.00800           0
     11792 MEMB     89       POPC     H16Y     HAL3     0.900000E-01   1.00800           0
     11793 MEMB     89       POPC     H16Z     HAL3     0.900000E-01   1.00800           0
     11794 MEMB     90       POPC     N        NTL     -0.600000       14.0070           0
     11795 MEMB     90       POPC     C12      CTL2    -0.100000       12.0110           0
     11796 MEMB     90       POPC     H12A     HL       0.250000       1.00800           0
     11797 MEMB     90       POPC     H12B     HL       0.250000       1.00800           0
     11798 MEMB     90       POPC     C13      CTL5    -0.350000       12.0110           0
     11799 MEMB     90       POPC     H13A     HL       0.250000       1.00800           0
     11800 MEMB     90       POPC     H13B     HL       0.250000       1.00800           0
     11801 MEMB     90       POPC     H13C     HL       0.250000       1.00800           0
     11802 MEMB     90       POPC     C14      CTL5    -0.350000       12.0110           0
     11803 MEMB     90       POPC     H14A     HL       0.250000       1.00800           0
     11804 MEMB     90       POPC     H14B     HL       0.250000       1.00800           0
     11805 MEMB     90       POPC     H14C     HL       0.250000       1.00800           0
     11806 MEMB     90       POPC     C15      CTL5    -0.350000       12.0110           0
     11807 MEMB     90       POPC     H15A     HL       0.250000       1.00800           0
     11808 MEMB     90       POPC     H15B     HL       0.250000       1.00800           0
     11809 MEMB     90       POPC     H15C     HL       0.250000       1.00800           0
     11810 MEMB     90       POPC     C11      CTL2    -0.800000E-01   12.0110           0
     11811 MEMB     90       POPC     H11A     HAL2     0.900000E-01   1.00800           0
     11812 MEMB     90       POPC     H11B     HAL2     0.900000E-01   1.00800           0
     11813 MEMB     90       POPC     P        PL        1.50000       30.9740           0
     11814 MEMB     90       POPC     O13      O2L     -0.780000       15.9994           0
     11815 MEMB     90       POPC     O14      O2L     -0.780000       15.9994           0
     11816 MEMB     90       POPC     O12      OSLP    -0.570000       15.9994           0
     11817 MEMB     90       POPC     O11      OSLP    -0.570000       15.9994           0
     11818 MEMB     90       POPC     C1       CTL2    -0.800000E-01   12.0110           0
     11819 MEMB     90       POPC     HA       HAL2     0.900000E-01   1.00800           0
     11820 MEMB     90       POPC     HB       HAL2     0.900000E-01   1.00800           0
     11821 MEMB     90       POPC     C2       CTL1     0.170000       12.0110           0
     11822 MEMB     90       POPC     HS       HAL1     0.900000E-01   1.00800           0
     11823 MEMB     90       POPC     O21      OSL     -0.490000       15.9994           0
     11824 MEMB     90       POPC     C21      CL       0.900000       12.0110           0
     11825 MEMB     90       POPC     O22      OBL     -0.630000       15.9994           0
     11826 MEMB     90       POPC     C22      CTL2    -0.220000       12.0110           0
     11827 MEMB     90       POPC     H2R      HAL2     0.900000E-01   1.00800           0
     11828 MEMB     90       POPC     H2S      HAL2     0.900000E-01   1.00800           0
     11829 MEMB     90       POPC     C3       CTL2     0.800000E-01   12.0110           0
     11830 MEMB     90       POPC     HX       HAL2     0.900000E-01   1.00800           0
     11831 MEMB     90       POPC     HY       HAL2     0.900000E-01   1.00800           0
     11832 MEMB     90       POPC     O31      OSL     -0.490000       15.9994           0
     11833 MEMB     90       POPC     C31      CL       0.900000       12.0110           0
     11834 MEMB     90       POPC     O32      OBL     -0.630000       15.9994           0
     11835 MEMB     90       POPC     C32      CTL2    -0.220000       12.0110           0
     11836 MEMB     90       POPC     H2X      HAL2     0.900000E-01   1.00800           0
     11837 MEMB     90       POPC     H2Y      HAL2     0.900000E-01   1.00800           0
     11838 MEMB     90       POPC     C23      CTL2    -0.180000       12.0110           0
     11839 MEMB     90       POPC     H3R      HAL2     0.900000E-01   1.00800           0
     11840 MEMB     90       POPC     H3S      HAL2     0.900000E-01   1.00800           0
     11841 MEMB     90       POPC     C24      CTL2    -0.180000       12.0110           0
     11842 MEMB     90       POPC     H4R      HAL2     0.900000E-01   1.00800           0
     11843 MEMB     90       POPC     H4S      HAL2     0.900000E-01   1.00800           0
     11844 MEMB     90       POPC     C25      CTL2    -0.180000       12.0110           0
     11845 MEMB     90       POPC     H5R      HAL2     0.900000E-01   1.00800           0
     11846 MEMB     90       POPC     H5S      HAL2     0.900000E-01   1.00800           0
     11847 MEMB     90       POPC     C26      CTL2    -0.180000       12.0110           0
     11848 MEMB     90       POPC     H6R      HAL2     0.900000E-01   1.00800           0
     11849 MEMB     90       POPC     H6S      HAL2     0.900000E-01   1.00800           0
     11850 MEMB     90       POPC     C27      CTL2    -0.180000       12.0110           0
     11851 MEMB     90       POPC     H7R      HAL2     0.900000E-01   1.00800           0
     11852 MEMB     90       POPC     H7S      HAL2     0.900000E-01   1.00800           0
     11853 MEMB     90       POPC     C28      CTL2    -0.180000       12.0110           0
     11854 MEMB     90       POPC     H8R      HAL2     0.900000E-01   1.00800           0
     11855 MEMB     90       POPC     H8S      HAL2     0.900000E-01   1.00800           0
     11856 MEMB     90       POPC     C29      CEL1    -0.150000       12.0110           0
     11857 MEMB     90       POPC     H91      HEL1     0.150000       1.00800           0
     11858 MEMB     90       POPC     C210     CEL1    -0.150000       12.0110           0
     11859 MEMB     90       POPC     H101     HEL1     0.150000       1.00800           0
     11860 MEMB     90       POPC     C211     CTL2    -0.180000       12.0110           0
     11861 MEMB     90       POPC     H11R     HAL2     0.900000E-01   1.00800           0
     11862 MEMB     90       POPC     H11S     HAL2     0.900000E-01   1.00800           0
     11863 MEMB     90       POPC     C212     CTL2    -0.180000       12.0110           0
     11864 MEMB     90       POPC     H12R     HAL2     0.900000E-01   1.00800           0
     11865 MEMB     90       POPC     H12S     HAL2     0.900000E-01   1.00800           0
     11866 MEMB     90       POPC     C213     CTL2    -0.180000       12.0110           0
     11867 MEMB     90       POPC     H13R     HAL2     0.900000E-01   1.00800           0
     11868 MEMB     90       POPC     H13S     HAL2     0.900000E-01   1.00800           0
     11869 MEMB     90       POPC     C214     CTL2    -0.180000       12.0110           0
     11870 MEMB     90       POPC     H14R     HAL2     0.900000E-01   1.00800           0
     11871 MEMB     90       POPC     H14S     HAL2     0.900000E-01   1.00800           0
     11872 MEMB     90       POPC     C215     CTL2    -0.180000       12.0110           0
     11873 MEMB     90       POPC     H15R     HAL2     0.900000E-01   1.00800           0
     11874 MEMB     90       POPC     H15S     HAL2     0.900000E-01   1.00800           0
     11875 MEMB     90       POPC     C216     CTL2    -0.180000       12.0110           0
     11876 MEMB     90       POPC     H16R     HAL2     0.900000E-01   1.00800           0
     11877 MEMB     90       POPC     H16S     HAL2     0.900000E-01   1.00800           0
     11878 MEMB     90       POPC     C217     CTL2    -0.180000       12.0110           0
     11879 MEMB     90       POPC     H17R     HAL2     0.900000E-01   1.00800           0
     11880 MEMB     90       POPC     H17S     HAL2     0.900000E-01   1.00800           0
     11881 MEMB     90       POPC     C218     CTL3    -0.270000       12.0110           0
     11882 MEMB     90       POPC     H18R     HAL3     0.900000E-01   1.00800           0
     11883 MEMB     90       POPC     H18S     HAL3     0.900000E-01   1.00800           0
     11884 MEMB     90       POPC     H18T     HAL3     0.900000E-01   1.00800           0
     11885 MEMB     90       POPC     C33      CTL2    -0.180000       12.0110           0
     11886 MEMB     90       POPC     H3X      HAL2     0.900000E-01   1.00800           0
     11887 MEMB     90       POPC     H3Y      HAL2     0.900000E-01   1.00800           0
     11888 MEMB     90       POPC     C34      CTL2    -0.180000       12.0110           0
     11889 MEMB     90       POPC     H4X      HAL2     0.900000E-01   1.00800           0
     11890 MEMB     90       POPC     H4Y      HAL2     0.900000E-01   1.00800           0
     11891 MEMB     90       POPC     C35      CTL2    -0.180000       12.0110           0
     11892 MEMB     90       POPC     H5X      HAL2     0.900000E-01   1.00800           0
     11893 MEMB     90       POPC     H5Y      HAL2     0.900000E-01   1.00800           0
     11894 MEMB     90       POPC     C36      CTL2    -0.180000       12.0110           0
     11895 MEMB     90       POPC     H6X      HAL2     0.900000E-01   1.00800           0
     11896 MEMB     90       POPC     H6Y      HAL2     0.900000E-01   1.00800           0
     11897 MEMB     90       POPC     C37      CTL2    -0.180000       12.0110           0
     11898 MEMB     90       POPC     H7X      HAL2     0.900000E-01   1.00800           0
     11899 MEMB     90       POPC     H7Y      HAL2     0.900000E-01   1.00800           0
     11900 MEMB     90       POPC     C38      CTL2    -0.180000       12.0110           0
     11901 MEMB     90       POPC     H8X      HAL2     0.900000E-01   1.00800           0
     11902 MEMB     90       POPC     H8Y      HAL2     0.900000E-01   1.00800           0
     11903 MEMB     90       POPC     C39      CTL2    -0.180000       12.0110           0
     11904 MEMB     90       POPC     H9X      HAL2     0.900000E-01   1.00800           0
     11905 MEMB     90       POPC     H9Y      HAL2     0.900000E-01   1.00800           0
     11906 MEMB     90       POPC     C310     CTL2    -0.180000       12.0110           0
     11907 MEMB     90       POPC     H10X     HAL2     0.900000E-01   1.00800           0
     11908 MEMB     90       POPC     H10Y     HAL2     0.900000E-01   1.00800           0
     11909 MEMB     90       POPC     C311     CTL2    -0.180000       12.0110           0
     11910 MEMB     90       POPC     H11X     HAL2     0.900000E-01   1.00800           0
     11911 MEMB     90       POPC     H11Y     HAL2     0.900000E-01   1.00800           0
     11912 MEMB     90       POPC     C312     CTL2    -0.180000       12.0110           0
     11913 MEMB     90       POPC     H12X     HAL2     0.900000E-01   1.00800           0
     11914 MEMB     90       POPC     H12Y     HAL2     0.900000E-01   1.00800           0
     11915 MEMB     90       POPC     C313     CTL2    -0.180000       12.0110           0
     11916 MEMB     90       POPC     H13X     HAL2     0.900000E-01   1.00800           0
     11917 MEMB     90       POPC     H13Y     HAL2     0.900000E-01   1.00800           0
     11918 MEMB     90       POPC     C314     CTL2    -0.180000       12.0110           0
     11919 MEMB     90       POPC     H14X     HAL2     0.900000E-01   1.00800           0
     11920 MEMB     90       POPC     H14Y     HAL2     0.900000E-01   1.00800           0
     11921 MEMB     90       POPC     C315     CTL2    -0.180000       12.0110           0
     11922 MEMB     90       POPC     H15X     HAL2     0.900000E-01   1.00800           0
     11923 MEMB     90       POPC     H15Y     HAL2     0.900000E-01   1.00800           0
     11924 MEMB     90       POPC     C316     CTL3    -0.270000       12.0110           0
     11925 MEMB     90       POPC     H16X     HAL3     0.900000E-01   1.00800           0
     11926 MEMB     90       POPC     H16Y     HAL3     0.900000E-01   1.00800           0
     11927 MEMB     90       POPC     H16Z     HAL3     0.900000E-01   1.00800           0
     11928 MEMB     91       POPC     N        NTL     -0.600000       14.0070           0
     11929 MEMB     91       POPC     C12      CTL2    -0.100000       12.0110           0
     11930 MEMB     91       POPC     H12A     HL       0.250000       1.00800           0
     11931 MEMB     91       POPC     H12B     HL       0.250000       1.00800           0
     11932 MEMB     91       POPC     C13      CTL5    -0.350000       12.0110           0
     11933 MEMB     91       POPC     H13A     HL       0.250000       1.00800           0
     11934 MEMB     91       POPC     H13B     HL       0.250000       1.00800           0
     11935 MEMB     91       POPC     H13C     HL       0.250000       1.00800           0
     11936 MEMB     91       POPC     C14      CTL5    -0.350000       12.0110           0
     11937 MEMB     91       POPC     H14A     HL       0.250000       1.00800           0
     11938 MEMB     91       POPC     H14B     HL       0.250000       1.00800           0
     11939 MEMB     91       POPC     H14C     HL       0.250000       1.00800           0
     11940 MEMB     91       POPC     C15      CTL5    -0.350000       12.0110           0
     11941 MEMB     91       POPC     H15A     HL       0.250000       1.00800           0
     11942 MEMB     91       POPC     H15B     HL       0.250000       1.00800           0
     11943 MEMB     91       POPC     H15C     HL       0.250000       1.00800           0
     11944 MEMB     91       POPC     C11      CTL2    -0.800000E-01   12.0110           0
     11945 MEMB     91       POPC     H11A     HAL2     0.900000E-01   1.00800           0
     11946 MEMB     91       POPC     H11B     HAL2     0.900000E-01   1.00800           0
     11947 MEMB     91       POPC     P        PL        1.50000       30.9740           0
     11948 MEMB     91       POPC     O13      O2L     -0.780000       15.9994           0
     11949 MEMB     91       POPC     O14      O2L     -0.780000       15.9994           0
     11950 MEMB     91       POPC     O12      OSLP    -0.570000       15.9994           0
     11951 MEMB     91       POPC     O11      OSLP    -0.570000       15.9994           0
     11952 MEMB     91       POPC     C1       CTL2    -0.800000E-01   12.0110           0
     11953 MEMB     91       POPC     HA       HAL2     0.900000E-01   1.00800           0
     11954 MEMB     91       POPC     HB       HAL2     0.900000E-01   1.00800           0
     11955 MEMB     91       POPC     C2       CTL1     0.170000       12.0110           0
     11956 MEMB     91       POPC     HS       HAL1     0.900000E-01   1.00800           0
     11957 MEMB     91       POPC     O21      OSL     -0.490000       15.9994           0
     11958 MEMB     91       POPC     C21      CL       0.900000       12.0110           0
     11959 MEMB     91       POPC     O22      OBL     -0.630000       15.9994           0
     11960 MEMB     91       POPC     C22      CTL2    -0.220000       12.0110           0
     11961 MEMB     91       POPC     H2R      HAL2     0.900000E-01   1.00800           0
     11962 MEMB     91       POPC     H2S      HAL2     0.900000E-01   1.00800           0
     11963 MEMB     91       POPC     C3       CTL2     0.800000E-01   12.0110           0
     11964 MEMB     91       POPC     HX       HAL2     0.900000E-01   1.00800           0
     11965 MEMB     91       POPC     HY       HAL2     0.900000E-01   1.00800           0
     11966 MEMB     91       POPC     O31      OSL     -0.490000       15.9994           0
     11967 MEMB     91       POPC     C31      CL       0.900000       12.0110           0
     11968 MEMB     91       POPC     O32      OBL     -0.630000       15.9994           0
     11969 MEMB     91       POPC     C32      CTL2    -0.220000       12.0110           0
     11970 MEMB     91       POPC     H2X      HAL2     0.900000E-01   1.00800           0
     11971 MEMB     91       POPC     H2Y      HAL2     0.900000E-01   1.00800           0
     11972 MEMB     91       POPC     C23      CTL2    -0.180000       12.0110           0
     11973 MEMB     91       POPC     H3R      HAL2     0.900000E-01   1.00800           0
     11974 MEMB     91       POPC     H3S      HAL2     0.900000E-01   1.00800           0
     11975 MEMB     91       POPC     C24      CTL2    -0.180000       12.0110           0
     11976 MEMB     91       POPC     H4R      HAL2     0.900000E-01   1.00800           0
     11977 MEMB     91       POPC     H4S      HAL2     0.900000E-01   1.00800           0
     11978 MEMB     91       POPC     C25      CTL2    -0.180000       12.0110           0
     11979 MEMB     91       POPC     H5R      HAL2     0.900000E-01   1.00800           0
     11980 MEMB     91       POPC     H5S      HAL2     0.900000E-01   1.00800           0
     11981 MEMB     91       POPC     C26      CTL2    -0.180000       12.0110           0
     11982 MEMB     91       POPC     H6R      HAL2     0.900000E-01   1.00800           0
     11983 MEMB     91       POPC     H6S      HAL2     0.900000E-01   1.00800           0
     11984 MEMB     91       POPC     C27      CTL2    -0.180000       12.0110           0
     11985 MEMB     91       POPC     H7R      HAL2     0.900000E-01   1.00800           0
     11986 MEMB     91       POPC     H7S      HAL2     0.900000E-01   1.00800           0
     11987 MEMB     91       POPC     C28      CTL2    -0.180000       12.0110           0
     11988 MEMB     91       POPC     H8R      HAL2     0.900000E-01   1.00800           0
     11989 MEMB     91       POPC     H8S      HAL2     0.900000E-01   1.00800           0
     11990 MEMB     91       POPC     C29      CEL1    -0.150000       12.0110           0
     11991 MEMB     91       POPC     H91      HEL1     0.150000       1.00800           0
     11992 MEMB     91       POPC     C210     CEL1    -0.150000       12.0110           0
     11993 MEMB     91       POPC     H101     HEL1     0.150000       1.00800           0
     11994 MEMB     91       POPC     C211     CTL2    -0.180000       12.0110           0
     11995 MEMB     91       POPC     H11R     HAL2     0.900000E-01   1.00800           0
     11996 MEMB     91       POPC     H11S     HAL2     0.900000E-01   1.00800           0
     11997 MEMB     91       POPC     C212     CTL2    -0.180000       12.0110           0
     11998 MEMB     91       POPC     H12R     HAL2     0.900000E-01   1.00800           0
     11999 MEMB     91       POPC     H12S     HAL2     0.900000E-01   1.00800           0
     12000 MEMB     91       POPC     C213     CTL2    -0.180000       12.0110           0
     12001 MEMB     91       POPC     H13R     HAL2     0.900000E-01   1.00800           0
     12002 MEMB     91       POPC     H13S     HAL2     0.900000E-01   1.00800           0
     12003 MEMB     91       POPC     C214     CTL2    -0.180000       12.0110           0
     12004 MEMB     91       POPC     H14R     HAL2     0.900000E-01   1.00800           0
     12005 MEMB     91       POPC     H14S     HAL2     0.900000E-01   1.00800           0
     12006 MEMB     91       POPC     C215     CTL2    -0.180000       12.0110           0
     12007 MEMB     91       POPC     H15R     HAL2     0.900000E-01   1.00800           0
     12008 MEMB     91       POPC     H15S     HAL2     0.900000E-01   1.00800           0
     12009 MEMB     91       POPC     C216     CTL2    -0.180000       12.0110           0
     12010 MEMB     91       POPC     H16R     HAL2     0.900000E-01   1.00800           0
     12011 MEMB     91       POPC     H16S     HAL2     0.900000E-01   1.00800           0
     12012 MEMB     91       POPC     C217     CTL2    -0.180000       12.0110           0
     12013 MEMB     91       POPC     H17R     HAL2     0.900000E-01   1.00800           0
     12014 MEMB     91       POPC     H17S     HAL2     0.900000E-01   1.00800           0
     12015 MEMB     91       POPC     C218     CTL3    -0.270000       12.0110           0
     12016 MEMB     91       POPC     H18R     HAL3     0.900000E-01   1.00800           0
     12017 MEMB     91       POPC     H18S     HAL3     0.900000E-01   1.00800           0
     12018 MEMB     91       POPC     H18T     HAL3     0.900000E-01   1.00800           0
     12019 MEMB     91       POPC     C33      CTL2    -0.180000       12.0110           0
     12020 MEMB     91       POPC     H3X      HAL2     0.900000E-01   1.00800           0
     12021 MEMB     91       POPC     H3Y      HAL2     0.900000E-01   1.00800           0
     12022 MEMB     91       POPC     C34      CTL2    -0.180000       12.0110           0
     12023 MEMB     91       POPC     H4X      HAL2     0.900000E-01   1.00800           0
     12024 MEMB     91       POPC     H4Y      HAL2     0.900000E-01   1.00800           0
     12025 MEMB     91       POPC     C35      CTL2    -0.180000       12.0110           0
     12026 MEMB     91       POPC     H5X      HAL2     0.900000E-01   1.00800           0
     12027 MEMB     91       POPC     H5Y      HAL2     0.900000E-01   1.00800           0
     12028 MEMB     91       POPC     C36      CTL2    -0.180000       12.0110           0
     12029 MEMB     91       POPC     H6X      HAL2     0.900000E-01   1.00800           0
     12030 MEMB     91       POPC     H6Y      HAL2     0.900000E-01   1.00800           0
     12031 MEMB     91       POPC     C37      CTL2    -0.180000       12.0110           0
     12032 MEMB     91       POPC     H7X      HAL2     0.900000E-01   1.00800           0
     12033 MEMB     91       POPC     H7Y      HAL2     0.900000E-01   1.00800           0
     12034 MEMB     91       POPC     C38      CTL2    -0.180000       12.0110           0
     12035 MEMB     91       POPC     H8X      HAL2     0.900000E-01   1.00800           0
     12036 MEMB     91       POPC     H8Y      HAL2     0.900000E-01   1.00800           0
     12037 MEMB     91       POPC     C39      CTL2    -0.180000       12.0110           0
     12038 MEMB     91       POPC     H9X      HAL2     0.900000E-01   1.00800           0
     12039 MEMB     91       POPC     H9Y      HAL2     0.900000E-01   1.00800           0
     12040 MEMB     91       POPC     C310     CTL2    -0.180000       12.0110           0
     12041 MEMB     91       POPC     H10X     HAL2     0.900000E-01   1.00800           0
     12042 MEMB     91       POPC     H10Y     HAL2     0.900000E-01   1.00800           0
     12043 MEMB     91       POPC     C311     CTL2    -0.180000       12.0110           0
     12044 MEMB     91       POPC     H11X     HAL2     0.900000E-01   1.00800           0
     12045 MEMB     91       POPC     H11Y     HAL2     0.900000E-01   1.00800           0
     12046 MEMB     91       POPC     C312     CTL2    -0.180000       12.0110           0
     12047 MEMB     91       POPC     H12X     HAL2     0.900000E-01   1.00800           0
     12048 MEMB     91       POPC     H12Y     HAL2     0.900000E-01   1.00800           0
     12049 MEMB     91       POPC     C313     CTL2    -0.180000       12.0110           0
     12050 MEMB     91       POPC     H13X     HAL2     0.900000E-01   1.00800           0
     12051 MEMB     91       POPC     H13Y     HAL2     0.900000E-01   1.00800           0
     12052 MEMB     91       POPC     C314     CTL2    -0.180000       12.0110           0
     12053 MEMB     91       POPC     H14X     HAL2     0.900000E-01   1.00800           0
     12054 MEMB     91       POPC     H14Y     HAL2     0.900000E-01   1.00800           0
     12055 MEMB     91       POPC     C315     CTL2    -0.180000       12.0110           0
     12056 MEMB     91       POPC     H15X     HAL2     0.900000E-01   1.00800           0
     12057 MEMB     91       POPC     H15Y     HAL2     0.900000E-01   1.00800           0
     12058 MEMB     91       POPC     C316     CTL3    -0.270000       12.0110           0
     12059 MEMB     91       POPC     H16X     HAL3     0.900000E-01   1.00800           0
     12060 MEMB     91       POPC     H16Y     HAL3     0.900000E-01   1.00800           0
     12061 MEMB     91       POPC     H16Z     HAL3     0.900000E-01   1.00800           0
     12062 MEMB     92       POPS     N        NH3L    -0.300000       14.0070           0
     12063 MEMB     92       POPS     HN1      HCL      0.330000       1.00800           0
     12064 MEMB     92       POPS     HN2      HCL      0.330000       1.00800           0
     12065 MEMB     92       POPS     HN3      HCL      0.330000       1.00800           0
     12066 MEMB     92       POPS     C12      CTL1     0.210000       12.0110           0
     12067 MEMB     92       POPS     H12A     HBL      0.100000       1.00800           0
     12068 MEMB     92       POPS     C13      CCL      0.340000       12.0110           0
     12069 MEMB     92       POPS     O13A     OCL     -0.670000       15.9994           0
     12070 MEMB     92       POPS     O13B     OCL     -0.670000       15.9994           0
     12071 MEMB     92       POPS     C11      CTL2    -0.800000E-01   12.0110           0
     12072 MEMB     92       POPS     H11A     HAL2     0.900000E-01   1.00800           0
     12073 MEMB     92       POPS     H11B     HAL2     0.900000E-01   1.00800           0
     12074 MEMB     92       POPS     P        PL        1.50000       30.9740           0
     12075 MEMB     92       POPS     O13      O2L     -0.780000       15.9994           0
     12076 MEMB     92       POPS     O14      O2L     -0.780000       15.9994           0
     12077 MEMB     92       POPS     O12      OSLP    -0.570000       15.9994           0
     12078 MEMB     92       POPS     O11      OSLP    -0.570000       15.9994           0
     12079 MEMB     92       POPS     C1       CTL2    -0.800000E-01   12.0110           0
     12080 MEMB     92       POPS     HA       HAL2     0.900000E-01   1.00800           0
     12081 MEMB     92       POPS     HB       HAL2     0.900000E-01   1.00800           0
     12082 MEMB     92       POPS     C2       CTL1     0.170000       12.0110           0
     12083 MEMB     92       POPS     HS       HAL1     0.900000E-01   1.00800           0
     12084 MEMB     92       POPS     O21      OSL     -0.490000       15.9994           0
     12085 MEMB     92       POPS     C21      CL       0.900000       12.0110           0
     12086 MEMB     92       POPS     O22      OBL     -0.630000       15.9994           0
     12087 MEMB     92       POPS     C22      CTL2    -0.220000       12.0110           0
     12088 MEMB     92       POPS     H2R      HAL2     0.900000E-01   1.00800           0
     12089 MEMB     92       POPS     H2S      HAL2     0.900000E-01   1.00800           0
     12090 MEMB     92       POPS     C3       CTL2     0.800000E-01   12.0110           0
     12091 MEMB     92       POPS     HX       HAL2     0.900000E-01   1.00800           0
     12092 MEMB     92       POPS     HY       HAL2     0.900000E-01   1.00800           0
     12093 MEMB     92       POPS     O31      OSL     -0.490000       15.9994           0
     12094 MEMB     92       POPS     C31      CL       0.900000       12.0110           0
     12095 MEMB     92       POPS     O32      OBL     -0.630000       15.9994           0
     12096 MEMB     92       POPS     C32      CTL2    -0.220000       12.0110           0
     12097 MEMB     92       POPS     H2X      HAL2     0.900000E-01   1.00800           0
     12098 MEMB     92       POPS     H2Y      HAL2     0.900000E-01   1.00800           0
     12099 MEMB     92       POPS     C23      CTL2    -0.180000       12.0110           0
     12100 MEMB     92       POPS     H3R      HAL2     0.900000E-01   1.00800           0
     12101 MEMB     92       POPS     H3S      HAL2     0.900000E-01   1.00800           0
     12102 MEMB     92       POPS     C24      CTL2    -0.180000       12.0110           0
     12103 MEMB     92       POPS     H4R      HAL2     0.900000E-01   1.00800           0
     12104 MEMB     92       POPS     H4S      HAL2     0.900000E-01   1.00800           0
     12105 MEMB     92       POPS     C25      CTL2    -0.180000       12.0110           0
     12106 MEMB     92       POPS     H5R      HAL2     0.900000E-01   1.00800           0
     12107 MEMB     92       POPS     H5S      HAL2     0.900000E-01   1.00800           0
     12108 MEMB     92       POPS     C26      CTL2    -0.180000       12.0110           0
     12109 MEMB     92       POPS     H6R      HAL2     0.900000E-01   1.00800           0
     12110 MEMB     92       POPS     H6S      HAL2     0.900000E-01   1.00800           0
     12111 MEMB     92       POPS     C27      CTL2    -0.180000       12.0110           0
     12112 MEMB     92       POPS     H7R      HAL2     0.900000E-01   1.00800           0
     12113 MEMB     92       POPS     H7S      HAL2     0.900000E-01   1.00800           0
     12114 MEMB     92       POPS     C28      CTL2    -0.180000       12.0110           0
     12115 MEMB     92       POPS     H8R      HAL2     0.900000E-01   1.00800           0
     12116 MEMB     92       POPS     H8S      HAL2     0.900000E-01   1.00800           0
     12117 MEMB     92       POPS     C29      CEL1    -0.150000       12.0110           0
     12118 MEMB     92       POPS     H91      HEL1     0.150000       1.00800           0
     12119 MEMB     92       POPS     C210     CEL1    -0.150000       12.0110           0
     12120 MEMB     92       POPS     H101     HEL1     0.150000       1.00800           0
     12121 MEMB     92       POPS     C211     CTL2    -0.180000       12.0110           0
     12122 MEMB     92       POPS     H11R     HAL2     0.900000E-01   1.00800           0
     12123 MEMB     92       POPS     H11S     HAL2     0.900000E-01   1.00800           0
     12124 MEMB     92       POPS     C212     CTL2    -0.180000       12.0110           0
     12125 MEMB     92       POPS     H12R     HAL2     0.900000E-01   1.00800           0
     12126 MEMB     92       POPS     H12S     HAL2     0.900000E-01   1.00800           0
     12127 MEMB     92       POPS     C213     CTL2    -0.180000       12.0110           0
     12128 MEMB     92       POPS     H13R     HAL2     0.900000E-01   1.00800           0
     12129 MEMB     92       POPS     H13S     HAL2     0.900000E-01   1.00800           0
     12130 MEMB     92       POPS     C214     CTL2    -0.180000       12.0110           0
     12131 MEMB     92       POPS     H14R     HAL2     0.900000E-01   1.00800           0
     12132 MEMB     92       POPS     H14S     HAL2     0.900000E-01   1.00800           0
     12133 MEMB     92       POPS     C215     CTL2    -0.180000       12.0110           0
     12134 MEMB     92       POPS     H15R     HAL2     0.900000E-01   1.00800           0
     12135 MEMB     92       POPS     H15S     HAL2     0.900000E-01   1.00800           0
     12136 MEMB     92       POPS     C216     CTL2    -0.180000       12.0110           0
     12137 MEMB     92       POPS     H16R     HAL2     0.900000E-01   1.00800           0
     12138 MEMB     92       POPS     H16S     HAL2     0.900000E-01   1.00800           0
     12139 MEMB     92       POPS     C217     CTL2    -0.180000       12.0110           0
     12140 MEMB     92       POPS     H17R     HAL2     0.900000E-01   1.00800           0
     12141 MEMB     92       POPS     H17S     HAL2     0.900000E-01   1.00800           0
     12142 MEMB     92       POPS     C218     CTL3    -0.270000       12.0110           0
     12143 MEMB     92       POPS     H18R     HAL3     0.900000E-01   1.00800           0
     12144 MEMB     92       POPS     H18S     HAL3     0.900000E-01   1.00800           0
     12145 MEMB     92       POPS     H18T     HAL3     0.900000E-01   1.00800           0
     12146 MEMB     92       POPS     C33      CTL2    -0.180000       12.0110           0
     12147 MEMB     92       POPS     H3X      HAL2     0.900000E-01   1.00800           0
     12148 MEMB     92       POPS     H3Y      HAL2     0.900000E-01   1.00800           0
     12149 MEMB     92       POPS     C34      CTL2    -0.180000       12.0110           0
     12150 MEMB     92       POPS     H4X      HAL2     0.900000E-01   1.00800           0
     12151 MEMB     92       POPS     H4Y      HAL2     0.900000E-01   1.00800           0
     12152 MEMB     92       POPS     C35      CTL2    -0.180000       12.0110           0
     12153 MEMB     92       POPS     H5X      HAL2     0.900000E-01   1.00800           0
     12154 MEMB     92       POPS     H5Y      HAL2     0.900000E-01   1.00800           0
     12155 MEMB     92       POPS     C36      CTL2    -0.180000       12.0110           0
     12156 MEMB     92       POPS     H6X      HAL2     0.900000E-01   1.00800           0
     12157 MEMB     92       POPS     H6Y      HAL2     0.900000E-01   1.00800           0
     12158 MEMB     92       POPS     C37      CTL2    -0.180000       12.0110           0
     12159 MEMB     92       POPS     H7X      HAL2     0.900000E-01   1.00800           0
     12160 MEMB     92       POPS     H7Y      HAL2     0.900000E-01   1.00800           0
     12161 MEMB     92       POPS     C38      CTL2    -0.180000       12.0110           0
     12162 MEMB     92       POPS     H8X      HAL2     0.900000E-01   1.00800           0
     12163 MEMB     92       POPS     H8Y      HAL2     0.900000E-01   1.00800           0
     12164 MEMB     92       POPS     C39      CTL2    -0.180000       12.0110           0
     12165 MEMB     92       POPS     H9X      HAL2     0.900000E-01   1.00800           0
     12166 MEMB     92       POPS     H9Y      HAL2     0.900000E-01   1.00800           0
     12167 MEMB     92       POPS     C310     CTL2    -0.180000       12.0110           0
     12168 MEMB     92       POPS     H10X     HAL2     0.900000E-01   1.00800           0
     12169 MEMB     92       POPS     H10Y     HAL2     0.900000E-01   1.00800           0
     12170 MEMB     92       POPS     C311     CTL2    -0.180000       12.0110           0
     12171 MEMB     92       POPS     H11X     HAL2     0.900000E-01   1.00800           0
     12172 MEMB     92       POPS     H11Y     HAL2     0.900000E-01   1.00800           0
     12173 MEMB     92       POPS     C312     CTL2    -0.180000       12.0110           0
     12174 MEMB     92       POPS     H12X     HAL2     0.900000E-01   1.00800           0
     12175 MEMB     92       POPS     H12Y     HAL2     0.900000E-01   1.00800           0
     12176 MEMB     92       POPS     C313     CTL2    -0.180000       12.0110           0
     12177 MEMB     92       POPS     H13X     HAL2     0.900000E-01   1.00800           0
     12178 MEMB     92       POPS     H13Y     HAL2     0.900000E-01   1.00800           0
     12179 MEMB     92       POPS     C314     CTL2    -0.180000       12.0110           0
     12180 MEMB     92       POPS     H14X     HAL2     0.900000E-01   1.00800           0
     12181 MEMB     92       POPS     H14Y     HAL2     0.900000E-01   1.00800           0
     12182 MEMB     92       POPS     C315     CTL2    -0.180000       12.0110           0
     12183 MEMB     92       POPS     H15X     HAL2     0.900000E-01   1.00800           0
     12184 MEMB     92       POPS     H15Y     HAL2     0.900000E-01   1.00800           0
     12185 MEMB     92       POPS     C316     CTL3    -0.270000       12.0110           0
     12186 MEMB     92       POPS     H16X     HAL3     0.900000E-01   1.00800           0
     12187 MEMB     92       POPS     H16Y     HAL3     0.900000E-01   1.00800           0
     12188 MEMB     92       POPS     H16Z     HAL3     0.900000E-01   1.00800           0
     12189 MEMB     93       POPC     N        NTL     -0.600000       14.0070           0
     12190 MEMB     93       POPC     C12      CTL2    -0.100000       12.0110           0
     12191 MEMB     93       POPC     H12A     HL       0.250000       1.00800           0
     12192 MEMB     93       POPC     H12B     HL       0.250000       1.00800           0
     12193 MEMB     93       POPC     C13      CTL5    -0.350000       12.0110           0
     12194 MEMB     93       POPC     H13A     HL       0.250000       1.00800           0
     12195 MEMB     93       POPC     H13B     HL       0.250000       1.00800           0
     12196 MEMB     93       POPC     H13C     HL       0.250000       1.00800           0
     12197 MEMB     93       POPC     C14      CTL5    -0.350000       12.0110           0
     12198 MEMB     93       POPC     H14A     HL       0.250000       1.00800           0
     12199 MEMB     93       POPC     H14B     HL       0.250000       1.00800           0
     12200 MEMB     93       POPC     H14C     HL       0.250000       1.00800           0
     12201 MEMB     93       POPC     C15      CTL5    -0.350000       12.0110           0
     12202 MEMB     93       POPC     H15A     HL       0.250000       1.00800           0
     12203 MEMB     93       POPC     H15B     HL       0.250000       1.00800           0
     12204 MEMB     93       POPC     H15C     HL       0.250000       1.00800           0
     12205 MEMB     93       POPC     C11      CTL2    -0.800000E-01   12.0110           0
     12206 MEMB     93       POPC     H11A     HAL2     0.900000E-01   1.00800           0
     12207 MEMB     93       POPC     H11B     HAL2     0.900000E-01   1.00800           0
     12208 MEMB     93       POPC     P        PL        1.50000       30.9740           0
     12209 MEMB     93       POPC     O13      O2L     -0.780000       15.9994           0
     12210 MEMB     93       POPC     O14      O2L     -0.780000       15.9994           0
     12211 MEMB     93       POPC     O12      OSLP    -0.570000       15.9994           0
     12212 MEMB     93       POPC     O11      OSLP    -0.570000       15.9994           0
     12213 MEMB     93       POPC     C1       CTL2    -0.800000E-01   12.0110           0
     12214 MEMB     93       POPC     HA       HAL2     0.900000E-01   1.00800           0
     12215 MEMB     93       POPC     HB       HAL2     0.900000E-01   1.00800           0
     12216 MEMB     93       POPC     C2       CTL1     0.170000       12.0110           0
     12217 MEMB     93       POPC     HS       HAL1     0.900000E-01   1.00800           0
     12218 MEMB     93       POPC     O21      OSL     -0.490000       15.9994           0
     12219 MEMB     93       POPC     C21      CL       0.900000       12.0110           0
     12220 MEMB     93       POPC     O22      OBL     -0.630000       15.9994           0
     12221 MEMB     93       POPC     C22      CTL2    -0.220000       12.0110           0
     12222 MEMB     93       POPC     H2R      HAL2     0.900000E-01   1.00800           0
     12223 MEMB     93       POPC     H2S      HAL2     0.900000E-01   1.00800           0
     12224 MEMB     93       POPC     C3       CTL2     0.800000E-01   12.0110           0
     12225 MEMB     93       POPC     HX       HAL2     0.900000E-01   1.00800           0
     12226 MEMB     93       POPC     HY       HAL2     0.900000E-01   1.00800           0
     12227 MEMB     93       POPC     O31      OSL     -0.490000       15.9994           0
     12228 MEMB     93       POPC     C31      CL       0.900000       12.0110           0
     12229 MEMB     93       POPC     O32      OBL     -0.630000       15.9994           0
     12230 MEMB     93       POPC     C32      CTL2    -0.220000       12.0110           0
     12231 MEMB     93       POPC     H2X      HAL2     0.900000E-01   1.00800           0
     12232 MEMB     93       POPC     H2Y      HAL2     0.900000E-01   1.00800           0
     12233 MEMB     93       POPC     C23      CTL2    -0.180000       12.0110           0
     12234 MEMB     93       POPC     H3R      HAL2     0.900000E-01   1.00800           0
     12235 MEMB     93       POPC     H3S      HAL2     0.900000E-01   1.00800           0
     12236 MEMB     93       POPC     C24      CTL2    -0.180000       12.0110           0
     12237 MEMB     93       POPC     H4R      HAL2     0.900000E-01   1.00800           0
     12238 MEMB     93       POPC     H4S      HAL2     0.900000E-01   1.00800           0
     12239 MEMB     93       POPC     C25      CTL2    -0.180000       12.0110           0
     12240 MEMB     93       POPC     H5R      HAL2     0.900000E-01   1.00800           0
     12241 MEMB     93       POPC     H5S      HAL2     0.900000E-01   1.00800           0
     12242 MEMB     93       POPC     C26      CTL2    -0.180000       12.0110           0
     12243 MEMB     93       POPC     H6R      HAL2     0.900000E-01   1.00800           0
     12244 MEMB     93       POPC     H6S      HAL2     0.900000E-01   1.00800           0
     12245 MEMB     93       POPC     C27      CTL2    -0.180000       12.0110           0
     12246 MEMB     93       POPC     H7R      HAL2     0.900000E-01   1.00800           0
     12247 MEMB     93       POPC     H7S      HAL2     0.900000E-01   1.00800           0
     12248 MEMB     93       POPC     C28      CTL2    -0.180000       12.0110           0
     12249 MEMB     93       POPC     H8R      HAL2     0.900000E-01   1.00800           0
     12250 MEMB     93       POPC     H8S      HAL2     0.900000E-01   1.00800           0
     12251 MEMB     93       POPC     C29      CEL1    -0.150000       12.0110           0
     12252 MEMB     93       POPC     H91      HEL1     0.150000       1.00800           0
     12253 MEMB     93       POPC     C210     CEL1    -0.150000       12.0110           0
     12254 MEMB     93       POPC     H101     HEL1     0.150000       1.00800           0
     12255 MEMB     93       POPC     C211     CTL2    -0.180000       12.0110           0
     12256 MEMB     93       POPC     H11R     HAL2     0.900000E-01   1.00800           0
     12257 MEMB     93       POPC     H11S     HAL2     0.900000E-01   1.00800           0
     12258 MEMB     93       POPC     C212     CTL2    -0.180000       12.0110           0
     12259 MEMB     93       POPC     H12R     HAL2     0.900000E-01   1.00800           0
     12260 MEMB     93       POPC     H12S     HAL2     0.900000E-01   1.00800           0
     12261 MEMB     93       POPC     C213     CTL2    -0.180000       12.0110           0
     12262 MEMB     93       POPC     H13R     HAL2     0.900000E-01   1.00800           0
     12263 MEMB     93       POPC     H13S     HAL2     0.900000E-01   1.00800           0
     12264 MEMB     93       POPC     C214     CTL2    -0.180000       12.0110           0
     12265 MEMB     93       POPC     H14R     HAL2     0.900000E-01   1.00800           0
     12266 MEMB     93       POPC     H14S     HAL2     0.900000E-01   1.00800           0
     12267 MEMB     93       POPC     C215     CTL2    -0.180000       12.0110           0
     12268 MEMB     93       POPC     H15R     HAL2     0.900000E-01   1.00800           0
     12269 MEMB     93       POPC     H15S     HAL2     0.900000E-01   1.00800           0
     12270 MEMB     93       POPC     C216     CTL2    -0.180000       12.0110           0
     12271 MEMB     93       POPC     H16R     HAL2     0.900000E-01   1.00800           0
     12272 MEMB     93       POPC     H16S     HAL2     0.900000E-01   1.00800           0
     12273 MEMB     93       POPC     C217     CTL2    -0.180000       12.0110           0
     12274 MEMB     93       POPC     H17R     HAL2     0.900000E-01   1.00800           0
     12275 MEMB     93       POPC     H17S     HAL2     0.900000E-01   1.00800           0
     12276 MEMB     93       POPC     C218     CTL3    -0.270000       12.0110           0
     12277 MEMB     93       POPC     H18R     HAL3     0.900000E-01   1.00800           0
     12278 MEMB     93       POPC     H18S     HAL3     0.900000E-01   1.00800           0
     12279 MEMB     93       POPC     H18T     HAL3     0.900000E-01   1.00800           0
     12280 MEMB     93       POPC     C33      CTL2    -0.180000       12.0110           0
     12281 MEMB     93       POPC     H3X      HAL2     0.900000E-01   1.00800           0
     12282 MEMB     93       POPC     H3Y      HAL2     0.900000E-01   1.00800           0
     12283 MEMB     93       POPC     C34      CTL2    -0.180000       12.0110           0
     12284 MEMB     93       POPC     H4X      HAL2     0.900000E-01   1.00800           0
     12285 MEMB     93       POPC     H4Y      HAL2     0.900000E-01   1.00800           0
     12286 MEMB     93       POPC     C35      CTL2    -0.180000       12.0110           0
     12287 MEMB     93       POPC     H5X      HAL2     0.900000E-01   1.00800           0
     12288 MEMB     93       POPC     H5Y      HAL2     0.900000E-01   1.00800           0
     12289 MEMB     93       POPC     C36      CTL2    -0.180000       12.0110           0
     12290 MEMB     93       POPC     H6X      HAL2     0.900000E-01   1.00800           0
     12291 MEMB     93       POPC     H6Y      HAL2     0.900000E-01   1.00800           0
     12292 MEMB     93       POPC     C37      CTL2    -0.180000       12.0110           0
     12293 MEMB     93       POPC     H7X      HAL2     0.900000E-01   1.00800           0
     12294 MEMB     93       POPC     H7Y      HAL2     0.900000E-01   1.00800           0
     12295 MEMB     93       POPC     C38      CTL2    -0.180000       12.0110           0
     12296 MEMB     93       POPC     H8X      HAL2     0.900000E-01   1.00800           0
     12297 MEMB     93       POPC     H8Y      HAL2     0.900000E-01   1.00800           0
     12298 MEMB     93       POPC     C39      CTL2    -0.180000       12.0110           0
     12299 MEMB     93       POPC     H9X      HAL2     0.900000E-01   1.00800           0
     12300 MEMB     93       POPC     H9Y      HAL2     0.900000E-01   1.00800           0
     12301 MEMB     93       POPC     C310     CTL2    -0.180000       12.0110           0
     12302 MEMB     93       POPC     H10X     HAL2     0.900000E-01   1.00800           0
     12303 MEMB     93       POPC     H10Y     HAL2     0.900000E-01   1.00800           0
     12304 MEMB     93       POPC     C311     CTL2    -0.180000       12.0110           0
     12305 MEMB     93       POPC     H11X     HAL2     0.900000E-01   1.00800           0
     12306 MEMB     93       POPC     H11Y     HAL2     0.900000E-01   1.00800           0
     12307 MEMB     93       POPC     C312     CTL2    -0.180000       12.0110           0
     12308 MEMB     93       POPC     H12X     HAL2     0.900000E-01   1.00800           0
     12309 MEMB     93       POPC     H12Y     HAL2     0.900000E-01   1.00800           0
     12310 MEMB     93       POPC     C313     CTL2    -0.180000       12.0110           0
     12311 MEMB     93       POPC     H13X     HAL2     0.900000E-01   1.00800           0
     12312 MEMB     93       POPC     H13Y     HAL2     0.900000E-01   1.00800           0
     12313 MEMB     93       POPC     C314     CTL2    -0.180000       12.0110           0
     12314 MEMB     93       POPC     H14X     HAL2     0.900000E-01   1.00800           0
     12315 MEMB     93       POPC     H14Y     HAL2     0.900000E-01   1.00800           0
     12316 MEMB     93       POPC     C315     CTL2    -0.180000       12.0110           0
     12317 MEMB     93       POPC     H15X     HAL2     0.900000E-01   1.00800           0
     12318 MEMB     93       POPC     H15Y     HAL2     0.900000E-01   1.00800           0
     12319 MEMB     93       POPC     C316     CTL3    -0.270000       12.0110           0
     12320 MEMB     93       POPC     H16X     HAL3     0.900000E-01   1.00800           0
     12321 MEMB     93       POPC     H16Y     HAL3     0.900000E-01   1.00800           0
     12322 MEMB     93       POPC     H16Z     HAL3     0.900000E-01   1.00800           0
     12323 MEMB     94       POPC     N        NTL     -0.600000       14.0070           0
     12324 MEMB     94       POPC     C12      CTL2    -0.100000       12.0110           0
     12325 MEMB     94       POPC     H12A     HL       0.250000       1.00800           0
     12326 MEMB     94       POPC     H12B     HL       0.250000       1.00800           0
     12327 MEMB     94       POPC     C13      CTL5    -0.350000       12.0110           0
     12328 MEMB     94       POPC     H13A     HL       0.250000       1.00800           0
     12329 MEMB     94       POPC     H13B     HL       0.250000       1.00800           0
     12330 MEMB     94       POPC     H13C     HL       0.250000       1.00800           0
     12331 MEMB     94       POPC     C14      CTL5    -0.350000       12.0110           0
     12332 MEMB     94       POPC     H14A     HL       0.250000       1.00800           0
     12333 MEMB     94       POPC     H14B     HL       0.250000       1.00800           0
     12334 MEMB     94       POPC     H14C     HL       0.250000       1.00800           0
     12335 MEMB     94       POPC     C15      CTL5    -0.350000       12.0110           0
     12336 MEMB     94       POPC     H15A     HL       0.250000       1.00800           0
     12337 MEMB     94       POPC     H15B     HL       0.250000       1.00800           0
     12338 MEMB     94       POPC     H15C     HL       0.250000       1.00800           0
     12339 MEMB     94       POPC     C11      CTL2    -0.800000E-01   12.0110           0
     12340 MEMB     94       POPC     H11A     HAL2     0.900000E-01   1.00800           0
     12341 MEMB     94       POPC     H11B     HAL2     0.900000E-01   1.00800           0
     12342 MEMB     94       POPC     P        PL        1.50000       30.9740           0
     12343 MEMB     94       POPC     O13      O2L     -0.780000       15.9994           0
     12344 MEMB     94       POPC     O14      O2L     -0.780000       15.9994           0
     12345 MEMB     94       POPC     O12      OSLP    -0.570000       15.9994           0
     12346 MEMB     94       POPC     O11      OSLP    -0.570000       15.9994           0
     12347 MEMB     94       POPC     C1       CTL2    -0.800000E-01   12.0110           0
     12348 MEMB     94       POPC     HA       HAL2     0.900000E-01   1.00800           0
     12349 MEMB     94       POPC     HB       HAL2     0.900000E-01   1.00800           0
     12350 MEMB     94       POPC     C2       CTL1     0.170000       12.0110           0
     12351 MEMB     94       POPC     HS       HAL1     0.900000E-01   1.00800           0
     12352 MEMB     94       POPC     O21      OSL     -0.490000       15.9994           0
     12353 MEMB     94       POPC     C21      CL       0.900000       12.0110           0
     12354 MEMB     94       POPC     O22      OBL     -0.630000       15.9994           0
     12355 MEMB     94       POPC     C22      CTL2    -0.220000       12.0110           0
     12356 MEMB     94       POPC     H2R      HAL2     0.900000E-01   1.00800           0
     12357 MEMB     94       POPC     H2S      HAL2     0.900000E-01   1.00800           0
     12358 MEMB     94       POPC     C3       CTL2     0.800000E-01   12.0110           0
     12359 MEMB     94       POPC     HX       HAL2     0.900000E-01   1.00800           0
     12360 MEMB     94       POPC     HY       HAL2     0.900000E-01   1.00800           0
     12361 MEMB     94       POPC     O31      OSL     -0.490000       15.9994           0
     12362 MEMB     94       POPC     C31      CL       0.900000       12.0110           0
     12363 MEMB     94       POPC     O32      OBL     -0.630000       15.9994           0
     12364 MEMB     94       POPC     C32      CTL2    -0.220000       12.0110           0
     12365 MEMB     94       POPC     H2X      HAL2     0.900000E-01   1.00800           0
     12366 MEMB     94       POPC     H2Y      HAL2     0.900000E-01   1.00800           0
     12367 MEMB     94       POPC     C23      CTL2    -0.180000       12.0110           0
     12368 MEMB     94       POPC     H3R      HAL2     0.900000E-01   1.00800           0
     12369 MEMB     94       POPC     H3S      HAL2     0.900000E-01   1.00800           0
     12370 MEMB     94       POPC     C24      CTL2    -0.180000       12.0110           0
     12371 MEMB     94       POPC     H4R      HAL2     0.900000E-01   1.00800           0
     12372 MEMB     94       POPC     H4S      HAL2     0.900000E-01   1.00800           0
     12373 MEMB     94       POPC     C25      CTL2    -0.180000       12.0110           0
     12374 MEMB     94       POPC     H5R      HAL2     0.900000E-01   1.00800           0
     12375 MEMB     94       POPC     H5S      HAL2     0.900000E-01   1.00800           0
     12376 MEMB     94       POPC     C26      CTL2    -0.180000       12.0110           0
     12377 MEMB     94       POPC     H6R      HAL2     0.900000E-01   1.00800           0
     12378 MEMB     94       POPC     H6S      HAL2     0.900000E-01   1.00800           0
     12379 MEMB     94       POPC     C27      CTL2    -0.180000       12.0110           0
     12380 MEMB     94       POPC     H7R      HAL2     0.900000E-01   1.00800           0
     12381 MEMB     94       POPC     H7S      HAL2     0.900000E-01   1.00800           0
     12382 MEMB     94       POPC     C28      CTL2    -0.180000       12.0110           0
     12383 MEMB     94       POPC     H8R      HAL2     0.900000E-01   1.00800           0
     12384 MEMB     94       POPC     H8S      HAL2     0.900000E-01   1.00800           0
     12385 MEMB     94       POPC     C29      CEL1    -0.150000       12.0110           0
     12386 MEMB     94       POPC     H91      HEL1     0.150000       1.00800           0
     12387 MEMB     94       POPC     C210     CEL1    -0.150000       12.0110           0
     12388 MEMB     94       POPC     H101     HEL1     0.150000       1.00800           0
     12389 MEMB     94       POPC     C211     CTL2    -0.180000       12.0110           0
     12390 MEMB     94       POPC     H11R     HAL2     0.900000E-01   1.00800           0
     12391 MEMB     94       POPC     H11S     HAL2     0.900000E-01   1.00800           0
     12392 MEMB     94       POPC     C212     CTL2    -0.180000       12.0110           0
     12393 MEMB     94       POPC     H12R     HAL2     0.900000E-01   1.00800           0
     12394 MEMB     94       POPC     H12S     HAL2     0.900000E-01   1.00800           0
     12395 MEMB     94       POPC     C213     CTL2    -0.180000       12.0110           0
     12396 MEMB     94       POPC     H13R     HAL2     0.900000E-01   1.00800           0
     12397 MEMB     94       POPC     H13S     HAL2     0.900000E-01   1.00800           0
     12398 MEMB     94       POPC     C214     CTL2    -0.180000       12.0110           0
     12399 MEMB     94       POPC     H14R     HAL2     0.900000E-01   1.00800           0
     12400 MEMB     94       POPC     H14S     HAL2     0.900000E-01   1.00800           0
     12401 MEMB     94       POPC     C215     CTL2    -0.180000       12.0110           0
     12402 MEMB     94       POPC     H15R     HAL2     0.900000E-01   1.00800           0
     12403 MEMB     94       POPC     H15S     HAL2     0.900000E-01   1.00800           0
     12404 MEMB     94       POPC     C216     CTL2    -0.180000       12.0110           0
     12405 MEMB     94       POPC     H16R     HAL2     0.900000E-01   1.00800           0
     12406 MEMB     94       POPC     H16S     HAL2     0.900000E-01   1.00800           0
     12407 MEMB     94       POPC     C217     CTL2    -0.180000       12.0110           0
     12408 MEMB     94       POPC     H17R     HAL2     0.900000E-01   1.00800           0
     12409 MEMB     94       POPC     H17S     HAL2     0.900000E-01   1.00800           0
     12410 MEMB     94       POPC     C218     CTL3    -0.270000       12.0110           0
     12411 MEMB     94       POPC     H18R     HAL3     0.900000E-01   1.00800           0
     12412 MEMB     94       POPC     H18S     HAL3     0.900000E-01   1.00800           0
     12413 MEMB     94       POPC     H18T     HAL3     0.900000E-01   1.00800           0
     12414 MEMB     94       POPC     C33      CTL2    -0.180000       12.0110           0
     12415 MEMB     94       POPC     H3X      HAL2     0.900000E-01   1.00800           0
     12416 MEMB     94       POPC     H3Y      HAL2     0.900000E-01   1.00800           0
     12417 MEMB     94       POPC     C34      CTL2    -0.180000       12.0110           0
     12418 MEMB     94       POPC     H4X      HAL2     0.900000E-01   1.00800           0
     12419 MEMB     94       POPC     H4Y      HAL2     0.900000E-01   1.00800           0
     12420 MEMB     94       POPC     C35      CTL2    -0.180000       12.0110           0
     12421 MEMB     94       POPC     H5X      HAL2     0.900000E-01   1.00800           0
     12422 MEMB     94       POPC     H5Y      HAL2     0.900000E-01   1.00800           0
     12423 MEMB     94       POPC     C36      CTL2    -0.180000       12.0110           0
     12424 MEMB     94       POPC     H6X      HAL2     0.900000E-01   1.00800           0
     12425 MEMB     94       POPC     H6Y      HAL2     0.900000E-01   1.00800           0
     12426 MEMB     94       POPC     C37      CTL2    -0.180000       12.0110           0
     12427 MEMB     94       POPC     H7X      HAL2     0.900000E-01   1.00800           0
     12428 MEMB     94       POPC     H7Y      HAL2     0.900000E-01   1.00800           0
     12429 MEMB     94       POPC     C38      CTL2    -0.180000       12.0110           0
     12430 MEMB     94       POPC     H8X      HAL2     0.900000E-01   1.00800           0
     12431 MEMB     94       POPC     H8Y      HAL2     0.900000E-01   1.00800           0
     12432 MEMB     94       POPC     C39      CTL2    -0.180000       12.0110           0
     12433 MEMB     94       POPC     H9X      HAL2     0.900000E-01   1.00800           0
     12434 MEMB     94       POPC     H9Y      HAL2     0.900000E-01   1.00800           0
     12435 MEMB     94       POPC     C310     CTL2    -0.180000       12.0110           0
     12436 MEMB     94       POPC     H10X     HAL2     0.900000E-01   1.00800           0
     12437 MEMB     94       POPC     H10Y     HAL2     0.900000E-01   1.00800           0
     12438 MEMB     94       POPC     C311     CTL2    -0.180000       12.0110           0
     12439 MEMB     94       POPC     H11X     HAL2     0.900000E-01   1.00800           0
     12440 MEMB     94       POPC     H11Y     HAL2     0.900000E-01   1.00800           0
     12441 MEMB     94       POPC     C312     CTL2    -0.180000       12.0110           0
     12442 MEMB     94       POPC     H12X     HAL2     0.900000E-01   1.00800           0
     12443 MEMB     94       POPC     H12Y     HAL2     0.900000E-01   1.00800           0
     12444 MEMB     94       POPC     C313     CTL2    -0.180000       12.0110           0
     12445 MEMB     94       POPC     H13X     HAL2     0.900000E-01   1.00800           0
     12446 MEMB     94       POPC     H13Y     HAL2     0.900000E-01   1.00800           0
     12447 MEMB     94       POPC     C314     CTL2    -0.180000       12.0110           0
     12448 MEMB     94       POPC     H14X     HAL2     0.900000E-01   1.00800           0
     12449 MEMB     94       POPC     H14Y     HAL2     0.900000E-01   1.00800           0
     12450 MEMB     94       POPC     C315     CTL2    -0.180000       12.0110           0
     12451 MEMB     94       POPC     H15X     HAL2     0.900000E-01   1.00800           0
     12452 MEMB     94       POPC     H15Y     HAL2     0.900000E-01   1.00800           0
     12453 MEMB     94       POPC     C316     CTL3    -0.270000       12.0110           0
     12454 MEMB     94       POPC     H16X     HAL3     0.900000E-01   1.00800           0
     12455 MEMB     94       POPC     H16Y     HAL3     0.900000E-01   1.00800           0
     12456 MEMB     94       POPC     H16Z     HAL3     0.900000E-01   1.00800           0
     12457 MEMB     95       POPC     N        NTL     -0.600000       14.0070           0
     12458 MEMB     95       POPC     C12      CTL2    -0.100000       12.0110           0
     12459 MEMB     95       POPC     H12A     HL       0.250000       1.00800           0
     12460 MEMB     95       POPC     H12B     HL       0.250000       1.00800           0
     12461 MEMB     95       POPC     C13      CTL5    -0.350000       12.0110           0
     12462 MEMB     95       POPC     H13A     HL       0.250000       1.00800           0
     12463 MEMB     95       POPC     H13B     HL       0.250000       1.00800           0
     12464 MEMB     95       POPC     H13C     HL       0.250000       1.00800           0
     12465 MEMB     95       POPC     C14      CTL5    -0.350000       12.0110           0
     12466 MEMB     95       POPC     H14A     HL       0.250000       1.00800           0
     12467 MEMB     95       POPC     H14B     HL       0.250000       1.00800           0
     12468 MEMB     95       POPC     H14C     HL       0.250000       1.00800           0
     12469 MEMB     95       POPC     C15      CTL5    -0.350000       12.0110           0
     12470 MEMB     95       POPC     H15A     HL       0.250000       1.00800           0
     12471 MEMB     95       POPC     H15B     HL       0.250000       1.00800           0
     12472 MEMB     95       POPC     H15C     HL       0.250000       1.00800           0
     12473 MEMB     95       POPC     C11      CTL2    -0.800000E-01   12.0110           0
     12474 MEMB     95       POPC     H11A     HAL2     0.900000E-01   1.00800           0
     12475 MEMB     95       POPC     H11B     HAL2     0.900000E-01   1.00800           0
     12476 MEMB     95       POPC     P        PL        1.50000       30.9740           0
     12477 MEMB     95       POPC     O13      O2L     -0.780000       15.9994           0
     12478 MEMB     95       POPC     O14      O2L     -0.780000       15.9994           0
     12479 MEMB     95       POPC     O12      OSLP    -0.570000       15.9994           0
     12480 MEMB     95       POPC     O11      OSLP    -0.570000       15.9994           0
     12481 MEMB     95       POPC     C1       CTL2    -0.800000E-01   12.0110           0
     12482 MEMB     95       POPC     HA       HAL2     0.900000E-01   1.00800           0
     12483 MEMB     95       POPC     HB       HAL2     0.900000E-01   1.00800           0
     12484 MEMB     95       POPC     C2       CTL1     0.170000       12.0110           0
     12485 MEMB     95       POPC     HS       HAL1     0.900000E-01   1.00800           0
     12486 MEMB     95       POPC     O21      OSL     -0.490000       15.9994           0
     12487 MEMB     95       POPC     C21      CL       0.900000       12.0110           0
     12488 MEMB     95       POPC     O22      OBL     -0.630000       15.9994           0
     12489 MEMB     95       POPC     C22      CTL2    -0.220000       12.0110           0
     12490 MEMB     95       POPC     H2R      HAL2     0.900000E-01   1.00800           0
     12491 MEMB     95       POPC     H2S      HAL2     0.900000E-01   1.00800           0
     12492 MEMB     95       POPC     C3       CTL2     0.800000E-01   12.0110           0
     12493 MEMB     95       POPC     HX       HAL2     0.900000E-01   1.00800           0
     12494 MEMB     95       POPC     HY       HAL2     0.900000E-01   1.00800           0
     12495 MEMB     95       POPC     O31      OSL     -0.490000       15.9994           0
     12496 MEMB     95       POPC     C31      CL       0.900000       12.0110           0
     12497 MEMB     95       POPC     O32      OBL     -0.630000       15.9994           0
     12498 MEMB     95       POPC     C32      CTL2    -0.220000       12.0110           0
     12499 MEMB     95       POPC     H2X      HAL2     0.900000E-01   1.00800           0
     12500 MEMB     95       POPC     H2Y      HAL2     0.900000E-01   1.00800           0
     12501 MEMB     95       POPC     C23      CTL2    -0.180000       12.0110           0
     12502 MEMB     95       POPC     H3R      HAL2     0.900000E-01   1.00800           0
     12503 MEMB     95       POPC     H3S      HAL2     0.900000E-01   1.00800           0
     12504 MEMB     95       POPC     C24      CTL2    -0.180000       12.0110           0
     12505 MEMB     95       POPC     H4R      HAL2     0.900000E-01   1.00800           0
     12506 MEMB     95       POPC     H4S      HAL2     0.900000E-01   1.00800           0
     12507 MEMB     95       POPC     C25      CTL2    -0.180000       12.0110           0
     12508 MEMB     95       POPC     H5R      HAL2     0.900000E-01   1.00800           0
     12509 MEMB     95       POPC     H5S      HAL2     0.900000E-01   1.00800           0
     12510 MEMB     95       POPC     C26      CTL2    -0.180000       12.0110           0
     12511 MEMB     95       POPC     H6R      HAL2     0.900000E-01   1.00800           0
     12512 MEMB     95       POPC     H6S      HAL2     0.900000E-01   1.00800           0
     12513 MEMB     95       POPC     C27      CTL2    -0.180000       12.0110           0
     12514 MEMB     95       POPC     H7R      HAL2     0.900000E-01   1.00800           0
     12515 MEMB     95       POPC     H7S      HAL2     0.900000E-01   1.00800           0
     12516 MEMB     95       POPC     C28      CTL2    -0.180000       12.0110           0
     12517 MEMB     95       POPC     H8R      HAL2     0.900000E-01   1.00800           0
     12518 MEMB     95       POPC     H8S      HAL2     0.900000E-01   1.00800           0
     12519 MEMB     95       POPC     C29      CEL1    -0.150000       12.0110           0
     12520 MEMB     95       POPC     H91      HEL1     0.150000       1.00800           0
     12521 MEMB     95       POPC     C210     CEL1    -0.150000       12.0110           0
     12522 MEMB     95       POPC     H101     HEL1     0.150000       1.00800           0
     12523 MEMB     95       POPC     C211     CTL2    -0.180000       12.0110           0
     12524 MEMB     95       POPC     H11R     HAL2     0.900000E-01   1.00800           0
     12525 MEMB     95       POPC     H11S     HAL2     0.900000E-01   1.00800           0
     12526 MEMB     95       POPC     C212     CTL2    -0.180000       12.0110           0
     12527 MEMB     95       POPC     H12R     HAL2     0.900000E-01   1.00800           0
     12528 MEMB     95       POPC     H12S     HAL2     0.900000E-01   1.00800           0
     12529 MEMB     95       POPC     C213     CTL2    -0.180000       12.0110           0
     12530 MEMB     95       POPC     H13R     HAL2     0.900000E-01   1.00800           0
     12531 MEMB     95       POPC     H13S     HAL2     0.900000E-01   1.00800           0
     12532 MEMB     95       POPC     C214     CTL2    -0.180000       12.0110           0
     12533 MEMB     95       POPC     H14R     HAL2     0.900000E-01   1.00800           0
     12534 MEMB     95       POPC     H14S     HAL2     0.900000E-01   1.00800           0
     12535 MEMB     95       POPC     C215     CTL2    -0.180000       12.0110           0
     12536 MEMB     95       POPC     H15R     HAL2     0.900000E-01   1.00800           0
     12537 MEMB     95       POPC     H15S     HAL2     0.900000E-01   1.00800           0
     12538 MEMB     95       POPC     C216     CTL2    -0.180000       12.0110           0
     12539 MEMB     95       POPC     H16R     HAL2     0.900000E-01   1.00800           0
     12540 MEMB     95       POPC     H16S     HAL2     0.900000E-01   1.00800           0
     12541 MEMB     95       POPC     C217     CTL2    -0.180000       12.0110           0
     12542 MEMB     95       POPC     H17R     HAL2     0.900000E-01   1.00800           0
     12543 MEMB     95       POPC     H17S     HAL2     0.900000E-01   1.00800           0
     12544 MEMB     95       POPC     C218     CTL3    -0.270000       12.0110           0
     12545 MEMB     95       POPC     H18R     HAL3     0.900000E-01   1.00800           0
     12546 MEMB     95       POPC     H18S     HAL3     0.900000E-01   1.00800           0
     12547 MEMB     95       POPC     H18T     HAL3     0.900000E-01   1.00800           0
     12548 MEMB     95       POPC     C33      CTL2    -0.180000       12.0110           0
     12549 MEMB     95       POPC     H3X      HAL2     0.900000E-01   1.00800           0
     12550 MEMB     95       POPC     H3Y      HAL2     0.900000E-01   1.00800           0
     12551 MEMB     95       POPC     C34      CTL2    -0.180000       12.0110           0
     12552 MEMB     95       POPC     H4X      HAL2     0.900000E-01   1.00800           0
     12553 MEMB     95       POPC     H4Y      HAL2     0.900000E-01   1.00800           0
     12554 MEMB     95       POPC     C35      CTL2    -0.180000       12.0110           0
     12555 MEMB     95       POPC     H5X      HAL2     0.900000E-01   1.00800           0
     12556 MEMB     95       POPC     H5Y      HAL2     0.900000E-01   1.00800           0
     12557 MEMB     95       POPC     C36      CTL2    -0.180000       12.0110           0
     12558 MEMB     95       POPC     H6X      HAL2     0.900000E-01   1.00800           0
     12559 MEMB     95       POPC     H6Y      HAL2     0.900000E-01   1.00800           0
     12560 MEMB     95       POPC     C37      CTL2    -0.180000       12.0110           0
     12561 MEMB     95       POPC     H7X      HAL2     0.900000E-01   1.00800           0
     12562 MEMB     95       POPC     H7Y      HAL2     0.900000E-01   1.00800           0
     12563 MEMB     95       POPC     C38      CTL2    -0.180000       12.0110           0
     12564 MEMB     95       POPC     H8X      HAL2     0.900000E-01   1.00800           0
     12565 MEMB     95       POPC     H8Y      HAL2     0.900000E-01   1.00800           0
     12566 MEMB     95       POPC     C39      CTL2    -0.180000       12.0110           0
     12567 MEMB     95       POPC     H9X      HAL2     0.900000E-01   1.00800           0
     12568 MEMB     95       POPC     H9Y      HAL2     0.900000E-01   1.00800           0
     12569 MEMB     95       POPC     C310     CTL2    -0.180000       12.0110           0
     12570 MEMB     95       POPC     H10X     HAL2     0.900000E-01   1.00800           0
     12571 MEMB     95       POPC     H10Y     HAL2     0.900000E-01   1.00800           0
     12572 MEMB     95       POPC     C311     CTL2    -0.180000       12.0110           0
     12573 MEMB     95       POPC     H11X     HAL2     0.900000E-01   1.00800           0
     12574 MEMB     95       POPC     H11Y     HAL2     0.900000E-01   1.00800           0
     12575 MEMB     95       POPC     C312     CTL2    -0.180000       12.0110           0
     12576 MEMB     95       POPC     H12X     HAL2     0.900000E-01   1.00800           0
     12577 MEMB     95       POPC     H12Y     HAL2     0.900000E-01   1.00800           0
     12578 MEMB     95       POPC     C313     CTL2    -0.180000       12.0110           0
     12579 MEMB     95       POPC     H13X     HAL2     0.900000E-01   1.00800           0
     12580 MEMB     95       POPC     H13Y     HAL2     0.900000E-01   1.00800           0
     12581 MEMB     95       POPC     C314     CTL2    -0.180000       12.0110           0
     12582 MEMB     95       POPC     H14X     HAL2     0.900000E-01   1.00800           0
     12583 MEMB     95       POPC     H14Y     HAL2     0.900000E-01   1.00800           0
     12584 MEMB     95       POPC     C315     CTL2    -0.180000       12.0110           0
     12585 MEMB     95       POPC     H15X     HAL2     0.900000E-01   1.00800           0
     12586 MEMB     95       POPC     H15Y     HAL2     0.900000E-01   1.00800           0
     12587 MEMB     95       POPC     C316     CTL3    -0.270000       12.0110           0
     12588 MEMB     95       POPC     H16X     HAL3     0.900000E-01   1.00800           0
     12589 MEMB     95       POPC     H16Y     HAL3     0.900000E-01   1.00800           0
     12590 MEMB     95       POPC     H16Z     HAL3     0.900000E-01   1.00800           0
     12591 MEMB     96       POPC     N        NTL     -0.600000       14.0070           0
     12592 MEMB     96       POPC     C12      CTL2    -0.100000       12.0110           0
     12593 MEMB     96       POPC     H12A     HL       0.250000       1.00800           0
     12594 MEMB     96       POPC     H12B     HL       0.250000       1.00800           0
     12595 MEMB     96       POPC     C13      CTL5    -0.350000       12.0110           0
     12596 MEMB     96       POPC     H13A     HL       0.250000       1.00800           0
     12597 MEMB     96       POPC     H13B     HL       0.250000       1.00800           0
     12598 MEMB     96       POPC     H13C     HL       0.250000       1.00800           0
     12599 MEMB     96       POPC     C14      CTL5    -0.350000       12.0110           0
     12600 MEMB     96       POPC     H14A     HL       0.250000       1.00800           0
     12601 MEMB     96       POPC     H14B     HL       0.250000       1.00800           0
     12602 MEMB     96       POPC     H14C     HL       0.250000       1.00800           0
     12603 MEMB     96       POPC     C15      CTL5    -0.350000       12.0110           0
     12604 MEMB     96       POPC     H15A     HL       0.250000       1.00800           0
     12605 MEMB     96       POPC     H15B     HL       0.250000       1.00800           0
     12606 MEMB     96       POPC     H15C     HL       0.250000       1.00800           0
     12607 MEMB     96       POPC     C11      CTL2    -0.800000E-01   12.0110           0
     12608 MEMB     96       POPC     H11A     HAL2     0.900000E-01   1.00800           0
     12609 MEMB     96       POPC     H11B     HAL2     0.900000E-01   1.00800           0
     12610 MEMB     96       POPC     P        PL        1.50000       30.9740           0
     12611 MEMB     96       POPC     O13      O2L     -0.780000       15.9994           0
     12612 MEMB     96       POPC     O14      O2L     -0.780000       15.9994           0
     12613 MEMB     96       POPC     O12      OSLP    -0.570000       15.9994           0
     12614 MEMB     96       POPC     O11      OSLP    -0.570000       15.9994           0
     12615 MEMB     96       POPC     C1       CTL2    -0.800000E-01   12.0110           0
     12616 MEMB     96       POPC     HA       HAL2     0.900000E-01   1.00800           0
     12617 MEMB     96       POPC     HB       HAL2     0.900000E-01   1.00800           0
     12618 MEMB     96       POPC     C2       CTL1     0.170000       12.0110           0
     12619 MEMB     96       POPC     HS       HAL1     0.900000E-01   1.00800           0
     12620 MEMB     96       POPC     O21      OSL     -0.490000       15.9994           0
     12621 MEMB     96       POPC     C21      CL       0.900000       12.0110           0
     12622 MEMB     96       POPC     O22      OBL     -0.630000       15.9994           0
     12623 MEMB     96       POPC     C22      CTL2    -0.220000       12.0110           0
     12624 MEMB     96       POPC     H2R      HAL2     0.900000E-01   1.00800           0
     12625 MEMB     96       POPC     H2S      HAL2     0.900000E-01   1.00800           0
     12626 MEMB     96       POPC     C3       CTL2     0.800000E-01   12.0110           0
     12627 MEMB     96       POPC     HX       HAL2     0.900000E-01   1.00800           0
     12628 MEMB     96       POPC     HY       HAL2     0.900000E-01   1.00800           0
     12629 MEMB     96       POPC     O31      OSL     -0.490000       15.9994           0
     12630 MEMB     96       POPC     C31      CL       0.900000       12.0110           0
     12631 MEMB     96       POPC     O32      OBL     -0.630000       15.9994           0
     12632 MEMB     96       POPC     C32      CTL2    -0.220000       12.0110           0
     12633 MEMB     96       POPC     H2X      HAL2     0.900000E-01   1.00800           0
     12634 MEMB     96       POPC     H2Y      HAL2     0.900000E-01   1.00800           0
     12635 MEMB     96       POPC     C23      CTL2    -0.180000       12.0110           0
     12636 MEMB     96       POPC     H3R      HAL2     0.900000E-01   1.00800           0
     12637 MEMB     96       POPC     H3S      HAL2     0.900000E-01   1.00800           0
     12638 MEMB     96       POPC     C24      CTL2    -0.180000       12.0110           0
     12639 MEMB     96       POPC     H4R      HAL2     0.900000E-01   1.00800           0
     12640 MEMB     96       POPC     H4S      HAL2     0.900000E-01   1.00800           0
     12641 MEMB     96       POPC     C25      CTL2    -0.180000       12.0110           0
     12642 MEMB     96       POPC     H5R      HAL2     0.900000E-01   1.00800           0
     12643 MEMB     96       POPC     H5S      HAL2     0.900000E-01   1.00800           0
     12644 MEMB     96       POPC     C26      CTL2    -0.180000       12.0110           0
     12645 MEMB     96       POPC     H6R      HAL2     0.900000E-01   1.00800           0
     12646 MEMB     96       POPC     H6S      HAL2     0.900000E-01   1.00800           0
     12647 MEMB     96       POPC     C27      CTL2    -0.180000       12.0110           0
     12648 MEMB     96       POPC     H7R      HAL2     0.900000E-01   1.00800           0
     12649 MEMB     96       POPC     H7S      HAL2     0.900000E-01   1.00800           0
     12650 MEMB     96       POPC     C28      CTL2    -0.180000       12.0110           0
     12651 MEMB     96       POPC     H8R      HAL2     0.900000E-01   1.00800           0
     12652 MEMB     96       POPC     H8S      HAL2     0.900000E-01   1.00800           0
     12653 MEMB     96       POPC     C29      CEL1    -0.150000       12.0110           0
     12654 MEMB     96       POPC     H91      HEL1     0.150000       1.00800           0
     12655 MEMB     96       POPC     C210     CEL1    -0.150000       12.0110           0
     12656 MEMB     96       POPC     H101     HEL1     0.150000       1.00800           0
     12657 MEMB     96       POPC     C211     CTL2    -0.180000       12.0110           0
     12658 MEMB     96       POPC     H11R     HAL2     0.900000E-01   1.00800           0
     12659 MEMB     96       POPC     H11S     HAL2     0.900000E-01   1.00800           0
     12660 MEMB     96       POPC     C212     CTL2    -0.180000       12.0110           0
     12661 MEMB     96       POPC     H12R     HAL2     0.900000E-01   1.00800           0
     12662 MEMB     96       POPC     H12S     HAL2     0.900000E-01   1.00800           0
     12663 MEMB     96       POPC     C213     CTL2    -0.180000       12.0110           0
     12664 MEMB     96       POPC     H13R     HAL2     0.900000E-01   1.00800           0
     12665 MEMB     96       POPC     H13S     HAL2     0.900000E-01   1.00800           0
     12666 MEMB     96       POPC     C214     CTL2    -0.180000       12.0110           0
     12667 MEMB     96       POPC     H14R     HAL2     0.900000E-01   1.00800           0
     12668 MEMB     96       POPC     H14S     HAL2     0.900000E-01   1.00800           0
     12669 MEMB     96       POPC     C215     CTL2    -0.180000       12.0110           0
     12670 MEMB     96       POPC     H15R     HAL2     0.900000E-01   1.00800           0
     12671 MEMB     96       POPC     H15S     HAL2     0.900000E-01   1.00800           0
     12672 MEMB     96       POPC     C216     CTL2    -0.180000       12.0110           0
     12673 MEMB     96       POPC     H16R     HAL2     0.900000E-01   1.00800           0
     12674 MEMB     96       POPC     H16S     HAL2     0.900000E-01   1.00800           0
     12675 MEMB     96       POPC     C217     CTL2    -0.180000       12.0110           0
     12676 MEMB     96       POPC     H17R     HAL2     0.900000E-01   1.00800           0
     12677 MEMB     96       POPC     H17S     HAL2     0.900000E-01   1.00800           0
     12678 MEMB     96       POPC     C218     CTL3    -0.270000       12.0110           0
     12679 MEMB     96       POPC     H18R     HAL3     0.900000E-01   1.00800           0
     12680 MEMB     96       POPC     H18S     HAL3     0.900000E-01   1.00800           0
     12681 MEMB     96       POPC     H18T     HAL3     0.900000E-01   1.00800           0
     12682 MEMB     96       POPC     C33      CTL2    -0.180000       12.0110           0
     12683 MEMB     96       POPC     H3X      HAL2     0.900000E-01   1.00800           0
     12684 MEMB     96       POPC     H3Y      HAL2     0.900000E-01   1.00800           0
     12685 MEMB     96       POPC     C34      CTL2    -0.180000       12.0110           0
     12686 MEMB     96       POPC     H4X      HAL2     0.900000E-01   1.00800           0
     12687 MEMB     96       POPC     H4Y      HAL2     0.900000E-01   1.00800           0
     12688 MEMB     96       POPC     C35      CTL2    -0.180000       12.0110           0
     12689 MEMB     96       POPC     H5X      HAL2     0.900000E-01   1.00800           0
     12690 MEMB     96       POPC     H5Y      HAL2     0.900000E-01   1.00800           0
     12691 MEMB     96       POPC     C36      CTL2    -0.180000       12.0110           0
     12692 MEMB     96       POPC     H6X      HAL2     0.900000E-01   1.00800           0
     12693 MEMB     96       POPC     H6Y      HAL2     0.900000E-01   1.00800           0
     12694 MEMB     96       POPC     C37      CTL2    -0.180000       12.0110           0
     12695 MEMB     96       POPC     H7X      HAL2     0.900000E-01   1.00800           0
     12696 MEMB     96       POPC     H7Y      HAL2     0.900000E-01   1.00800           0
     12697 MEMB     96       POPC     C38      CTL2    -0.180000       12.0110           0
     12698 MEMB     96       POPC     H8X      HAL2     0.900000E-01   1.00800           0
     12699 MEMB     96       POPC     H8Y      HAL2     0.900000E-01   1.00800           0
     12700 MEMB     96       POPC     C39      CTL2    -0.180000       12.0110           0
     12701 MEMB     96       POPC     H9X      HAL2     0.900000E-01   1.00800           0
     12702 MEMB     96       POPC     H9Y      HAL2     0.900000E-01   1.00800           0
     12703 MEMB     96       POPC     C310     CTL2    -0.180000       12.0110           0
     12704 MEMB     96       POPC     H10X     HAL2     0.900000E-01   1.00800           0
     12705 MEMB     96       POPC     H10Y     HAL2     0.900000E-01   1.00800           0
     12706 MEMB     96       POPC     C311     CTL2    -0.180000       12.0110           0
     12707 MEMB     96       POPC     H11X     HAL2     0.900000E-01   1.00800           0
     12708 MEMB     96       POPC     H11Y     HAL2     0.900000E-01   1.00800           0
     12709 MEMB     96       POPC     C312     CTL2    -0.180000       12.0110           0
     12710 MEMB     96       POPC     H12X     HAL2     0.900000E-01   1.00800           0
     12711 MEMB     96       POPC     H12Y     HAL2     0.900000E-01   1.00800           0
     12712 MEMB     96       POPC     C313     CTL2    -0.180000       12.0110           0
     12713 MEMB     96       POPC     H13X     HAL2     0.900000E-01   1.00800           0
     12714 MEMB     96       POPC     H13Y     HAL2     0.900000E-01   1.00800           0
     12715 MEMB     96       POPC     C314     CTL2    -0.180000       12.0110           0
     12716 MEMB     96       POPC     H14X     HAL2     0.900000E-01   1.00800           0
     12717 MEMB     96       POPC     H14Y     HAL2     0.900000E-01   1.00800           0
     12718 MEMB     96       POPC     C315     CTL2    -0.180000       12.0110           0
     12719 MEMB     96       POPC     H15X     HAL2     0.900000E-01   1.00800           0
     12720 MEMB     96       POPC     H15Y     HAL2     0.900000E-01   1.00800           0
     12721 MEMB     96       POPC     C316     CTL3    -0.270000       12.0110           0
     12722 MEMB     96       POPC     H16X     HAL3     0.900000E-01   1.00800           0
     12723 MEMB     96       POPC     H16Y     HAL3     0.900000E-01   1.00800           0
     12724 MEMB     96       POPC     H16Z     HAL3     0.900000E-01   1.00800           0
     12725 MEMB     97       POPC     N        NTL     -0.600000       14.0070           0
     12726 MEMB     97       POPC     C12      CTL2    -0.100000       12.0110           0
     12727 MEMB     97       POPC     H12A     HL       0.250000       1.00800           0
     12728 MEMB     97       POPC     H12B     HL       0.250000       1.00800           0
     12729 MEMB     97       POPC     C13      CTL5    -0.350000       12.0110           0
     12730 MEMB     97       POPC     H13A     HL       0.250000       1.00800           0
     12731 MEMB     97       POPC     H13B     HL       0.250000       1.00800           0
     12732 MEMB     97       POPC     H13C     HL       0.250000       1.00800           0
     12733 MEMB     97       POPC     C14      CTL5    -0.350000       12.0110           0
     12734 MEMB     97       POPC     H14A     HL       0.250000       1.00800           0
     12735 MEMB     97       POPC     H14B     HL       0.250000       1.00800           0
     12736 MEMB     97       POPC     H14C     HL       0.250000       1.00800           0
     12737 MEMB     97       POPC     C15      CTL5    -0.350000       12.0110           0
     12738 MEMB     97       POPC     H15A     HL       0.250000       1.00800           0
     12739 MEMB     97       POPC     H15B     HL       0.250000       1.00800           0
     12740 MEMB     97       POPC     H15C     HL       0.250000       1.00800           0
     12741 MEMB     97       POPC     C11      CTL2    -0.800000E-01   12.0110           0
     12742 MEMB     97       POPC     H11A     HAL2     0.900000E-01   1.00800           0
     12743 MEMB     97       POPC     H11B     HAL2     0.900000E-01   1.00800           0
     12744 MEMB     97       POPC     P        PL        1.50000       30.9740           0
     12745 MEMB     97       POPC     O13      O2L     -0.780000       15.9994           0
     12746 MEMB     97       POPC     O14      O2L     -0.780000       15.9994           0
     12747 MEMB     97       POPC     O12      OSLP    -0.570000       15.9994           0
     12748 MEMB     97       POPC     O11      OSLP    -0.570000       15.9994           0
     12749 MEMB     97       POPC     C1       CTL2    -0.800000E-01   12.0110           0
     12750 MEMB     97       POPC     HA       HAL2     0.900000E-01   1.00800           0
     12751 MEMB     97       POPC     HB       HAL2     0.900000E-01   1.00800           0
     12752 MEMB     97       POPC     C2       CTL1     0.170000       12.0110           0
     12753 MEMB     97       POPC     HS       HAL1     0.900000E-01   1.00800           0
     12754 MEMB     97       POPC     O21      OSL     -0.490000       15.9994           0
     12755 MEMB     97       POPC     C21      CL       0.900000       12.0110           0
     12756 MEMB     97       POPC     O22      OBL     -0.630000       15.9994           0
     12757 MEMB     97       POPC     C22      CTL2    -0.220000       12.0110           0
     12758 MEMB     97       POPC     H2R      HAL2     0.900000E-01   1.00800           0
     12759 MEMB     97       POPC     H2S      HAL2     0.900000E-01   1.00800           0
     12760 MEMB     97       POPC     C3       CTL2     0.800000E-01   12.0110           0
     12761 MEMB     97       POPC     HX       HAL2     0.900000E-01   1.00800           0
     12762 MEMB     97       POPC     HY       HAL2     0.900000E-01   1.00800           0
     12763 MEMB     97       POPC     O31      OSL     -0.490000       15.9994           0
     12764 MEMB     97       POPC     C31      CL       0.900000       12.0110           0
     12765 MEMB     97       POPC     O32      OBL     -0.630000       15.9994           0
     12766 MEMB     97       POPC     C32      CTL2    -0.220000       12.0110           0
     12767 MEMB     97       POPC     H2X      HAL2     0.900000E-01   1.00800           0
     12768 MEMB     97       POPC     H2Y      HAL2     0.900000E-01   1.00800           0
     12769 MEMB     97       POPC     C23      CTL2    -0.180000       12.0110           0
     12770 MEMB     97       POPC     H3R      HAL2     0.900000E-01   1.00800           0
     12771 MEMB     97       POPC     H3S      HAL2     0.900000E-01   1.00800           0
     12772 MEMB     97       POPC     C24      CTL2    -0.180000       12.0110           0
     12773 MEMB     97       POPC     H4R      HAL2     0.900000E-01   1.00800           0
     12774 MEMB     97       POPC     H4S      HAL2     0.900000E-01   1.00800           0
     12775 MEMB     97       POPC     C25      CTL2    -0.180000       12.0110           0
     12776 MEMB     97       POPC     H5R      HAL2     0.900000E-01   1.00800           0
     12777 MEMB     97       POPC     H5S      HAL2     0.900000E-01   1.00800           0
     12778 MEMB     97       POPC     C26      CTL2    -0.180000       12.0110           0
     12779 MEMB     97       POPC     H6R      HAL2     0.900000E-01   1.00800           0
     12780 MEMB     97       POPC     H6S      HAL2     0.900000E-01   1.00800           0
     12781 MEMB     97       POPC     C27      CTL2    -0.180000       12.0110           0
     12782 MEMB     97       POPC     H7R      HAL2     0.900000E-01   1.00800           0
     12783 MEMB     97       POPC     H7S      HAL2     0.900000E-01   1.00800           0
     12784 MEMB     97       POPC     C28      CTL2    -0.180000       12.0110           0
     12785 MEMB     97       POPC     H8R      HAL2     0.900000E-01   1.00800           0
     12786 MEMB     97       POPC     H8S      HAL2     0.900000E-01   1.00800           0
     12787 MEMB     97       POPC     C29      CEL1    -0.150000       12.0110           0
     12788 MEMB     97       POPC     H91      HEL1     0.150000       1.00800           0
     12789 MEMB     97       POPC     C210     CEL1    -0.150000       12.0110           0
     12790 MEMB     97       POPC     H101     HEL1     0.150000       1.00800           0
     12791 MEMB     97       POPC     C211     CTL2    -0.180000       12.0110           0
     12792 MEMB     97       POPC     H11R     HAL2     0.900000E-01   1.00800           0
     12793 MEMB     97       POPC     H11S     HAL2     0.900000E-01   1.00800           0
     12794 MEMB     97       POPC     C212     CTL2    -0.180000       12.0110           0
     12795 MEMB     97       POPC     H12R     HAL2     0.900000E-01   1.00800           0
     12796 MEMB     97       POPC     H12S     HAL2     0.900000E-01   1.00800           0
     12797 MEMB     97       POPC     C213     CTL2    -0.180000       12.0110           0
     12798 MEMB     97       POPC     H13R     HAL2     0.900000E-01   1.00800           0
     12799 MEMB     97       POPC     H13S     HAL2     0.900000E-01   1.00800           0
     12800 MEMB     97       POPC     C214     CTL2    -0.180000       12.0110           0
     12801 MEMB     97       POPC     H14R     HAL2     0.900000E-01   1.00800           0
     12802 MEMB     97       POPC     H14S     HAL2     0.900000E-01   1.00800           0
     12803 MEMB     97       POPC     C215     CTL2    -0.180000       12.0110           0
     12804 MEMB     97       POPC     H15R     HAL2     0.900000E-01   1.00800           0
     12805 MEMB     97       POPC     H15S     HAL2     0.900000E-01   1.00800           0
     12806 MEMB     97       POPC     C216     CTL2    -0.180000       12.0110           0
     12807 MEMB     97       POPC     H16R     HAL2     0.900000E-01   1.00800           0
     12808 MEMB     97       POPC     H16S     HAL2     0.900000E-01   1.00800           0
     12809 MEMB     97       POPC     C217     CTL2    -0.180000       12.0110           0
     12810 MEMB     97       POPC     H17R     HAL2     0.900000E-01   1.00800           0
     12811 MEMB     97       POPC     H17S     HAL2     0.900000E-01   1.00800           0
     12812 MEMB     97       POPC     C218     CTL3    -0.270000       12.0110           0
     12813 MEMB     97       POPC     H18R     HAL3     0.900000E-01   1.00800           0
     12814 MEMB     97       POPC     H18S     HAL3     0.900000E-01   1.00800           0
     12815 MEMB     97       POPC     H18T     HAL3     0.900000E-01   1.00800           0
     12816 MEMB     97       POPC     C33      CTL2    -0.180000       12.0110           0
     12817 MEMB     97       POPC     H3X      HAL2     0.900000E-01   1.00800           0
     12818 MEMB     97       POPC     H3Y      HAL2     0.900000E-01   1.00800           0
     12819 MEMB     97       POPC     C34      CTL2    -0.180000       12.0110           0
     12820 MEMB     97       POPC     H4X      HAL2     0.900000E-01   1.00800           0
     12821 MEMB     97       POPC     H4Y      HAL2     0.900000E-01   1.00800           0
     12822 MEMB     97       POPC     C35      CTL2    -0.180000       12.0110           0
     12823 MEMB     97       POPC     H5X      HAL2     0.900000E-01   1.00800           0
     12824 MEMB     97       POPC     H5Y      HAL2     0.900000E-01   1.00800           0
     12825 MEMB     97       POPC     C36      CTL2    -0.180000       12.0110           0
     12826 MEMB     97       POPC     H6X      HAL2     0.900000E-01   1.00800           0
     12827 MEMB     97       POPC     H6Y      HAL2     0.900000E-01   1.00800           0
     12828 MEMB     97       POPC     C37      CTL2    -0.180000       12.0110           0
     12829 MEMB     97       POPC     H7X      HAL2     0.900000E-01   1.00800           0
     12830 MEMB     97       POPC     H7Y      HAL2     0.900000E-01   1.00800           0
     12831 MEMB     97       POPC     C38      CTL2    -0.180000       12.0110           0
     12832 MEMB     97       POPC     H8X      HAL2     0.900000E-01   1.00800           0
     12833 MEMB     97       POPC     H8Y      HAL2     0.900000E-01   1.00800           0
     12834 MEMB     97       POPC     C39      CTL2    -0.180000       12.0110           0
     12835 MEMB     97       POPC     H9X      HAL2     0.900000E-01   1.00800           0
     12836 MEMB     97       POPC     H9Y      HAL2     0.900000E-01   1.00800           0
     12837 MEMB     97       POPC     C310     CTL2    -0.180000       12.0110           0
     12838 MEMB     97       POPC     H10X     HAL2     0.900000E-01   1.00800           0
     12839 MEMB     97       POPC     H10Y     HAL2     0.900000E-01   1.00800           0
     12840 MEMB     97       POPC     C311     CTL2    -0.180000       12.0110           0
     12841 MEMB     97       POPC     H11X     HAL2     0.900000E-01   1.00800           0
     12842 MEMB     97       POPC     H11Y     HAL2     0.900000E-01   1.00800           0
     12843 MEMB     97       POPC     C312     CTL2    -0.180000       12.0110           0
     12844 MEMB     97       POPC     H12X     HAL2     0.900000E-01   1.00800           0
     12845 MEMB     97       POPC     H12Y     HAL2     0.900000E-01   1.00800           0
     12846 MEMB     97       POPC     C313     CTL2    -0.180000       12.0110           0
     12847 MEMB     97       POPC     H13X     HAL2     0.900000E-01   1.00800           0
     12848 MEMB     97       POPC     H13Y     HAL2     0.900000E-01   1.00800           0
     12849 MEMB     97       POPC     C314     CTL2    -0.180000       12.0110           0
     12850 MEMB     97       POPC     H14X     HAL2     0.900000E-01   1.00800           0
     12851 MEMB     97       POPC     H14Y     HAL2     0.900000E-01   1.00800           0
     12852 MEMB     97       POPC     C315     CTL2    -0.180000       12.0110           0
     12853 MEMB     97       POPC     H15X     HAL2     0.900000E-01   1.00800           0
     12854 MEMB     97       POPC     H15Y     HAL2     0.900000E-01   1.00800           0
     12855 MEMB     97       POPC     C316     CTL3    -0.270000       12.0110           0
     12856 MEMB     97       POPC     H16X     HAL3     0.900000E-01   1.00800           0
     12857 MEMB     97       POPC     H16Y     HAL3     0.900000E-01   1.00800           0
     12858 MEMB     97       POPC     H16Z     HAL3     0.900000E-01   1.00800           0
     12859 MEMB     98       POPS     N        NH3L    -0.300000       14.0070           0
     12860 MEMB     98       POPS     HN1      HCL      0.330000       1.00800           0
     12861 MEMB     98       POPS     HN2      HCL      0.330000       1.00800           0
     12862 MEMB     98       POPS     HN3      HCL      0.330000       1.00800           0
     12863 MEMB     98       POPS     C12      CTL1     0.210000       12.0110           0
     12864 MEMB     98       POPS     H12A     HBL      0.100000       1.00800           0
     12865 MEMB     98       POPS     C13      CCL      0.340000       12.0110           0
     12866 MEMB     98       POPS     O13A     OCL     -0.670000       15.9994           0
     12867 MEMB     98       POPS     O13B     OCL     -0.670000       15.9994           0
     12868 MEMB     98       POPS     C11      CTL2    -0.800000E-01   12.0110           0
     12869 MEMB     98       POPS     H11A     HAL2     0.900000E-01   1.00800           0
     12870 MEMB     98       POPS     H11B     HAL2     0.900000E-01   1.00800           0
     12871 MEMB     98       POPS     P        PL        1.50000       30.9740           0
     12872 MEMB     98       POPS     O13      O2L     -0.780000       15.9994           0
     12873 MEMB     98       POPS     O14      O2L     -0.780000       15.9994           0
     12874 MEMB     98       POPS     O12      OSLP    -0.570000       15.9994           0
     12875 MEMB     98       POPS     O11      OSLP    -0.570000       15.9994           0
     12876 MEMB     98       POPS     C1       CTL2    -0.800000E-01   12.0110           0
     12877 MEMB     98       POPS     HA       HAL2     0.900000E-01   1.00800           0
     12878 MEMB     98       POPS     HB       HAL2     0.900000E-01   1.00800           0
     12879 MEMB     98       POPS     C2       CTL1     0.170000       12.0110           0
     12880 MEMB     98       POPS     HS       HAL1     0.900000E-01   1.00800           0
     12881 MEMB     98       POPS     O21      OSL     -0.490000       15.9994           0
     12882 MEMB     98       POPS     C21      CL       0.900000       12.0110           0
     12883 MEMB     98       POPS     O22      OBL     -0.630000       15.9994           0
     12884 MEMB     98       POPS     C22      CTL2    -0.220000       12.0110           0
     12885 MEMB     98       POPS     H2R      HAL2     0.900000E-01   1.00800           0
     12886 MEMB     98       POPS     H2S      HAL2     0.900000E-01   1.00800           0
     12887 MEMB     98       POPS     C3       CTL2     0.800000E-01   12.0110           0
     12888 MEMB     98       POPS     HX       HAL2     0.900000E-01   1.00800           0
     12889 MEMB     98       POPS     HY       HAL2     0.900000E-01   1.00800           0
     12890 MEMB     98       POPS     O31      OSL     -0.490000       15.9994           0
     12891 MEMB     98       POPS     C31      CL       0.900000       12.0110           0
     12892 MEMB     98       POPS     O32      OBL     -0.630000       15.9994           0
     12893 MEMB     98       POPS     C32      CTL2    -0.220000       12.0110           0
     12894 MEMB     98       POPS     H2X      HAL2     0.900000E-01   1.00800           0
     12895 MEMB     98       POPS     H2Y      HAL2     0.900000E-01   1.00800           0
     12896 MEMB     98       POPS     C23      CTL2    -0.180000       12.0110           0
     12897 MEMB     98       POPS     H3R      HAL2     0.900000E-01   1.00800           0
     12898 MEMB     98       POPS     H3S      HAL2     0.900000E-01   1.00800           0
     12899 MEMB     98       POPS     C24      CTL2    -0.180000       12.0110           0
     12900 MEMB     98       POPS     H4R      HAL2     0.900000E-01   1.00800           0
     12901 MEMB     98       POPS     H4S      HAL2     0.900000E-01   1.00800           0
     12902 MEMB     98       POPS     C25      CTL2    -0.180000       12.0110           0
     12903 MEMB     98       POPS     H5R      HAL2     0.900000E-01   1.00800           0
     12904 MEMB     98       POPS     H5S      HAL2     0.900000E-01   1.00800           0
     12905 MEMB     98       POPS     C26      CTL2    -0.180000       12.0110           0
     12906 MEMB     98       POPS     H6R      HAL2     0.900000E-01   1.00800           0
     12907 MEMB     98       POPS     H6S      HAL2     0.900000E-01   1.00800           0
     12908 MEMB     98       POPS     C27      CTL2    -0.180000       12.0110           0
     12909 MEMB     98       POPS     H7R      HAL2     0.900000E-01   1.00800           0
     12910 MEMB     98       POPS     H7S      HAL2     0.900000E-01   1.00800           0
     12911 MEMB     98       POPS     C28      CTL2    -0.180000       12.0110           0
     12912 MEMB     98       POPS     H8R      HAL2     0.900000E-01   1.00800           0
     12913 MEMB     98       POPS     H8S      HAL2     0.900000E-01   1.00800           0
     12914 MEMB     98       POPS     C29      CEL1    -0.150000       12.0110           0
     12915 MEMB     98       POPS     H91      HEL1     0.150000       1.00800           0
     12916 MEMB     98       POPS     C210     CEL1    -0.150000       12.0110           0
     12917 MEMB     98       POPS     H101     HEL1     0.150000       1.00800           0
     12918 MEMB     98       POPS     C211     CTL2    -0.180000       12.0110           0
     12919 MEMB     98       POPS     H11R     HAL2     0.900000E-01   1.00800           0
     12920 MEMB     98       POPS     H11S     HAL2     0.900000E-01   1.00800           0
     12921 MEMB     98       POPS     C212     CTL2    -0.180000       12.0110           0
     12922 MEMB     98       POPS     H12R     HAL2     0.900000E-01   1.00800           0
     12923 MEMB     98       POPS     H12S     HAL2     0.900000E-01   1.00800           0
     12924 MEMB     98       POPS     C213     CTL2    -0.180000       12.0110           0
     12925 MEMB     98       POPS     H13R     HAL2     0.900000E-01   1.00800           0
     12926 MEMB     98       POPS     H13S     HAL2     0.900000E-01   1.00800           0
     12927 MEMB     98       POPS     C214     CTL2    -0.180000       12.0110           0
     12928 MEMB     98       POPS     H14R     HAL2     0.900000E-01   1.00800           0
     12929 MEMB     98       POPS     H14S     HAL2     0.900000E-01   1.00800           0
     12930 MEMB     98       POPS     C215     CTL2    -0.180000       12.0110           0
     12931 MEMB     98       POPS     H15R     HAL2     0.900000E-01   1.00800           0
     12932 MEMB     98       POPS     H15S     HAL2     0.900000E-01   1.00800           0
     12933 MEMB     98       POPS     C216     CTL2    -0.180000       12.0110           0
     12934 MEMB     98       POPS     H16R     HAL2     0.900000E-01   1.00800           0
     12935 MEMB     98       POPS     H16S     HAL2     0.900000E-01   1.00800           0
     12936 MEMB     98       POPS     C217     CTL2    -0.180000       12.0110           0
     12937 MEMB     98       POPS     H17R     HAL2     0.900000E-01   1.00800           0
     12938 MEMB     98       POPS     H17S     HAL2     0.900000E-01   1.00800           0
     12939 MEMB     98       POPS     C218     CTL3    -0.270000       12.0110           0
     12940 MEMB     98       POPS     H18R     HAL3     0.900000E-01   1.00800           0
     12941 MEMB     98       POPS     H18S     HAL3     0.900000E-01   1.00800           0
     12942 MEMB     98       POPS     H18T     HAL3     0.900000E-01   1.00800           0
     12943 MEMB     98       POPS     C33      CTL2    -0.180000       12.0110           0
     12944 MEMB     98       POPS     H3X      HAL2     0.900000E-01   1.00800           0
     12945 MEMB     98       POPS     H3Y      HAL2     0.900000E-01   1.00800           0
     12946 MEMB     98       POPS     C34      CTL2    -0.180000       12.0110           0
     12947 MEMB     98       POPS     H4X      HAL2     0.900000E-01   1.00800           0
     12948 MEMB     98       POPS     H4Y      HAL2     0.900000E-01   1.00800           0
     12949 MEMB     98       POPS     C35      CTL2    -0.180000       12.0110           0
     12950 MEMB     98       POPS     H5X      HAL2     0.900000E-01   1.00800           0
     12951 MEMB     98       POPS     H5Y      HAL2     0.900000E-01   1.00800           0
     12952 MEMB     98       POPS     C36      CTL2    -0.180000       12.0110           0
     12953 MEMB     98       POPS     H6X      HAL2     0.900000E-01   1.00800           0
     12954 MEMB     98       POPS     H6Y      HAL2     0.900000E-01   1.00800           0
     12955 MEMB     98       POPS     C37      CTL2    -0.180000       12.0110           0
     12956 MEMB     98       POPS     H7X      HAL2     0.900000E-01   1.00800           0
     12957 MEMB     98       POPS     H7Y      HAL2     0.900000E-01   1.00800           0
     12958 MEMB     98       POPS     C38      CTL2    -0.180000       12.0110           0
     12959 MEMB     98       POPS     H8X      HAL2     0.900000E-01   1.00800           0
     12960 MEMB     98       POPS     H8Y      HAL2     0.900000E-01   1.00800           0
     12961 MEMB     98       POPS     C39      CTL2    -0.180000       12.0110           0
     12962 MEMB     98       POPS     H9X      HAL2     0.900000E-01   1.00800           0
     12963 MEMB     98       POPS     H9Y      HAL2     0.900000E-01   1.00800           0
     12964 MEMB     98       POPS     C310     CTL2    -0.180000       12.0110           0
     12965 MEMB     98       POPS     H10X     HAL2     0.900000E-01   1.00800           0
     12966 MEMB     98       POPS     H10Y     HAL2     0.900000E-01   1.00800           0
     12967 MEMB     98       POPS     C311     CTL2    -0.180000       12.0110           0
     12968 MEMB     98       POPS     H11X     HAL2     0.900000E-01   1.00800           0
     12969 MEMB     98       POPS     H11Y     HAL2     0.900000E-01   1.00800           0
     12970 MEMB     98       POPS     C312     CTL2    -0.180000       12.0110           0
     12971 MEMB     98       POPS     H12X     HAL2     0.900000E-01   1.00800           0
     12972 MEMB     98       POPS     H12Y     HAL2     0.900000E-01   1.00800           0
     12973 MEMB     98       POPS     C313     CTL2    -0.180000       12.0110           0
     12974 MEMB     98       POPS     H13X     HAL2     0.900000E-01   1.00800           0
     12975 MEMB     98       POPS     H13Y     HAL2     0.900000E-01   1.00800           0
     12976 MEMB     98       POPS     C314     CTL2    -0.180000       12.0110           0
     12977 MEMB     98       POPS     H14X     HAL2     0.900000E-01   1.00800           0
     12978 MEMB     98       POPS     H14Y     HAL2     0.900000E-01   1.00800           0
     12979 MEMB     98       POPS     C315     CTL2    -0.180000       12.0110           0
     12980 MEMB     98       POPS     H15X     HAL2     0.900000E-01   1.00800           0
     12981 MEMB     98       POPS     H15Y     HAL2     0.900000E-01   1.00800           0
     12982 MEMB     98       POPS     C316     CTL3    -0.270000       12.0110           0
     12983 MEMB     98       POPS     H16X     HAL3     0.900000E-01   1.00800           0
     12984 MEMB     98       POPS     H16Y     HAL3     0.900000E-01   1.00800           0
     12985 MEMB     98       POPS     H16Z     HAL3     0.900000E-01   1.00800           0
     12986 MEMB     99       POPC     N        NTL     -0.600000       14.0070           0
     12987 MEMB     99       POPC     C12      CTL2    -0.100000       12.0110           0
     12988 MEMB     99       POPC     H12A     HL       0.250000       1.00800           0
     12989 MEMB     99       POPC     H12B     HL       0.250000       1.00800           0
     12990 MEMB     99       POPC     C13      CTL5    -0.350000       12.0110           0
     12991 MEMB     99       POPC     H13A     HL       0.250000       1.00800           0
     12992 MEMB     99       POPC     H13B     HL       0.250000       1.00800           0
     12993 MEMB     99       POPC     H13C     HL       0.250000       1.00800           0
     12994 MEMB     99       POPC     C14      CTL5    -0.350000       12.0110           0
     12995 MEMB     99       POPC     H14A     HL       0.250000       1.00800           0
     12996 MEMB     99       POPC     H14B     HL       0.250000       1.00800           0
     12997 MEMB     99       POPC     H14C     HL       0.250000       1.00800           0
     12998 MEMB     99       POPC     C15      CTL5    -0.350000       12.0110           0
     12999 MEMB     99       POPC     H15A     HL       0.250000       1.00800           0
     13000 MEMB     99       POPC     H15B     HL       0.250000       1.00800           0
     13001 MEMB     99       POPC     H15C     HL       0.250000       1.00800           0
     13002 MEMB     99       POPC     C11      CTL2    -0.800000E-01   12.0110           0
     13003 MEMB     99       POPC     H11A     HAL2     0.900000E-01   1.00800           0
     13004 MEMB     99       POPC     H11B     HAL2     0.900000E-01   1.00800           0
     13005 MEMB     99       POPC     P        PL        1.50000       30.9740           0
     13006 MEMB     99       POPC     O13      O2L     -0.780000       15.9994           0
     13007 MEMB     99       POPC     O14      O2L     -0.780000       15.9994           0
     13008 MEMB     99       POPC     O12      OSLP    -0.570000       15.9994           0
     13009 MEMB     99       POPC     O11      OSLP    -0.570000       15.9994           0
     13010 MEMB     99       POPC     C1       CTL2    -0.800000E-01   12.0110           0
     13011 MEMB     99       POPC     HA       HAL2     0.900000E-01   1.00800           0
     13012 MEMB     99       POPC     HB       HAL2     0.900000E-01   1.00800           0
     13013 MEMB     99       POPC     C2       CTL1     0.170000       12.0110           0
     13014 MEMB     99       POPC     HS       HAL1     0.900000E-01   1.00800           0
     13015 MEMB     99       POPC     O21      OSL     -0.490000       15.9994           0
     13016 MEMB     99       POPC     C21      CL       0.900000       12.0110           0
     13017 MEMB     99       POPC     O22      OBL     -0.630000       15.9994           0
     13018 MEMB     99       POPC     C22      CTL2    -0.220000       12.0110           0
     13019 MEMB     99       POPC     H2R      HAL2     0.900000E-01   1.00800           0
     13020 MEMB     99       POPC     H2S      HAL2     0.900000E-01   1.00800           0
     13021 MEMB     99       POPC     C3       CTL2     0.800000E-01   12.0110           0
     13022 MEMB     99       POPC     HX       HAL2     0.900000E-01   1.00800           0
     13023 MEMB     99       POPC     HY       HAL2     0.900000E-01   1.00800           0
     13024 MEMB     99       POPC     O31      OSL     -0.490000       15.9994           0
     13025 MEMB     99       POPC     C31      CL       0.900000       12.0110           0
     13026 MEMB     99       POPC     O32      OBL     -0.630000       15.9994           0
     13027 MEMB     99       POPC     C32      CTL2    -0.220000       12.0110           0
     13028 MEMB     99       POPC     H2X      HAL2     0.900000E-01   1.00800           0
     13029 MEMB     99       POPC     H2Y      HAL2     0.900000E-01   1.00800           0
     13030 MEMB     99       POPC     C23      CTL2    -0.180000       12.0110           0
     13031 MEMB     99       POPC     H3R      HAL2     0.900000E-01   1.00800           0
     13032 MEMB     99       POPC     H3S      HAL2     0.900000E-01   1.00800           0
     13033 MEMB     99       POPC     C24      CTL2    -0.180000       12.0110           0
     13034 MEMB     99       POPC     H4R      HAL2     0.900000E-01   1.00800           0
     13035 MEMB     99       POPC     H4S      HAL2     0.900000E-01   1.00800           0
     13036 MEMB     99       POPC     C25      CTL2    -0.180000       12.0110           0
     13037 MEMB     99       POPC     H5R      HAL2     0.900000E-01   1.00800           0
     13038 MEMB     99       POPC     H5S      HAL2     0.900000E-01   1.00800           0
     13039 MEMB     99       POPC     C26      CTL2    -0.180000       12.0110           0
     13040 MEMB     99       POPC     H6R      HAL2     0.900000E-01   1.00800           0
     13041 MEMB     99       POPC     H6S      HAL2     0.900000E-01   1.00800           0
     13042 MEMB     99       POPC     C27      CTL2    -0.180000       12.0110           0
     13043 MEMB     99       POPC     H7R      HAL2     0.900000E-01   1.00800           0
     13044 MEMB     99       POPC     H7S      HAL2     0.900000E-01   1.00800           0
     13045 MEMB     99       POPC     C28      CTL2    -0.180000       12.0110           0
     13046 MEMB     99       POPC     H8R      HAL2     0.900000E-01   1.00800           0
     13047 MEMB     99       POPC     H8S      HAL2     0.900000E-01   1.00800           0
     13048 MEMB     99       POPC     C29      CEL1    -0.150000       12.0110           0
     13049 MEMB     99       POPC     H91      HEL1     0.150000       1.00800           0
     13050 MEMB     99       POPC     C210     CEL1    -0.150000       12.0110           0
     13051 MEMB     99       POPC     H101     HEL1     0.150000       1.00800           0
     13052 MEMB     99       POPC     C211     CTL2    -0.180000       12.0110           0
     13053 MEMB     99       POPC     H11R     HAL2     0.900000E-01   1.00800           0
     13054 MEMB     99       POPC     H11S     HAL2     0.900000E-01   1.00800           0
     13055 MEMB     99       POPC     C212     CTL2    -0.180000       12.0110           0
     13056 MEMB     99       POPC     H12R     HAL2     0.900000E-01   1.00800           0
     13057 MEMB     99       POPC     H12S     HAL2     0.900000E-01   1.00800           0
     13058 MEMB     99       POPC     C213     CTL2    -0.180000       12.0110           0
     13059 MEMB     99       POPC     H13R     HAL2     0.900000E-01   1.00800           0
     13060 MEMB     99       POPC     H13S     HAL2     0.900000E-01   1.00800           0
     13061 MEMB     99       POPC     C214     CTL2    -0.180000       12.0110           0
     13062 MEMB     99       POPC     H14R     HAL2     0.900000E-01   1.00800           0
     13063 MEMB     99       POPC     H14S     HAL2     0.900000E-01   1.00800           0
     13064 MEMB     99       POPC     C215     CTL2    -0.180000       12.0110           0
     13065 MEMB     99       POPC     H15R     HAL2     0.900000E-01   1.00800           0
     13066 MEMB     99       POPC     H15S     HAL2     0.900000E-01   1.00800           0
     13067 MEMB     99       POPC     C216     CTL2    -0.180000       12.0110           0
     13068 MEMB     99       POPC     H16R     HAL2     0.900000E-01   1.00800           0
     13069 MEMB     99       POPC     H16S     HAL2     0.900000E-01   1.00800           0
     13070 MEMB     99       POPC     C217     CTL2    -0.180000       12.0110           0
     13071 MEMB     99       POPC     H17R     HAL2     0.900000E-01   1.00800           0
     13072 MEMB     99       POPC     H17S     HAL2     0.900000E-01   1.00800           0
     13073 MEMB     99       POPC     C218     CTL3    -0.270000       12.0110           0
     13074 MEMB     99       POPC     H18R     HAL3     0.900000E-01   1.00800           0
     13075 MEMB     99       POPC     H18S     HAL3     0.900000E-01   1.00800           0
     13076 MEMB     99       POPC     H18T     HAL3     0.900000E-01   1.00800           0
     13077 MEMB     99       POPC     C33      CTL2    -0.180000       12.0110           0
     13078 MEMB     99       POPC     H3X      HAL2     0.900000E-01   1.00800           0
     13079 MEMB     99       POPC     H3Y      HAL2     0.900000E-01   1.00800           0
     13080 MEMB     99       POPC     C34      CTL2    -0.180000       12.0110           0
     13081 MEMB     99       POPC     H4X      HAL2     0.900000E-01   1.00800           0
     13082 MEMB     99       POPC     H4Y      HAL2     0.900000E-01   1.00800           0
     13083 MEMB     99       POPC     C35      CTL2    -0.180000       12.0110           0
     13084 MEMB     99       POPC     H5X      HAL2     0.900000E-01   1.00800           0
     13085 MEMB     99       POPC     H5Y      HAL2     0.900000E-01   1.00800           0
     13086 MEMB     99       POPC     C36      CTL2    -0.180000       12.0110           0
     13087 MEMB     99       POPC     H6X      HAL2     0.900000E-01   1.00800           0
     13088 MEMB     99       POPC     H6Y      HAL2     0.900000E-01   1.00800           0
     13089 MEMB     99       POPC     C37      CTL2    -0.180000       12.0110           0
     13090 MEMB     99       POPC     H7X      HAL2     0.900000E-01   1.00800           0
     13091 MEMB     99       POPC     H7Y      HAL2     0.900000E-01   1.00800           0
     13092 MEMB     99       POPC     C38      CTL2    -0.180000       12.0110           0
     13093 MEMB     99       POPC     H8X      HAL2     0.900000E-01   1.00800           0
     13094 MEMB     99       POPC     H8Y      HAL2     0.900000E-01   1.00800           0
     13095 MEMB     99       POPC     C39      CTL2    -0.180000       12.0110           0
     13096 MEMB     99       POPC     H9X      HAL2     0.900000E-01   1.00800           0
     13097 MEMB     99       POPC     H9Y      HAL2     0.900000E-01   1.00800           0
     13098 MEMB     99       POPC     C310     CTL2    -0.180000       12.0110           0
     13099 MEMB     99       POPC     H10X     HAL2     0.900000E-01   1.00800           0
     13100 MEMB     99       POPC     H10Y     HAL2     0.900000E-01   1.00800           0
     13101 MEMB     99       POPC     C311     CTL2    -0.180000       12.0110           0
     13102 MEMB     99       POPC     H11X     HAL2     0.900000E-01   1.00800           0
     13103 MEMB     99       POPC     H11Y     HAL2     0.900000E-01   1.00800           0
     13104 MEMB     99       POPC     C312     CTL2    -0.180000       12.0110           0
     13105 MEMB     99       POPC     H12X     HAL2     0.900000E-01   1.00800           0
     13106 MEMB     99       POPC     H12Y     HAL2     0.900000E-01   1.00800           0
     13107 MEMB     99       POPC     C313     CTL2    -0.180000       12.0110           0
     13108 MEMB     99       POPC     H13X     HAL2     0.900000E-01   1.00800           0
     13109 MEMB     99       POPC     H13Y     HAL2     0.900000E-01   1.00800           0
     13110 MEMB     99       POPC     C314     CTL2    -0.180000       12.0110           0
     13111 MEMB     99       POPC     H14X     HAL2     0.900000E-01   1.00800           0
     13112 MEMB     99       POPC     H14Y     HAL2     0.900000E-01   1.00800           0
     13113 MEMB     99       POPC     C315     CTL2    -0.180000       12.0110           0
     13114 MEMB     99       POPC     H15X     HAL2     0.900000E-01   1.00800           0
     13115 MEMB     99       POPC     H15Y     HAL2     0.900000E-01   1.00800           0
     13116 MEMB     99       POPC     C316     CTL3    -0.270000       12.0110           0
     13117 MEMB     99       POPC     H16X     HAL3     0.900000E-01   1.00800           0
     13118 MEMB     99       POPC     H16Y     HAL3     0.900000E-01   1.00800           0
     13119 MEMB     99       POPC     H16Z     HAL3     0.900000E-01   1.00800           0
     13120 MEMB     100      POPC     N        NTL     -0.600000       14.0070           0
     13121 MEMB     100      POPC     C12      CTL2    -0.100000       12.0110           0
     13122 MEMB     100      POPC     H12A     HL       0.250000       1.00800           0
     13123 MEMB     100      POPC     H12B     HL       0.250000       1.00800           0
     13124 MEMB     100      POPC     C13      CTL5    -0.350000       12.0110           0
     13125 MEMB     100      POPC     H13A     HL       0.250000       1.00800           0
     13126 MEMB     100      POPC     H13B     HL       0.250000       1.00800           0
     13127 MEMB     100      POPC     H13C     HL       0.250000       1.00800           0
     13128 MEMB     100      POPC     C14      CTL5    -0.350000       12.0110           0
     13129 MEMB     100      POPC     H14A     HL       0.250000       1.00800           0
     13130 MEMB     100      POPC     H14B     HL       0.250000       1.00800           0
     13131 MEMB     100      POPC     H14C     HL       0.250000       1.00800           0
     13132 MEMB     100      POPC     C15      CTL5    -0.350000       12.0110           0
     13133 MEMB     100      POPC     H15A     HL       0.250000       1.00800           0
     13134 MEMB     100      POPC     H15B     HL       0.250000       1.00800           0
     13135 MEMB     100      POPC     H15C     HL       0.250000       1.00800           0
     13136 MEMB     100      POPC     C11      CTL2    -0.800000E-01   12.0110           0
     13137 MEMB     100      POPC     H11A     HAL2     0.900000E-01   1.00800           0
     13138 MEMB     100      POPC     H11B     HAL2     0.900000E-01   1.00800           0
     13139 MEMB     100      POPC     P        PL        1.50000       30.9740           0
     13140 MEMB     100      POPC     O13      O2L     -0.780000       15.9994           0
     13141 MEMB     100      POPC     O14      O2L     -0.780000       15.9994           0
     13142 MEMB     100      POPC     O12      OSLP    -0.570000       15.9994           0
     13143 MEMB     100      POPC     O11      OSLP    -0.570000       15.9994           0
     13144 MEMB     100      POPC     C1       CTL2    -0.800000E-01   12.0110           0
     13145 MEMB     100      POPC     HA       HAL2     0.900000E-01   1.00800           0
     13146 MEMB     100      POPC     HB       HAL2     0.900000E-01   1.00800           0
     13147 MEMB     100      POPC     C2       CTL1     0.170000       12.0110           0
     13148 MEMB     100      POPC     HS       HAL1     0.900000E-01   1.00800           0
     13149 MEMB     100      POPC     O21      OSL     -0.490000       15.9994           0
     13150 MEMB     100      POPC     C21      CL       0.900000       12.0110           0
     13151 MEMB     100      POPC     O22      OBL     -0.630000       15.9994           0
     13152 MEMB     100      POPC     C22      CTL2    -0.220000       12.0110           0
     13153 MEMB     100      POPC     H2R      HAL2     0.900000E-01   1.00800           0
     13154 MEMB     100      POPC     H2S      HAL2     0.900000E-01   1.00800           0
     13155 MEMB     100      POPC     C3       CTL2     0.800000E-01   12.0110           0
     13156 MEMB     100      POPC     HX       HAL2     0.900000E-01   1.00800           0
     13157 MEMB     100      POPC     HY       HAL2     0.900000E-01   1.00800           0
     13158 MEMB     100      POPC     O31      OSL     -0.490000       15.9994           0
     13159 MEMB     100      POPC     C31      CL       0.900000       12.0110           0
     13160 MEMB     100      POPC     O32      OBL     -0.630000       15.9994           0
     13161 MEMB     100      POPC     C32      CTL2    -0.220000       12.0110           0
     13162 MEMB     100      POPC     H2X      HAL2     0.900000E-01   1.00800           0
     13163 MEMB     100      POPC     H2Y      HAL2     0.900000E-01   1.00800           0
     13164 MEMB     100      POPC     C23      CTL2    -0.180000       12.0110           0
     13165 MEMB     100      POPC     H3R      HAL2     0.900000E-01   1.00800           0
     13166 MEMB     100      POPC     H3S      HAL2     0.900000E-01   1.00800           0
     13167 MEMB     100      POPC     C24      CTL2    -0.180000       12.0110           0
     13168 MEMB     100      POPC     H4R      HAL2     0.900000E-01   1.00800           0
     13169 MEMB     100      POPC     H4S      HAL2     0.900000E-01   1.00800           0
     13170 MEMB     100      POPC     C25      CTL2    -0.180000       12.0110           0
     13171 MEMB     100      POPC     H5R      HAL2     0.900000E-01   1.00800           0
     13172 MEMB     100      POPC     H5S      HAL2     0.900000E-01   1.00800           0
     13173 MEMB     100      POPC     C26      CTL2    -0.180000       12.0110           0
     13174 MEMB     100      POPC     H6R      HAL2     0.900000E-01   1.00800           0
     13175 MEMB     100      POPC     H6S      HAL2     0.900000E-01   1.00800           0
     13176 MEMB     100      POPC     C27      CTL2    -0.180000       12.0110           0
     13177 MEMB     100      POPC     H7R      HAL2     0.900000E-01   1.00800           0
     13178 MEMB     100      POPC     H7S      HAL2     0.900000E-01   1.00800           0
     13179 MEMB     100      POPC     C28      CTL2    -0.180000       12.0110           0
     13180 MEMB     100      POPC     H8R      HAL2     0.900000E-01   1.00800           0
     13181 MEMB     100      POPC     H8S      HAL2     0.900000E-01   1.00800           0
     13182 MEMB     100      POPC     C29      CEL1    -0.150000       12.0110           0
     13183 MEMB     100      POPC     H91      HEL1     0.150000       1.00800           0
     13184 MEMB     100      POPC     C210     CEL1    -0.150000       12.0110           0
     13185 MEMB     100      POPC     H101     HEL1     0.150000       1.00800           0
     13186 MEMB     100      POPC     C211     CTL2    -0.180000       12.0110           0
     13187 MEMB     100      POPC     H11R     HAL2     0.900000E-01   1.00800           0
     13188 MEMB     100      POPC     H11S     HAL2     0.900000E-01   1.00800           0
     13189 MEMB     100      POPC     C212     CTL2    -0.180000       12.0110           0
     13190 MEMB     100      POPC     H12R     HAL2     0.900000E-01   1.00800           0
     13191 MEMB     100      POPC     H12S     HAL2     0.900000E-01   1.00800           0
     13192 MEMB     100      POPC     C213     CTL2    -0.180000       12.0110           0
     13193 MEMB     100      POPC     H13R     HAL2     0.900000E-01   1.00800           0
     13194 MEMB     100      POPC     H13S     HAL2     0.900000E-01   1.00800           0
     13195 MEMB     100      POPC     C214     CTL2    -0.180000       12.0110           0
     13196 MEMB     100      POPC     H14R     HAL2     0.900000E-01   1.00800           0
     13197 MEMB     100      POPC     H14S     HAL2     0.900000E-01   1.00800           0
     13198 MEMB     100      POPC     C215     CTL2    -0.180000       12.0110           0
     13199 MEMB     100      POPC     H15R     HAL2     0.900000E-01   1.00800           0
     13200 MEMB     100      POPC     H15S     HAL2     0.900000E-01   1.00800           0
     13201 MEMB     100      POPC     C216     CTL2    -0.180000       12.0110           0
     13202 MEMB     100      POPC     H16R     HAL2     0.900000E-01   1.00800           0
     13203 MEMB     100      POPC     H16S     HAL2     0.900000E-01   1.00800           0
     13204 MEMB     100      POPC     C217     CTL2    -0.180000       12.0110           0
     13205 MEMB     100      POPC     H17R     HAL2     0.900000E-01   1.00800           0
     13206 MEMB     100      POPC     H17S     HAL2     0.900000E-01   1.00800           0
     13207 MEMB     100      POPC     C218     CTL3    -0.270000       12.0110           0
     13208 MEMB     100      POPC     H18R     HAL3     0.900000E-01   1.00800           0
     13209 MEMB     100      POPC     H18S     HAL3     0.900000E-01   1.00800           0
     13210 MEMB     100      POPC     H18T     HAL3     0.900000E-01   1.00800           0
     13211 MEMB     100      POPC     C33      CTL2    -0.180000       12.0110           0
     13212 MEMB     100      POPC     H3X      HAL2     0.900000E-01   1.00800           0
     13213 MEMB     100      POPC     H3Y      HAL2     0.900000E-01   1.00800           0
     13214 MEMB     100      POPC     C34      CTL2    -0.180000       12.0110           0
     13215 MEMB     100      POPC     H4X      HAL2     0.900000E-01   1.00800           0
     13216 MEMB     100      POPC     H4Y      HAL2     0.900000E-01   1.00800           0
     13217 MEMB     100      POPC     C35      CTL2    -0.180000       12.0110           0
     13218 MEMB     100      POPC     H5X      HAL2     0.900000E-01   1.00800           0
     13219 MEMB     100      POPC     H5Y      HAL2     0.900000E-01   1.00800           0
     13220 MEMB     100      POPC     C36      CTL2    -0.180000       12.0110           0
     13221 MEMB     100      POPC     H6X      HAL2     0.900000E-01   1.00800           0
     13222 MEMB     100      POPC     H6Y      HAL2     0.900000E-01   1.00800           0
     13223 MEMB     100      POPC     C37      CTL2    -0.180000       12.0110           0
     13224 MEMB     100      POPC     H7X      HAL2     0.900000E-01   1.00800           0
     13225 MEMB     100      POPC     H7Y      HAL2     0.900000E-01   1.00800           0
     13226 MEMB     100      POPC     C38      CTL2    -0.180000       12.0110           0
     13227 MEMB     100      POPC     H8X      HAL2     0.900000E-01   1.00800           0
     13228 MEMB     100      POPC     H8Y      HAL2     0.900000E-01   1.00800           0
     13229 MEMB     100      POPC     C39      CTL2    -0.180000       12.0110           0
     13230 MEMB     100      POPC     H9X      HAL2     0.900000E-01   1.00800           0
     13231 MEMB     100      POPC     H9Y      HAL2     0.900000E-01   1.00800           0
     13232 MEMB     100      POPC     C310     CTL2    -0.180000       12.0110           0
     13233 MEMB     100      POPC     H10X     HAL2     0.900000E-01   1.00800           0
     13234 MEMB     100      POPC     H10Y     HAL2     0.900000E-01   1.00800           0
     13235 MEMB     100      POPC     C311     CTL2    -0.180000       12.0110           0
     13236 MEMB     100      POPC     H11X     HAL2     0.900000E-01   1.00800           0
     13237 MEMB     100      POPC     H11Y     HAL2     0.900000E-01   1.00800           0
     13238 MEMB     100      POPC     C312     CTL2    -0.180000       12.0110           0
     13239 MEMB     100      POPC     H12X     HAL2     0.900000E-01   1.00800           0
     13240 MEMB     100      POPC     H12Y     HAL2     0.900000E-01   1.00800           0
     13241 MEMB     100      POPC     C313     CTL2    -0.180000       12.0110           0
     13242 MEMB     100      POPC     H13X     HAL2     0.900000E-01   1.00800           0
     13243 MEMB     100      POPC     H13Y     HAL2     0.900000E-01   1.00800           0
     13244 MEMB     100      POPC     C314     CTL2    -0.180000       12.0110           0
     13245 MEMB     100      POPC     H14X     HAL2     0.900000E-01   1.00800           0
     13246 MEMB     100      POPC     H14Y     HAL2     0.900000E-01   1.00800           0
     13247 MEMB     100      POPC     C315     CTL2    -0.180000       12.0110           0
     13248 MEMB     100      POPC     H15X     HAL2     0.900000E-01   1.00800           0
     13249 MEMB     100      POPC     H15Y     HAL2     0.900000E-01   1.00800           0
     13250 MEMB     100      POPC     C316     CTL3    -0.270000       12.0110           0
     13251 MEMB     100      POPC     H16X     HAL3     0.900000E-01   1.00800           0
     13252 MEMB     100      POPC     H16Y     HAL3     0.900000E-01   1.00800           0
     13253 MEMB     100      POPC     H16Z     HAL3     0.900000E-01   1.00800           0
     13254 MEMB     101      POPC     N        NTL     -0.600000       14.0070           0
     13255 MEMB     101      POPC     C12      CTL2    -0.100000       12.0110           0
     13256 MEMB     101      POPC     H12A     HL       0.250000       1.00800           0
     13257 MEMB     101      POPC     H12B     HL       0.250000       1.00800           0
     13258 MEMB     101      POPC     C13      CTL5    -0.350000       12.0110           0
     13259 MEMB     101      POPC     H13A     HL       0.250000       1.00800           0
     13260 MEMB     101      POPC     H13B     HL       0.250000       1.00800           0
     13261 MEMB     101      POPC     H13C     HL       0.250000       1.00800           0
     13262 MEMB     101      POPC     C14      CTL5    -0.350000       12.0110           0
     13263 MEMB     101      POPC     H14A     HL       0.250000       1.00800           0
     13264 MEMB     101      POPC     H14B     HL       0.250000       1.00800           0
     13265 MEMB     101      POPC     H14C     HL       0.250000       1.00800           0
     13266 MEMB     101      POPC     C15      CTL5    -0.350000       12.0110           0
     13267 MEMB     101      POPC     H15A     HL       0.250000       1.00800           0
     13268 MEMB     101      POPC     H15B     HL       0.250000       1.00800           0
     13269 MEMB     101      POPC     H15C     HL       0.250000       1.00800           0
     13270 MEMB     101      POPC     C11      CTL2    -0.800000E-01   12.0110           0
     13271 MEMB     101      POPC     H11A     HAL2     0.900000E-01   1.00800           0
     13272 MEMB     101      POPC     H11B     HAL2     0.900000E-01   1.00800           0
     13273 MEMB     101      POPC     P        PL        1.50000       30.9740           0
     13274 MEMB     101      POPC     O13      O2L     -0.780000       15.9994           0
     13275 MEMB     101      POPC     O14      O2L     -0.780000       15.9994           0
     13276 MEMB     101      POPC     O12      OSLP    -0.570000       15.9994           0
     13277 MEMB     101      POPC     O11      OSLP    -0.570000       15.9994           0
     13278 MEMB     101      POPC     C1       CTL2    -0.800000E-01   12.0110           0
     13279 MEMB     101      POPC     HA       HAL2     0.900000E-01   1.00800           0
     13280 MEMB     101      POPC     HB       HAL2     0.900000E-01   1.00800           0
     13281 MEMB     101      POPC     C2       CTL1     0.170000       12.0110           0
     13282 MEMB     101      POPC     HS       HAL1     0.900000E-01   1.00800           0
     13283 MEMB     101      POPC     O21      OSL     -0.490000       15.9994           0
     13284 MEMB     101      POPC     C21      CL       0.900000       12.0110           0
     13285 MEMB     101      POPC     O22      OBL     -0.630000       15.9994           0
     13286 MEMB     101      POPC     C22      CTL2    -0.220000       12.0110           0
     13287 MEMB     101      POPC     H2R      HAL2     0.900000E-01   1.00800           0
     13288 MEMB     101      POPC     H2S      HAL2     0.900000E-01   1.00800           0
     13289 MEMB     101      POPC     C3       CTL2     0.800000E-01   12.0110           0
     13290 MEMB     101      POPC     HX       HAL2     0.900000E-01   1.00800           0
     13291 MEMB     101      POPC     HY       HAL2     0.900000E-01   1.00800           0
     13292 MEMB     101      POPC     O31      OSL     -0.490000       15.9994           0
     13293 MEMB     101      POPC     C31      CL       0.900000       12.0110           0
     13294 MEMB     101      POPC     O32      OBL     -0.630000       15.9994           0
     13295 MEMB     101      POPC     C32      CTL2    -0.220000       12.0110           0
     13296 MEMB     101      POPC     H2X      HAL2     0.900000E-01   1.00800           0
     13297 MEMB     101      POPC     H2Y      HAL2     0.900000E-01   1.00800           0
     13298 MEMB     101      POPC     C23      CTL2    -0.180000       12.0110           0
     13299 MEMB     101      POPC     H3R      HAL2     0.900000E-01   1.00800           0
     13300 MEMB     101      POPC     H3S      HAL2     0.900000E-01   1.00800           0
     13301 MEMB     101      POPC     C24      CTL2    -0.180000       12.0110           0
     13302 MEMB     101      POPC     H4R      HAL2     0.900000E-01   1.00800           0
     13303 MEMB     101      POPC     H4S      HAL2     0.900000E-01   1.00800           0
     13304 MEMB     101      POPC     C25      CTL2    -0.180000       12.0110           0
     13305 MEMB     101      POPC     H5R      HAL2     0.900000E-01   1.00800           0
     13306 MEMB     101      POPC     H5S      HAL2     0.900000E-01   1.00800           0
     13307 MEMB     101      POPC     C26      CTL2    -0.180000       12.0110           0
     13308 MEMB     101      POPC     H6R      HAL2     0.900000E-01   1.00800           0
     13309 MEMB     101      POPC     H6S      HAL2     0.900000E-01   1.00800           0
     13310 MEMB     101      POPC     C27      CTL2    -0.180000       12.0110           0
     13311 MEMB     101      POPC     H7R      HAL2     0.900000E-01   1.00800           0
     13312 MEMB     101      POPC     H7S      HAL2     0.900000E-01   1.00800           0
     13313 MEMB     101      POPC     C28      CTL2    -0.180000       12.0110           0
     13314 MEMB     101      POPC     H8R      HAL2     0.900000E-01   1.00800           0
     13315 MEMB     101      POPC     H8S      HAL2     0.900000E-01   1.00800           0
     13316 MEMB     101      POPC     C29      CEL1    -0.150000       12.0110           0
     13317 MEMB     101      POPC     H91      HEL1     0.150000       1.00800           0
     13318 MEMB     101      POPC     C210     CEL1    -0.150000       12.0110           0
     13319 MEMB     101      POPC     H101     HEL1     0.150000       1.00800           0
     13320 MEMB     101      POPC     C211     CTL2    -0.180000       12.0110           0
     13321 MEMB     101      POPC     H11R     HAL2     0.900000E-01   1.00800           0
     13322 MEMB     101      POPC     H11S     HAL2     0.900000E-01   1.00800           0
     13323 MEMB     101      POPC     C212     CTL2    -0.180000       12.0110           0
     13324 MEMB     101      POPC     H12R     HAL2     0.900000E-01   1.00800           0
     13325 MEMB     101      POPC     H12S     HAL2     0.900000E-01   1.00800           0
     13326 MEMB     101      POPC     C213     CTL2    -0.180000       12.0110           0
     13327 MEMB     101      POPC     H13R     HAL2     0.900000E-01   1.00800           0
     13328 MEMB     101      POPC     H13S     HAL2     0.900000E-01   1.00800           0
     13329 MEMB     101      POPC     C214     CTL2    -0.180000       12.0110           0
     13330 MEMB     101      POPC     H14R     HAL2     0.900000E-01   1.00800           0
     13331 MEMB     101      POPC     H14S     HAL2     0.900000E-01   1.00800           0
     13332 MEMB     101      POPC     C215     CTL2    -0.180000       12.0110           0
     13333 MEMB     101      POPC     H15R     HAL2     0.900000E-01   1.00800           0
     13334 MEMB     101      POPC     H15S     HAL2     0.900000E-01   1.00800           0
     13335 MEMB     101      POPC     C216     CTL2    -0.180000       12.0110           0
     13336 MEMB     101      POPC     H16R     HAL2     0.900000E-01   1.00800           0
     13337 MEMB     101      POPC     H16S     HAL2     0.900000E-01   1.00800           0
     13338 MEMB     101      POPC     C217     CTL2    -0.180000       12.0110           0
     13339 MEMB     101      POPC     H17R     HAL2     0.900000E-01   1.00800           0
     13340 MEMB     101      POPC     H17S     HAL2     0.900000E-01   1.00800           0
     13341 MEMB     101      POPC     C218     CTL3    -0.270000       12.0110           0
     13342 MEMB     101      POPC     H18R     HAL3     0.900000E-01   1.00800           0
     13343 MEMB     101      POPC     H18S     HAL3     0.900000E-01   1.00800           0
     13344 MEMB     101      POPC     H18T     HAL3     0.900000E-01   1.00800           0
     13345 MEMB     101      POPC     C33      CTL2    -0.180000       12.0110           0
     13346 MEMB     101      POPC     H3X      HAL2     0.900000E-01   1.00800           0
     13347 MEMB     101      POPC     H3Y      HAL2     0.900000E-01   1.00800           0
     13348 MEMB     101      POPC     C34      CTL2    -0.180000       12.0110           0
     13349 MEMB     101      POPC     H4X      HAL2     0.900000E-01   1.00800           0
     13350 MEMB     101      POPC     H4Y      HAL2     0.900000E-01   1.00800           0
     13351 MEMB     101      POPC     C35      CTL2    -0.180000       12.0110           0
     13352 MEMB     101      POPC     H5X      HAL2     0.900000E-01   1.00800           0
     13353 MEMB     101      POPC     H5Y      HAL2     0.900000E-01   1.00800           0
     13354 MEMB     101      POPC     C36      CTL2    -0.180000       12.0110           0
     13355 MEMB     101      POPC     H6X      HAL2     0.900000E-01   1.00800           0
     13356 MEMB     101      POPC     H6Y      HAL2     0.900000E-01   1.00800           0
     13357 MEMB     101      POPC     C37      CTL2    -0.180000       12.0110           0
     13358 MEMB     101      POPC     H7X      HAL2     0.900000E-01   1.00800           0
     13359 MEMB     101      POPC     H7Y      HAL2     0.900000E-01   1.00800           0
     13360 MEMB     101      POPC     C38      CTL2    -0.180000       12.0110           0
     13361 MEMB     101      POPC     H8X      HAL2     0.900000E-01   1.00800           0
     13362 MEMB     101      POPC     H8Y      HAL2     0.900000E-01   1.00800           0
     13363 MEMB     101      POPC     C39      CTL2    -0.180000       12.0110           0
     13364 MEMB     101      POPC     H9X      HAL2     0.900000E-01   1.00800           0
     13365 MEMB     101      POPC     H9Y      HAL2     0.900000E-01   1.00800           0
     13366 MEMB     101      POPC     C310     CTL2    -0.180000       12.0110           0
     13367 MEMB     101      POPC     H10X     HAL2     0.900000E-01   1.00800           0
     13368 MEMB     101      POPC     H10Y     HAL2     0.900000E-01   1.00800           0
     13369 MEMB     101      POPC     C311     CTL2    -0.180000       12.0110           0
     13370 MEMB     101      POPC     H11X     HAL2     0.900000E-01   1.00800           0
     13371 MEMB     101      POPC     H11Y     HAL2     0.900000E-01   1.00800           0
     13372 MEMB     101      POPC     C312     CTL2    -0.180000       12.0110           0
     13373 MEMB     101      POPC     H12X     HAL2     0.900000E-01   1.00800           0
     13374 MEMB     101      POPC     H12Y     HAL2     0.900000E-01   1.00800           0
     13375 MEMB     101      POPC     C313     CTL2    -0.180000       12.0110           0
     13376 MEMB     101      POPC     H13X     HAL2     0.900000E-01   1.00800           0
     13377 MEMB     101      POPC     H13Y     HAL2     0.900000E-01   1.00800           0
     13378 MEMB     101      POPC     C314     CTL2    -0.180000       12.0110           0
     13379 MEMB     101      POPC     H14X     HAL2     0.900000E-01   1.00800           0
     13380 MEMB     101      POPC     H14Y     HAL2     0.900000E-01   1.00800           0
     13381 MEMB     101      POPC     C315     CTL2    -0.180000       12.0110           0
     13382 MEMB     101      POPC     H15X     HAL2     0.900000E-01   1.00800           0
     13383 MEMB     101      POPC     H15Y     HAL2     0.900000E-01   1.00800           0
     13384 MEMB     101      POPC     C316     CTL3    -0.270000       12.0110           0
     13385 MEMB     101      POPC     H16X     HAL3     0.900000E-01   1.00800           0
     13386 MEMB     101      POPC     H16Y     HAL3     0.900000E-01   1.00800           0
     13387 MEMB     101      POPC     H16Z     HAL3     0.900000E-01   1.00800           0
     13388 MEMB     102      POPC     N        NTL     -0.600000       14.0070           0
     13389 MEMB     102      POPC     C12      CTL2    -0.100000       12.0110           0
     13390 MEMB     102      POPC     H12A     HL       0.250000       1.00800           0
     13391 MEMB     102      POPC     H12B     HL       0.250000       1.00800           0
     13392 MEMB     102      POPC     C13      CTL5    -0.350000       12.0110           0
     13393 MEMB     102      POPC     H13A     HL       0.250000       1.00800           0
     13394 MEMB     102      POPC     H13B     HL       0.250000       1.00800           0
     13395 MEMB     102      POPC     H13C     HL       0.250000       1.00800           0
     13396 MEMB     102      POPC     C14      CTL5    -0.350000       12.0110           0
     13397 MEMB     102      POPC     H14A     HL       0.250000       1.00800           0
     13398 MEMB     102      POPC     H14B     HL       0.250000       1.00800           0
     13399 MEMB     102      POPC     H14C     HL       0.250000       1.00800           0
     13400 MEMB     102      POPC     C15      CTL5    -0.350000       12.0110           0
     13401 MEMB     102      POPC     H15A     HL       0.250000       1.00800           0
     13402 MEMB     102      POPC     H15B     HL       0.250000       1.00800           0
     13403 MEMB     102      POPC     H15C     HL       0.250000       1.00800           0
     13404 MEMB     102      POPC     C11      CTL2    -0.800000E-01   12.0110           0
     13405 MEMB     102      POPC     H11A     HAL2     0.900000E-01   1.00800           0
     13406 MEMB     102      POPC     H11B     HAL2     0.900000E-01   1.00800           0
     13407 MEMB     102      POPC     P        PL        1.50000       30.9740           0
     13408 MEMB     102      POPC     O13      O2L     -0.780000       15.9994           0
     13409 MEMB     102      POPC     O14      O2L     -0.780000       15.9994           0
     13410 MEMB     102      POPC     O12      OSLP    -0.570000       15.9994           0
     13411 MEMB     102      POPC     O11      OSLP    -0.570000       15.9994           0
     13412 MEMB     102      POPC     C1       CTL2    -0.800000E-01   12.0110           0
     13413 MEMB     102      POPC     HA       HAL2     0.900000E-01   1.00800           0
     13414 MEMB     102      POPC     HB       HAL2     0.900000E-01   1.00800           0
     13415 MEMB     102      POPC     C2       CTL1     0.170000       12.0110           0
     13416 MEMB     102      POPC     HS       HAL1     0.900000E-01   1.00800           0
     13417 MEMB     102      POPC     O21      OSL     -0.490000       15.9994           0
     13418 MEMB     102      POPC     C21      CL       0.900000       12.0110           0
     13419 MEMB     102      POPC     O22      OBL     -0.630000       15.9994           0
     13420 MEMB     102      POPC     C22      CTL2    -0.220000       12.0110           0
     13421 MEMB     102      POPC     H2R      HAL2     0.900000E-01   1.00800           0
     13422 MEMB     102      POPC     H2S      HAL2     0.900000E-01   1.00800           0
     13423 MEMB     102      POPC     C3       CTL2     0.800000E-01   12.0110           0
     13424 MEMB     102      POPC     HX       HAL2     0.900000E-01   1.00800           0
     13425 MEMB     102      POPC     HY       HAL2     0.900000E-01   1.00800           0
     13426 MEMB     102      POPC     O31      OSL     -0.490000       15.9994           0
     13427 MEMB     102      POPC     C31      CL       0.900000       12.0110           0
     13428 MEMB     102      POPC     O32      OBL     -0.630000       15.9994           0
     13429 MEMB     102      POPC     C32      CTL2    -0.220000       12.0110           0
     13430 MEMB     102      POPC     H2X      HAL2     0.900000E-01   1.00800           0
     13431 MEMB     102      POPC     H2Y      HAL2     0.900000E-01   1.00800           0
     13432 MEMB     102      POPC     C23      CTL2    -0.180000       12.0110           0
     13433 MEMB     102      POPC     H3R      HAL2     0.900000E-01   1.00800           0
     13434 MEMB     102      POPC     H3S      HAL2     0.900000E-01   1.00800           0
     13435 MEMB     102      POPC     C24      CTL2    -0.180000       12.0110           0
     13436 MEMB     102      POPC     H4R      HAL2     0.900000E-01   1.00800           0
     13437 MEMB     102      POPC     H4S      HAL2     0.900000E-01   1.00800           0
     13438 MEMB     102      POPC     C25      CTL2    -0.180000       12.0110           0
     13439 MEMB     102      POPC     H5R      HAL2     0.900000E-01   1.00800           0
     13440 MEMB     102      POPC     H5S      HAL2     0.900000E-01   1.00800           0
     13441 MEMB     102      POPC     C26      CTL2    -0.180000       12.0110           0
     13442 MEMB     102      POPC     H6R      HAL2     0.900000E-01   1.00800           0
     13443 MEMB     102      POPC     H6S      HAL2     0.900000E-01   1.00800           0
     13444 MEMB     102      POPC     C27      CTL2    -0.180000       12.0110           0
     13445 MEMB     102      POPC     H7R      HAL2     0.900000E-01   1.00800           0
     13446 MEMB     102      POPC     H7S      HAL2     0.900000E-01   1.00800           0
     13447 MEMB     102      POPC     C28      CTL2    -0.180000       12.0110           0
     13448 MEMB     102      POPC     H8R      HAL2     0.900000E-01   1.00800           0
     13449 MEMB     102      POPC     H8S      HAL2     0.900000E-01   1.00800           0
     13450 MEMB     102      POPC     C29      CEL1    -0.150000       12.0110           0
     13451 MEMB     102      POPC     H91      HEL1     0.150000       1.00800           0
     13452 MEMB     102      POPC     C210     CEL1    -0.150000       12.0110           0
     13453 MEMB     102      POPC     H101     HEL1     0.150000       1.00800           0
     13454 MEMB     102      POPC     C211     CTL2    -0.180000       12.0110           0
     13455 MEMB     102      POPC     H11R     HAL2     0.900000E-01   1.00800           0
     13456 MEMB     102      POPC     H11S     HAL2     0.900000E-01   1.00800           0
     13457 MEMB     102      POPC     C212     CTL2    -0.180000       12.0110           0
     13458 MEMB     102      POPC     H12R     HAL2     0.900000E-01   1.00800           0
     13459 MEMB     102      POPC     H12S     HAL2     0.900000E-01   1.00800           0
     13460 MEMB     102      POPC     C213     CTL2    -0.180000       12.0110           0
     13461 MEMB     102      POPC     H13R     HAL2     0.900000E-01   1.00800           0
     13462 MEMB     102      POPC     H13S     HAL2     0.900000E-01   1.00800           0
     13463 MEMB     102      POPC     C214     CTL2    -0.180000       12.0110           0
     13464 MEMB     102      POPC     H14R     HAL2     0.900000E-01   1.00800           0
     13465 MEMB     102      POPC     H14S     HAL2     0.900000E-01   1.00800           0
     13466 MEMB     102      POPC     C215     CTL2    -0.180000       12.0110           0
     13467 MEMB     102      POPC     H15R     HAL2     0.900000E-01   1.00800           0
     13468 MEMB     102      POPC     H15S     HAL2     0.900000E-01   1.00800           0
     13469 MEMB     102      POPC     C216     CTL2    -0.180000       12.0110           0
     13470 MEMB     102      POPC     H16R     HAL2     0.900000E-01   1.00800           0
     13471 MEMB     102      POPC     H16S     HAL2     0.900000E-01   1.00800           0
     13472 MEMB     102      POPC     C217     CTL2    -0.180000       12.0110           0
     13473 MEMB     102      POPC     H17R     HAL2     0.900000E-01   1.00800           0
     13474 MEMB     102      POPC     H17S     HAL2     0.900000E-01   1.00800           0
     13475 MEMB     102      POPC     C218     CTL3    -0.270000       12.0110           0
     13476 MEMB     102      POPC     H18R     HAL3     0.900000E-01   1.00800           0
     13477 MEMB     102      POPC     H18S     HAL3     0.900000E-01   1.00800           0
     13478 MEMB     102      POPC     H18T     HAL3     0.900000E-01   1.00800           0
     13479 MEMB     102      POPC     C33      CTL2    -0.180000       12.0110           0
     13480 MEMB     102      POPC     H3X      HAL2     0.900000E-01   1.00800           0
     13481 MEMB     102      POPC     H3Y      HAL2     0.900000E-01   1.00800           0
     13482 MEMB     102      POPC     C34      CTL2    -0.180000       12.0110           0
     13483 MEMB     102      POPC     H4X      HAL2     0.900000E-01   1.00800           0
     13484 MEMB     102      POPC     H4Y      HAL2     0.900000E-01   1.00800           0
     13485 MEMB     102      POPC     C35      CTL2    -0.180000       12.0110           0
     13486 MEMB     102      POPC     H5X      HAL2     0.900000E-01   1.00800           0
     13487 MEMB     102      POPC     H5Y      HAL2     0.900000E-01   1.00800           0
     13488 MEMB     102      POPC     C36      CTL2    -0.180000       12.0110           0
     13489 MEMB     102      POPC     H6X      HAL2     0.900000E-01   1.00800           0
     13490 MEMB     102      POPC     H6Y      HAL2     0.900000E-01   1.00800           0
     13491 MEMB     102      POPC     C37      CTL2    -0.180000       12.0110           0
     13492 MEMB     102      POPC     H7X      HAL2     0.900000E-01   1.00800           0
     13493 MEMB     102      POPC     H7Y      HAL2     0.900000E-01   1.00800           0
     13494 MEMB     102      POPC     C38      CTL2    -0.180000       12.0110           0
     13495 MEMB     102      POPC     H8X      HAL2     0.900000E-01   1.00800           0
     13496 MEMB     102      POPC     H8Y      HAL2     0.900000E-01   1.00800           0
     13497 MEMB     102      POPC     C39      CTL2    -0.180000       12.0110           0
     13498 MEMB     102      POPC     H9X      HAL2     0.900000E-01   1.00800           0
     13499 MEMB     102      POPC     H9Y      HAL2     0.900000E-01   1.00800           0
     13500 MEMB     102      POPC     C310     CTL2    -0.180000       12.0110           0
     13501 MEMB     102      POPC     H10X     HAL2     0.900000E-01   1.00800           0
     13502 MEMB     102      POPC     H10Y     HAL2     0.900000E-01   1.00800           0
     13503 MEMB     102      POPC     C311     CTL2    -0.180000       12.0110           0
     13504 MEMB     102      POPC     H11X     HAL2     0.900000E-01   1.00800           0
     13505 MEMB     102      POPC     H11Y     HAL2     0.900000E-01   1.00800           0
     13506 MEMB     102      POPC     C312     CTL2    -0.180000       12.0110           0
     13507 MEMB     102      POPC     H12X     HAL2     0.900000E-01   1.00800           0
     13508 MEMB     102      POPC     H12Y     HAL2     0.900000E-01   1.00800           0
     13509 MEMB     102      POPC     C313     CTL2    -0.180000       12.0110           0
     13510 MEMB     102      POPC     H13X     HAL2     0.900000E-01   1.00800           0
     13511 MEMB     102      POPC     H13Y     HAL2     0.900000E-01   1.00800           0
     13512 MEMB     102      POPC     C314     CTL2    -0.180000       12.0110           0
     13513 MEMB     102      POPC     H14X     HAL2     0.900000E-01   1.00800           0
     13514 MEMB     102      POPC     H14Y     HAL2     0.900000E-01   1.00800           0
     13515 MEMB     102      POPC     C315     CTL2    -0.180000       12.0110           0
     13516 MEMB     102      POPC     H15X     HAL2     0.900000E-01   1.00800           0
     13517 MEMB     102      POPC     H15Y     HAL2     0.900000E-01   1.00800           0
     13518 MEMB     102      POPC     C316     CTL3    -0.270000       12.0110           0
     13519 MEMB     102      POPC     H16X     HAL3     0.900000E-01   1.00800           0
     13520 MEMB     102      POPC     H16Y     HAL3     0.900000E-01   1.00800           0
     13521 MEMB     102      POPC     H16Z     HAL3     0.900000E-01   1.00800           0
     13522 MEMB     103      POPS     N        NH3L    -0.300000       14.0070           0
     13523 MEMB     103      POPS     HN1      HCL      0.330000       1.00800           0
     13524 MEMB     103      POPS     HN2      HCL      0.330000       1.00800           0
     13525 MEMB     103      POPS     HN3      HCL      0.330000       1.00800           0
     13526 MEMB     103      POPS     C12      CTL1     0.210000       12.0110           0
     13527 MEMB     103      POPS     H12A     HBL      0.100000       1.00800           0
     13528 MEMB     103      POPS     C13      CCL      0.340000       12.0110           0
     13529 MEMB     103      POPS     O13A     OCL     -0.670000       15.9994           0
     13530 MEMB     103      POPS     O13B     OCL     -0.670000       15.9994           0
     13531 MEMB     103      POPS     C11      CTL2    -0.800000E-01   12.0110           0
     13532 MEMB     103      POPS     H11A     HAL2     0.900000E-01   1.00800           0
     13533 MEMB     103      POPS     H11B     HAL2     0.900000E-01   1.00800           0
     13534 MEMB     103      POPS     P        PL        1.50000       30.9740           0
     13535 MEMB     103      POPS     O13      O2L     -0.780000       15.9994           0
     13536 MEMB     103      POPS     O14      O2L     -0.780000       15.9994           0
     13537 MEMB     103      POPS     O12      OSLP    -0.570000       15.9994           0
     13538 MEMB     103      POPS     O11      OSLP    -0.570000       15.9994           0
     13539 MEMB     103      POPS     C1       CTL2    -0.800000E-01   12.0110           0
     13540 MEMB     103      POPS     HA       HAL2     0.900000E-01   1.00800           0
     13541 MEMB     103      POPS     HB       HAL2     0.900000E-01   1.00800           0
     13542 MEMB     103      POPS     C2       CTL1     0.170000       12.0110           0
     13543 MEMB     103      POPS     HS       HAL1     0.900000E-01   1.00800           0
     13544 MEMB     103      POPS     O21      OSL     -0.490000       15.9994           0
     13545 MEMB     103      POPS     C21      CL       0.900000       12.0110           0
     13546 MEMB     103      POPS     O22      OBL     -0.630000       15.9994           0
     13547 MEMB     103      POPS     C22      CTL2    -0.220000       12.0110           0
     13548 MEMB     103      POPS     H2R      HAL2     0.900000E-01   1.00800           0
     13549 MEMB     103      POPS     H2S      HAL2     0.900000E-01   1.00800           0
     13550 MEMB     103      POPS     C3       CTL2     0.800000E-01   12.0110           0
     13551 MEMB     103      POPS     HX       HAL2     0.900000E-01   1.00800           0
     13552 MEMB     103      POPS     HY       HAL2     0.900000E-01   1.00800           0
     13553 MEMB     103      POPS     O31      OSL     -0.490000       15.9994           0
     13554 MEMB     103      POPS     C31      CL       0.900000       12.0110           0
     13555 MEMB     103      POPS     O32      OBL     -0.630000       15.9994           0
     13556 MEMB     103      POPS     C32      CTL2    -0.220000       12.0110           0
     13557 MEMB     103      POPS     H2X      HAL2     0.900000E-01   1.00800           0
     13558 MEMB     103      POPS     H2Y      HAL2     0.900000E-01   1.00800           0
     13559 MEMB     103      POPS     C23      CTL2    -0.180000       12.0110           0
     13560 MEMB     103      POPS     H3R      HAL2     0.900000E-01   1.00800           0
     13561 MEMB     103      POPS     H3S      HAL2     0.900000E-01   1.00800           0
     13562 MEMB     103      POPS     C24      CTL2    -0.180000       12.0110           0
     13563 MEMB     103      POPS     H4R      HAL2     0.900000E-01   1.00800           0
     13564 MEMB     103      POPS     H4S      HAL2     0.900000E-01   1.00800           0
     13565 MEMB     103      POPS     C25      CTL2    -0.180000       12.0110           0
     13566 MEMB     103      POPS     H5R      HAL2     0.900000E-01   1.00800           0
     13567 MEMB     103      POPS     H5S      HAL2     0.900000E-01   1.00800           0
     13568 MEMB     103      POPS     C26      CTL2    -0.180000       12.0110           0
     13569 MEMB     103      POPS     H6R      HAL2     0.900000E-01   1.00800           0
     13570 MEMB     103      POPS     H6S      HAL2     0.900000E-01   1.00800           0
     13571 MEMB     103      POPS     C27      CTL2    -0.180000       12.0110           0
     13572 MEMB     103      POPS     H7R      HAL2     0.900000E-01   1.00800           0
     13573 MEMB     103      POPS     H7S      HAL2     0.900000E-01   1.00800           0
     13574 MEMB     103      POPS     C28      CTL2    -0.180000       12.0110           0
     13575 MEMB     103      POPS     H8R      HAL2     0.900000E-01   1.00800           0
     13576 MEMB     103      POPS     H8S      HAL2     0.900000E-01   1.00800           0
     13577 MEMB     103      POPS     C29      CEL1    -0.150000       12.0110           0
     13578 MEMB     103      POPS     H91      HEL1     0.150000       1.00800           0
     13579 MEMB     103      POPS     C210     CEL1    -0.150000       12.0110           0
     13580 MEMB     103      POPS     H101     HEL1     0.150000       1.00800           0
     13581 MEMB     103      POPS     C211     CTL2    -0.180000       12.0110           0
     13582 MEMB     103      POPS     H11R     HAL2     0.900000E-01   1.00800           0
     13583 MEMB     103      POPS     H11S     HAL2     0.900000E-01   1.00800           0
     13584 MEMB     103      POPS     C212     CTL2    -0.180000       12.0110           0
     13585 MEMB     103      POPS     H12R     HAL2     0.900000E-01   1.00800           0
     13586 MEMB     103      POPS     H12S     HAL2     0.900000E-01   1.00800           0
     13587 MEMB     103      POPS     C213     CTL2    -0.180000       12.0110           0
     13588 MEMB     103      POPS     H13R     HAL2     0.900000E-01   1.00800           0
     13589 MEMB     103      POPS     H13S     HAL2     0.900000E-01   1.00800           0
     13590 MEMB     103      POPS     C214     CTL2    -0.180000       12.0110           0
     13591 MEMB     103      POPS     H14R     HAL2     0.900000E-01   1.00800           0
     13592 MEMB     103      POPS     H14S     HAL2     0.900000E-01   1.00800           0
     13593 MEMB     103      POPS     C215     CTL2    -0.180000       12.0110           0
     13594 MEMB     103      POPS     H15R     HAL2     0.900000E-01   1.00800           0
     13595 MEMB     103      POPS     H15S     HAL2     0.900000E-01   1.00800           0
     13596 MEMB     103      POPS     C216     CTL2    -0.180000       12.0110           0
     13597 MEMB     103      POPS     H16R     HAL2     0.900000E-01   1.00800           0
     13598 MEMB     103      POPS     H16S     HAL2     0.900000E-01   1.00800           0
     13599 MEMB     103      POPS     C217     CTL2    -0.180000       12.0110           0
     13600 MEMB     103      POPS     H17R     HAL2     0.900000E-01   1.00800           0
     13601 MEMB     103      POPS     H17S     HAL2     0.900000E-01   1.00800           0
     13602 MEMB     103      POPS     C218     CTL3    -0.270000       12.0110           0
     13603 MEMB     103      POPS     H18R     HAL3     0.900000E-01   1.00800           0
     13604 MEMB     103      POPS     H18S     HAL3     0.900000E-01   1.00800           0
     13605 MEMB     103      POPS     H18T     HAL3     0.900000E-01   1.00800           0
     13606 MEMB     103      POPS     C33      CTL2    -0.180000       12.0110           0
     13607 MEMB     103      POPS     H3X      HAL2     0.900000E-01   1.00800           0
     13608 MEMB     103      POPS     H3Y      HAL2     0.900000E-01   1.00800           0
     13609 MEMB     103      POPS     C34      CTL2    -0.180000       12.0110           0
     13610 MEMB     103      POPS     H4X      HAL2     0.900000E-01   1.00800           0
     13611 MEMB     103      POPS     H4Y      HAL2     0.900000E-01   1.00800           0
     13612 MEMB     103      POPS     C35      CTL2    -0.180000       12.0110           0
     13613 MEMB     103      POPS     H5X      HAL2     0.900000E-01   1.00800           0
     13614 MEMB     103      POPS     H5Y      HAL2     0.900000E-01   1.00800           0
     13615 MEMB     103      POPS     C36      CTL2    -0.180000       12.0110           0
     13616 MEMB     103      POPS     H6X      HAL2     0.900000E-01   1.00800           0
     13617 MEMB     103      POPS     H6Y      HAL2     0.900000E-01   1.00800           0
     13618 MEMB     103      POPS     C37      CTL2    -0.180000       12.0110           0
     13619 MEMB     103      POPS     H7X      HAL2     0.900000E-01   1.00800           0
     13620 MEMB     103      POPS     H7Y      HAL2     0.900000E-01   1.00800           0
     13621 MEMB     103      POPS     C38      CTL2    -0.180000       12.0110           0
     13622 MEMB     103      POPS     H8X      HAL2     0.900000E-01   1.00800           0
     13623 MEMB     103      POPS     H8Y      HAL2     0.900000E-01   1.00800           0
     13624 MEMB     103      POPS     C39      CTL2    -0.180000       12.0110           0
     13625 MEMB     103      POPS     H9X      HAL2     0.900000E-01   1.00800           0
     13626 MEMB     103      POPS     H9Y      HAL2     0.900000E-01   1.00800           0
     13627 MEMB     103      POPS     C310     CTL2    -0.180000       12.0110           0
     13628 MEMB     103      POPS     H10X     HAL2     0.900000E-01   1.00800           0
     13629 MEMB     103      POPS     H10Y     HAL2     0.900000E-01   1.00800           0
     13630 MEMB     103      POPS     C311     CTL2    -0.180000       12.0110           0
     13631 MEMB     103      POPS     H11X     HAL2     0.900000E-01   1.00800           0
     13632 MEMB     103      POPS     H11Y     HAL2     0.900000E-01   1.00800           0
     13633 MEMB     103      POPS     C312     CTL2    -0.180000       12.0110           0
     13634 MEMB     103      POPS     H12X     HAL2     0.900000E-01   1.00800           0
     13635 MEMB     103      POPS     H12Y     HAL2     0.900000E-01   1.00800           0
     13636 MEMB     103      POPS     C313     CTL2    -0.180000       12.0110           0
     13637 MEMB     103      POPS     H13X     HAL2     0.900000E-01   1.00800           0
     13638 MEMB     103      POPS     H13Y     HAL2     0.900000E-01   1.00800           0
     13639 MEMB     103      POPS     C314     CTL2    -0.180000       12.0110           0
     13640 MEMB     103      POPS     H14X     HAL2     0.900000E-01   1.00800           0
     13641 MEMB     103      POPS     H14Y     HAL2     0.900000E-01   1.00800           0
     13642 MEMB     103      POPS     C315     CTL2    -0.180000       12.0110           0
     13643 MEMB     103      POPS     H15X     HAL2     0.900000E-01   1.00800           0
     13644 MEMB     103      POPS     H15Y     HAL2     0.900000E-01   1.00800           0
     13645 MEMB     103      POPS     C316     CTL3    -0.270000       12.0110           0
     13646 MEMB     103      POPS     H16X     HAL3     0.900000E-01   1.00800           0
     13647 MEMB     103      POPS     H16Y     HAL3     0.900000E-01   1.00800           0
     13648 MEMB     103      POPS     H16Z     HAL3     0.900000E-01   1.00800           0
     13649 MEMB     104      POPC     N        NTL     -0.600000       14.0070           0
     13650 MEMB     104      POPC     C12      CTL2    -0.100000       12.0110           0
     13651 MEMB     104      POPC     H12A     HL       0.250000       1.00800           0
     13652 MEMB     104      POPC     H12B     HL       0.250000       1.00800           0
     13653 MEMB     104      POPC     C13      CTL5    -0.350000       12.0110           0
     13654 MEMB     104      POPC     H13A     HL       0.250000       1.00800           0
     13655 MEMB     104      POPC     H13B     HL       0.250000       1.00800           0
     13656 MEMB     104      POPC     H13C     HL       0.250000       1.00800           0
     13657 MEMB     104      POPC     C14      CTL5    -0.350000       12.0110           0
     13658 MEMB     104      POPC     H14A     HL       0.250000       1.00800           0
     13659 MEMB     104      POPC     H14B     HL       0.250000       1.00800           0
     13660 MEMB     104      POPC     H14C     HL       0.250000       1.00800           0
     13661 MEMB     104      POPC     C15      CTL5    -0.350000       12.0110           0
     13662 MEMB     104      POPC     H15A     HL       0.250000       1.00800           0
     13663 MEMB     104      POPC     H15B     HL       0.250000       1.00800           0
     13664 MEMB     104      POPC     H15C     HL       0.250000       1.00800           0
     13665 MEMB     104      POPC     C11      CTL2    -0.800000E-01   12.0110           0
     13666 MEMB     104      POPC     H11A     HAL2     0.900000E-01   1.00800           0
     13667 MEMB     104      POPC     H11B     HAL2     0.900000E-01   1.00800           0
     13668 MEMB     104      POPC     P        PL        1.50000       30.9740           0
     13669 MEMB     104      POPC     O13      O2L     -0.780000       15.9994           0
     13670 MEMB     104      POPC     O14      O2L     -0.780000       15.9994           0
     13671 MEMB     104      POPC     O12      OSLP    -0.570000       15.9994           0
     13672 MEMB     104      POPC     O11      OSLP    -0.570000       15.9994           0
     13673 MEMB     104      POPC     C1       CTL2    -0.800000E-01   12.0110           0
     13674 MEMB     104      POPC     HA       HAL2     0.900000E-01   1.00800           0
     13675 MEMB     104      POPC     HB       HAL2     0.900000E-01   1.00800           0
     13676 MEMB     104      POPC     C2       CTL1     0.170000       12.0110           0
     13677 MEMB     104      POPC     HS       HAL1     0.900000E-01   1.00800           0
     13678 MEMB     104      POPC     O21      OSL     -0.490000       15.9994           0
     13679 MEMB     104      POPC     C21      CL       0.900000       12.0110           0
     13680 MEMB     104      POPC     O22      OBL     -0.630000       15.9994           0
     13681 MEMB     104      POPC     C22      CTL2    -0.220000       12.0110           0
     13682 MEMB     104      POPC     H2R      HAL2     0.900000E-01   1.00800           0
     13683 MEMB     104      POPC     H2S      HAL2     0.900000E-01   1.00800           0
     13684 MEMB     104      POPC     C3       CTL2     0.800000E-01   12.0110           0
     13685 MEMB     104      POPC     HX       HAL2     0.900000E-01   1.00800           0
     13686 MEMB     104      POPC     HY       HAL2     0.900000E-01   1.00800           0
     13687 MEMB     104      POPC     O31      OSL     -0.490000       15.9994           0
     13688 MEMB     104      POPC     C31      CL       0.900000       12.0110           0
     13689 MEMB     104      POPC     O32      OBL     -0.630000       15.9994           0
     13690 MEMB     104      POPC     C32      CTL2    -0.220000       12.0110           0
     13691 MEMB     104      POPC     H2X      HAL2     0.900000E-01   1.00800           0
     13692 MEMB     104      POPC     H2Y      HAL2     0.900000E-01   1.00800           0
     13693 MEMB     104      POPC     C23      CTL2    -0.180000       12.0110           0
     13694 MEMB     104      POPC     H3R      HAL2     0.900000E-01   1.00800           0
     13695 MEMB     104      POPC     H3S      HAL2     0.900000E-01   1.00800           0
     13696 MEMB     104      POPC     C24      CTL2    -0.180000       12.0110           0
     13697 MEMB     104      POPC     H4R      HAL2     0.900000E-01   1.00800           0
     13698 MEMB     104      POPC     H4S      HAL2     0.900000E-01   1.00800           0
     13699 MEMB     104      POPC     C25      CTL2    -0.180000       12.0110           0
     13700 MEMB     104      POPC     H5R      HAL2     0.900000E-01   1.00800           0
     13701 MEMB     104      POPC     H5S      HAL2     0.900000E-01   1.00800           0
     13702 MEMB     104      POPC     C26      CTL2    -0.180000       12.0110           0
     13703 MEMB     104      POPC     H6R      HAL2     0.900000E-01   1.00800           0
     13704 MEMB     104      POPC     H6S      HAL2     0.900000E-01   1.00800           0
     13705 MEMB     104      POPC     C27      CTL2    -0.180000       12.0110           0
     13706 MEMB     104      POPC     H7R      HAL2     0.900000E-01   1.00800           0
     13707 MEMB     104      POPC     H7S      HAL2     0.900000E-01   1.00800           0
     13708 MEMB     104      POPC     C28      CTL2    -0.180000       12.0110           0
     13709 MEMB     104      POPC     H8R      HAL2     0.900000E-01   1.00800           0
     13710 MEMB     104      POPC     H8S      HAL2     0.900000E-01   1.00800           0
     13711 MEMB     104      POPC     C29      CEL1    -0.150000       12.0110           0
     13712 MEMB     104      POPC     H91      HEL1     0.150000       1.00800           0
     13713 MEMB     104      POPC     C210     CEL1    -0.150000       12.0110           0
     13714 MEMB     104      POPC     H101     HEL1     0.150000       1.00800           0
     13715 MEMB     104      POPC     C211     CTL2    -0.180000       12.0110           0
     13716 MEMB     104      POPC     H11R     HAL2     0.900000E-01   1.00800           0
     13717 MEMB     104      POPC     H11S     HAL2     0.900000E-01   1.00800           0
     13718 MEMB     104      POPC     C212     CTL2    -0.180000       12.0110           0
     13719 MEMB     104      POPC     H12R     HAL2     0.900000E-01   1.00800           0
     13720 MEMB     104      POPC     H12S     HAL2     0.900000E-01   1.00800           0
     13721 MEMB     104      POPC     C213     CTL2    -0.180000       12.0110           0
     13722 MEMB     104      POPC     H13R     HAL2     0.900000E-01   1.00800           0
     13723 MEMB     104      POPC     H13S     HAL2     0.900000E-01   1.00800           0
     13724 MEMB     104      POPC     C214     CTL2    -0.180000       12.0110           0
     13725 MEMB     104      POPC     H14R     HAL2     0.900000E-01   1.00800           0
     13726 MEMB     104      POPC     H14S     HAL2     0.900000E-01   1.00800           0
     13727 MEMB     104      POPC     C215     CTL2    -0.180000       12.0110           0
     13728 MEMB     104      POPC     H15R     HAL2     0.900000E-01   1.00800           0
     13729 MEMB     104      POPC     H15S     HAL2     0.900000E-01   1.00800           0
     13730 MEMB     104      POPC     C216     CTL2    -0.180000       12.0110           0
     13731 MEMB     104      POPC     H16R     HAL2     0.900000E-01   1.00800           0
     13732 MEMB     104      POPC     H16S     HAL2     0.900000E-01   1.00800           0
     13733 MEMB     104      POPC     C217     CTL2    -0.180000       12.0110           0
     13734 MEMB     104      POPC     H17R     HAL2     0.900000E-01   1.00800           0
     13735 MEMB     104      POPC     H17S     HAL2     0.900000E-01   1.00800           0
     13736 MEMB     104      POPC     C218     CTL3    -0.270000       12.0110           0
     13737 MEMB     104      POPC     H18R     HAL3     0.900000E-01   1.00800           0
     13738 MEMB     104      POPC     H18S     HAL3     0.900000E-01   1.00800           0
     13739 MEMB     104      POPC     H18T     HAL3     0.900000E-01   1.00800           0
     13740 MEMB     104      POPC     C33      CTL2    -0.180000       12.0110           0
     13741 MEMB     104      POPC     H3X      HAL2     0.900000E-01   1.00800           0
     13742 MEMB     104      POPC     H3Y      HAL2     0.900000E-01   1.00800           0
     13743 MEMB     104      POPC     C34      CTL2    -0.180000       12.0110           0
     13744 MEMB     104      POPC     H4X      HAL2     0.900000E-01   1.00800           0
     13745 MEMB     104      POPC     H4Y      HAL2     0.900000E-01   1.00800           0
     13746 MEMB     104      POPC     C35      CTL2    -0.180000       12.0110           0
     13747 MEMB     104      POPC     H5X      HAL2     0.900000E-01   1.00800           0
     13748 MEMB     104      POPC     H5Y      HAL2     0.900000E-01   1.00800           0
     13749 MEMB     104      POPC     C36      CTL2    -0.180000       12.0110           0
     13750 MEMB     104      POPC     H6X      HAL2     0.900000E-01   1.00800           0
     13751 MEMB     104      POPC     H6Y      HAL2     0.900000E-01   1.00800           0
     13752 MEMB     104      POPC     C37      CTL2    -0.180000       12.0110           0
     13753 MEMB     104      POPC     H7X      HAL2     0.900000E-01   1.00800           0
     13754 MEMB     104      POPC     H7Y      HAL2     0.900000E-01   1.00800           0
     13755 MEMB     104      POPC     C38      CTL2    -0.180000       12.0110           0
     13756 MEMB     104      POPC     H8X      HAL2     0.900000E-01   1.00800           0
     13757 MEMB     104      POPC     H8Y      HAL2     0.900000E-01   1.00800           0
     13758 MEMB     104      POPC     C39      CTL2    -0.180000       12.0110           0
     13759 MEMB     104      POPC     H9X      HAL2     0.900000E-01   1.00800           0
     13760 MEMB     104      POPC     H9Y      HAL2     0.900000E-01   1.00800           0
     13761 MEMB     104      POPC     C310     CTL2    -0.180000       12.0110           0
     13762 MEMB     104      POPC     H10X     HAL2     0.900000E-01   1.00800           0
     13763 MEMB     104      POPC     H10Y     HAL2     0.900000E-01   1.00800           0
     13764 MEMB     104      POPC     C311     CTL2    -0.180000       12.0110           0
     13765 MEMB     104      POPC     H11X     HAL2     0.900000E-01   1.00800           0
     13766 MEMB     104      POPC     H11Y     HAL2     0.900000E-01   1.00800           0
     13767 MEMB     104      POPC     C312     CTL2    -0.180000       12.0110           0
     13768 MEMB     104      POPC     H12X     HAL2     0.900000E-01   1.00800           0
     13769 MEMB     104      POPC     H12Y     HAL2     0.900000E-01   1.00800           0
     13770 MEMB     104      POPC     C313     CTL2    -0.180000       12.0110           0
     13771 MEMB     104      POPC     H13X     HAL2     0.900000E-01   1.00800           0
     13772 MEMB     104      POPC     H13Y     HAL2     0.900000E-01   1.00800           0
     13773 MEMB     104      POPC     C314     CTL2    -0.180000       12.0110           0
     13774 MEMB     104      POPC     H14X     HAL2     0.900000E-01   1.00800           0
     13775 MEMB     104      POPC     H14Y     HAL2     0.900000E-01   1.00800           0
     13776 MEMB     104      POPC     C315     CTL2    -0.180000       12.0110           0
     13777 MEMB     104      POPC     H15X     HAL2     0.900000E-01   1.00800           0
     13778 MEMB     104      POPC     H15Y     HAL2     0.900000E-01   1.00800           0
     13779 MEMB     104      POPC     C316     CTL3    -0.270000       12.0110           0
     13780 MEMB     104      POPC     H16X     HAL3     0.900000E-01   1.00800           0
     13781 MEMB     104      POPC     H16Y     HAL3     0.900000E-01   1.00800           0
     13782 MEMB     104      POPC     H16Z     HAL3     0.900000E-01   1.00800           0
     13783 MEMB     105      POPC     N        NTL     -0.600000       14.0070           0
     13784 MEMB     105      POPC     C12      CTL2    -0.100000       12.0110           0
     13785 MEMB     105      POPC     H12A     HL       0.250000       1.00800           0
     13786 MEMB     105      POPC     H12B     HL       0.250000       1.00800           0
     13787 MEMB     105      POPC     C13      CTL5    -0.350000       12.0110           0
     13788 MEMB     105      POPC     H13A     HL       0.250000       1.00800           0
     13789 MEMB     105      POPC     H13B     HL       0.250000       1.00800           0
     13790 MEMB     105      POPC     H13C     HL       0.250000       1.00800           0
     13791 MEMB     105      POPC     C14      CTL5    -0.350000       12.0110           0
     13792 MEMB     105      POPC     H14A     HL       0.250000       1.00800           0
     13793 MEMB     105      POPC     H14B     HL       0.250000       1.00800           0
     13794 MEMB     105      POPC     H14C     HL       0.250000       1.00800           0
     13795 MEMB     105      POPC     C15      CTL5    -0.350000       12.0110           0
     13796 MEMB     105      POPC     H15A     HL       0.250000       1.00800           0
     13797 MEMB     105      POPC     H15B     HL       0.250000       1.00800           0
     13798 MEMB     105      POPC     H15C     HL       0.250000       1.00800           0
     13799 MEMB     105      POPC     C11      CTL2    -0.800000E-01   12.0110           0
     13800 MEMB     105      POPC     H11A     HAL2     0.900000E-01   1.00800           0
     13801 MEMB     105      POPC     H11B     HAL2     0.900000E-01   1.00800           0
     13802 MEMB     105      POPC     P        PL        1.50000       30.9740           0
     13803 MEMB     105      POPC     O13      O2L     -0.780000       15.9994           0
     13804 MEMB     105      POPC     O14      O2L     -0.780000       15.9994           0
     13805 MEMB     105      POPC     O12      OSLP    -0.570000       15.9994           0
     13806 MEMB     105      POPC     O11      OSLP    -0.570000       15.9994           0
     13807 MEMB     105      POPC     C1       CTL2    -0.800000E-01   12.0110           0
     13808 MEMB     105      POPC     HA       HAL2     0.900000E-01   1.00800           0
     13809 MEMB     105      POPC     HB       HAL2     0.900000E-01   1.00800           0
     13810 MEMB     105      POPC     C2       CTL1     0.170000       12.0110           0
     13811 MEMB     105      POPC     HS       HAL1     0.900000E-01   1.00800           0
     13812 MEMB     105      POPC     O21      OSL     -0.490000       15.9994           0
     13813 MEMB     105      POPC     C21      CL       0.900000       12.0110           0
     13814 MEMB     105      POPC     O22      OBL     -0.630000       15.9994           0
     13815 MEMB     105      POPC     C22      CTL2    -0.220000       12.0110           0
     13816 MEMB     105      POPC     H2R      HAL2     0.900000E-01   1.00800           0
     13817 MEMB     105      POPC     H2S      HAL2     0.900000E-01   1.00800           0
     13818 MEMB     105      POPC     C3       CTL2     0.800000E-01   12.0110           0
     13819 MEMB     105      POPC     HX       HAL2     0.900000E-01   1.00800           0
     13820 MEMB     105      POPC     HY       HAL2     0.900000E-01   1.00800           0
     13821 MEMB     105      POPC     O31      OSL     -0.490000       15.9994           0
     13822 MEMB     105      POPC     C31      CL       0.900000       12.0110           0
     13823 MEMB     105      POPC     O32      OBL     -0.630000       15.9994           0
     13824 MEMB     105      POPC     C32      CTL2    -0.220000       12.0110           0
     13825 MEMB     105      POPC     H2X      HAL2     0.900000E-01   1.00800           0
     13826 MEMB     105      POPC     H2Y      HAL2     0.900000E-01   1.00800           0
     13827 MEMB     105      POPC     C23      CTL2    -0.180000       12.0110           0
     13828 MEMB     105      POPC     H3R      HAL2     0.900000E-01   1.00800           0
     13829 MEMB     105      POPC     H3S      HAL2     0.900000E-01   1.00800           0
     13830 MEMB     105      POPC     C24      CTL2    -0.180000       12.0110           0
     13831 MEMB     105      POPC     H4R      HAL2     0.900000E-01   1.00800           0
     13832 MEMB     105      POPC     H4S      HAL2     0.900000E-01   1.00800           0
     13833 MEMB     105      POPC     C25      CTL2    -0.180000       12.0110           0
     13834 MEMB     105      POPC     H5R      HAL2     0.900000E-01   1.00800           0
     13835 MEMB     105      POPC     H5S      HAL2     0.900000E-01   1.00800           0
     13836 MEMB     105      POPC     C26      CTL2    -0.180000       12.0110           0
     13837 MEMB     105      POPC     H6R      HAL2     0.900000E-01   1.00800           0
     13838 MEMB     105      POPC     H6S      HAL2     0.900000E-01   1.00800           0
     13839 MEMB     105      POPC     C27      CTL2    -0.180000       12.0110           0
     13840 MEMB     105      POPC     H7R      HAL2     0.900000E-01   1.00800           0
     13841 MEMB     105      POPC     H7S      HAL2     0.900000E-01   1.00800           0
     13842 MEMB     105      POPC     C28      CTL2    -0.180000       12.0110           0
     13843 MEMB     105      POPC     H8R      HAL2     0.900000E-01   1.00800           0
     13844 MEMB     105      POPC     H8S      HAL2     0.900000E-01   1.00800           0
     13845 MEMB     105      POPC     C29      CEL1    -0.150000       12.0110           0
     13846 MEMB     105      POPC     H91      HEL1     0.150000       1.00800           0
     13847 MEMB     105      POPC     C210     CEL1    -0.150000       12.0110           0
     13848 MEMB     105      POPC     H101     HEL1     0.150000       1.00800           0
     13849 MEMB     105      POPC     C211     CTL2    -0.180000       12.0110           0
     13850 MEMB     105      POPC     H11R     HAL2     0.900000E-01   1.00800           0
     13851 MEMB     105      POPC     H11S     HAL2     0.900000E-01   1.00800           0
     13852 MEMB     105      POPC     C212     CTL2    -0.180000       12.0110           0
     13853 MEMB     105      POPC     H12R     HAL2     0.900000E-01   1.00800           0
     13854 MEMB     105      POPC     H12S     HAL2     0.900000E-01   1.00800           0
     13855 MEMB     105      POPC     C213     CTL2    -0.180000       12.0110           0
     13856 MEMB     105      POPC     H13R     HAL2     0.900000E-01   1.00800           0
     13857 MEMB     105      POPC     H13S     HAL2     0.900000E-01   1.00800           0
     13858 MEMB     105      POPC     C214     CTL2    -0.180000       12.0110           0
     13859 MEMB     105      POPC     H14R     HAL2     0.900000E-01   1.00800           0
     13860 MEMB     105      POPC     H14S     HAL2     0.900000E-01   1.00800           0
     13861 MEMB     105      POPC     C215     CTL2    -0.180000       12.0110           0
     13862 MEMB     105      POPC     H15R     HAL2     0.900000E-01   1.00800           0
     13863 MEMB     105      POPC     H15S     HAL2     0.900000E-01   1.00800           0
     13864 MEMB     105      POPC     C216     CTL2    -0.180000       12.0110           0
     13865 MEMB     105      POPC     H16R     HAL2     0.900000E-01   1.00800           0
     13866 MEMB     105      POPC     H16S     HAL2     0.900000E-01   1.00800           0
     13867 MEMB     105      POPC     C217     CTL2    -0.180000       12.0110           0
     13868 MEMB     105      POPC     H17R     HAL2     0.900000E-01   1.00800           0
     13869 MEMB     105      POPC     H17S     HAL2     0.900000E-01   1.00800           0
     13870 MEMB     105      POPC     C218     CTL3    -0.270000       12.0110           0
     13871 MEMB     105      POPC     H18R     HAL3     0.900000E-01   1.00800           0
     13872 MEMB     105      POPC     H18S     HAL3     0.900000E-01   1.00800           0
     13873 MEMB     105      POPC     H18T     HAL3     0.900000E-01   1.00800           0
     13874 MEMB     105      POPC     C33      CTL2    -0.180000       12.0110           0
     13875 MEMB     105      POPC     H3X      HAL2     0.900000E-01   1.00800           0
     13876 MEMB     105      POPC     H3Y      HAL2     0.900000E-01   1.00800           0
     13877 MEMB     105      POPC     C34      CTL2    -0.180000       12.0110           0
     13878 MEMB     105      POPC     H4X      HAL2     0.900000E-01   1.00800           0
     13879 MEMB     105      POPC     H4Y      HAL2     0.900000E-01   1.00800           0
     13880 MEMB     105      POPC     C35      CTL2    -0.180000       12.0110           0
     13881 MEMB     105      POPC     H5X      HAL2     0.900000E-01   1.00800           0
     13882 MEMB     105      POPC     H5Y      HAL2     0.900000E-01   1.00800           0
     13883 MEMB     105      POPC     C36      CTL2    -0.180000       12.0110           0
     13884 MEMB     105      POPC     H6X      HAL2     0.900000E-01   1.00800           0
     13885 MEMB     105      POPC     H6Y      HAL2     0.900000E-01   1.00800           0
     13886 MEMB     105      POPC     C37      CTL2    -0.180000       12.0110           0
     13887 MEMB     105      POPC     H7X      HAL2     0.900000E-01   1.00800           0
     13888 MEMB     105      POPC     H7Y      HAL2     0.900000E-01   1.00800           0
     13889 MEMB     105      POPC     C38      CTL2    -0.180000       12.0110           0
     13890 MEMB     105      POPC     H8X      HAL2     0.900000E-01   1.00800           0
     13891 MEMB     105      POPC     H8Y      HAL2     0.900000E-01   1.00800           0
     13892 MEMB     105      POPC     C39      CTL2    -0.180000       12.0110           0
     13893 MEMB     105      POPC     H9X      HAL2     0.900000E-01   1.00800           0
     13894 MEMB     105      POPC     H9Y      HAL2     0.900000E-01   1.00800           0
     13895 MEMB     105      POPC     C310     CTL2    -0.180000       12.0110           0
     13896 MEMB     105      POPC     H10X     HAL2     0.900000E-01   1.00800           0
     13897 MEMB     105      POPC     H10Y     HAL2     0.900000E-01   1.00800           0
     13898 MEMB     105      POPC     C311     CTL2    -0.180000       12.0110           0
     13899 MEMB     105      POPC     H11X     HAL2     0.900000E-01   1.00800           0
     13900 MEMB     105      POPC     H11Y     HAL2     0.900000E-01   1.00800           0
     13901 MEMB     105      POPC     C312     CTL2    -0.180000       12.0110           0
     13902 MEMB     105      POPC     H12X     HAL2     0.900000E-01   1.00800           0
     13903 MEMB     105      POPC     H12Y     HAL2     0.900000E-01   1.00800           0
     13904 MEMB     105      POPC     C313     CTL2    -0.180000       12.0110           0
     13905 MEMB     105      POPC     H13X     HAL2     0.900000E-01   1.00800           0
     13906 MEMB     105      POPC     H13Y     HAL2     0.900000E-01   1.00800           0
     13907 MEMB     105      POPC     C314     CTL2    -0.180000       12.0110           0
     13908 MEMB     105      POPC     H14X     HAL2     0.900000E-01   1.00800           0
     13909 MEMB     105      POPC     H14Y     HAL2     0.900000E-01   1.00800           0
     13910 MEMB     105      POPC     C315     CTL2    -0.180000       12.0110           0
     13911 MEMB     105      POPC     H15X     HAL2     0.900000E-01   1.00800           0
     13912 MEMB     105      POPC     H15Y     HAL2     0.900000E-01   1.00800           0
     13913 MEMB     105      POPC     C316     CTL3    -0.270000       12.0110           0
     13914 MEMB     105      POPC     H16X     HAL3     0.900000E-01   1.00800           0
     13915 MEMB     105      POPC     H16Y     HAL3     0.900000E-01   1.00800           0
     13916 MEMB     105      POPC     H16Z     HAL3     0.900000E-01   1.00800           0
     13917 MEMB     106      POPC     N        NTL     -0.600000       14.0070           0
     13918 MEMB     106      POPC     C12      CTL2    -0.100000       12.0110           0
     13919 MEMB     106      POPC     H12A     HL       0.250000       1.00800           0
     13920 MEMB     106      POPC     H12B     HL       0.250000       1.00800           0
     13921 MEMB     106      POPC     C13      CTL5    -0.350000       12.0110           0
     13922 MEMB     106      POPC     H13A     HL       0.250000       1.00800           0
     13923 MEMB     106      POPC     H13B     HL       0.250000       1.00800           0
     13924 MEMB     106      POPC     H13C     HL       0.250000       1.00800           0
     13925 MEMB     106      POPC     C14      CTL5    -0.350000       12.0110           0
     13926 MEMB     106      POPC     H14A     HL       0.250000       1.00800           0
     13927 MEMB     106      POPC     H14B     HL       0.250000       1.00800           0
     13928 MEMB     106      POPC     H14C     HL       0.250000       1.00800           0
     13929 MEMB     106      POPC     C15      CTL5    -0.350000       12.0110           0
     13930 MEMB     106      POPC     H15A     HL       0.250000       1.00800           0
     13931 MEMB     106      POPC     H15B     HL       0.250000       1.00800           0
     13932 MEMB     106      POPC     H15C     HL       0.250000       1.00800           0
     13933 MEMB     106      POPC     C11      CTL2    -0.800000E-01   12.0110           0
     13934 MEMB     106      POPC     H11A     HAL2     0.900000E-01   1.00800           0
     13935 MEMB     106      POPC     H11B     HAL2     0.900000E-01   1.00800           0
     13936 MEMB     106      POPC     P        PL        1.50000       30.9740           0
     13937 MEMB     106      POPC     O13      O2L     -0.780000       15.9994           0
     13938 MEMB     106      POPC     O14      O2L     -0.780000       15.9994           0
     13939 MEMB     106      POPC     O12      OSLP    -0.570000       15.9994           0
     13940 MEMB     106      POPC     O11      OSLP    -0.570000       15.9994           0
     13941 MEMB     106      POPC     C1       CTL2    -0.800000E-01   12.0110           0
     13942 MEMB     106      POPC     HA       HAL2     0.900000E-01   1.00800           0
     13943 MEMB     106      POPC     HB       HAL2     0.900000E-01   1.00800           0
     13944 MEMB     106      POPC     C2       CTL1     0.170000       12.0110           0
     13945 MEMB     106      POPC     HS       HAL1     0.900000E-01   1.00800           0
     13946 MEMB     106      POPC     O21      OSL     -0.490000       15.9994           0
     13947 MEMB     106      POPC     C21      CL       0.900000       12.0110           0
     13948 MEMB     106      POPC     O22      OBL     -0.630000       15.9994           0
     13949 MEMB     106      POPC     C22      CTL2    -0.220000       12.0110           0
     13950 MEMB     106      POPC     H2R      HAL2     0.900000E-01   1.00800           0
     13951 MEMB     106      POPC     H2S      HAL2     0.900000E-01   1.00800           0
     13952 MEMB     106      POPC     C3       CTL2     0.800000E-01   12.0110           0
     13953 MEMB     106      POPC     HX       HAL2     0.900000E-01   1.00800           0
     13954 MEMB     106      POPC     HY       HAL2     0.900000E-01   1.00800           0
     13955 MEMB     106      POPC     O31      OSL     -0.490000       15.9994           0
     13956 MEMB     106      POPC     C31      CL       0.900000       12.0110           0
     13957 MEMB     106      POPC     O32      OBL     -0.630000       15.9994           0
     13958 MEMB     106      POPC     C32      CTL2    -0.220000       12.0110           0
     13959 MEMB     106      POPC     H2X      HAL2     0.900000E-01   1.00800           0
     13960 MEMB     106      POPC     H2Y      HAL2     0.900000E-01   1.00800           0
     13961 MEMB     106      POPC     C23      CTL2    -0.180000       12.0110           0
     13962 MEMB     106      POPC     H3R      HAL2     0.900000E-01   1.00800           0
     13963 MEMB     106      POPC     H3S      HAL2     0.900000E-01   1.00800           0
     13964 MEMB     106      POPC     C24      CTL2    -0.180000       12.0110           0
     13965 MEMB     106      POPC     H4R      HAL2     0.900000E-01   1.00800           0
     13966 MEMB     106      POPC     H4S      HAL2     0.900000E-01   1.00800           0
     13967 MEMB     106      POPC     C25      CTL2    -0.180000       12.0110           0
     13968 MEMB     106      POPC     H5R      HAL2     0.900000E-01   1.00800           0
     13969 MEMB     106      POPC     H5S      HAL2     0.900000E-01   1.00800           0
     13970 MEMB     106      POPC     C26      CTL2    -0.180000       12.0110           0
     13971 MEMB     106      POPC     H6R      HAL2     0.900000E-01   1.00800           0
     13972 MEMB     106      POPC     H6S      HAL2     0.900000E-01   1.00800           0
     13973 MEMB     106      POPC     C27      CTL2    -0.180000       12.0110           0
     13974 MEMB     106      POPC     H7R      HAL2     0.900000E-01   1.00800           0
     13975 MEMB     106      POPC     H7S      HAL2     0.900000E-01   1.00800           0
     13976 MEMB     106      POPC     C28      CTL2    -0.180000       12.0110           0
     13977 MEMB     106      POPC     H8R      HAL2     0.900000E-01   1.00800           0
     13978 MEMB     106      POPC     H8S      HAL2     0.900000E-01   1.00800           0
     13979 MEMB     106      POPC     C29      CEL1    -0.150000       12.0110           0
     13980 MEMB     106      POPC     H91      HEL1     0.150000       1.00800           0
     13981 MEMB     106      POPC     C210     CEL1    -0.150000       12.0110           0
     13982 MEMB     106      POPC     H101     HEL1     0.150000       1.00800           0
     13983 MEMB     106      POPC     C211     CTL2    -0.180000       12.0110           0
     13984 MEMB     106      POPC     H11R     HAL2     0.900000E-01   1.00800           0
     13985 MEMB     106      POPC     H11S     HAL2     0.900000E-01   1.00800           0
     13986 MEMB     106      POPC     C212     CTL2    -0.180000       12.0110           0
     13987 MEMB     106      POPC     H12R     HAL2     0.900000E-01   1.00800           0
     13988 MEMB     106      POPC     H12S     HAL2     0.900000E-01   1.00800           0
     13989 MEMB     106      POPC     C213     CTL2    -0.180000       12.0110           0
     13990 MEMB     106      POPC     H13R     HAL2     0.900000E-01   1.00800           0
     13991 MEMB     106      POPC     H13S     HAL2     0.900000E-01   1.00800           0
     13992 MEMB     106      POPC     C214     CTL2    -0.180000       12.0110           0
     13993 MEMB     106      POPC     H14R     HAL2     0.900000E-01   1.00800           0
     13994 MEMB     106      POPC     H14S     HAL2     0.900000E-01   1.00800           0
     13995 MEMB     106      POPC     C215     CTL2    -0.180000       12.0110           0
     13996 MEMB     106      POPC     H15R     HAL2     0.900000E-01   1.00800           0
     13997 MEMB     106      POPC     H15S     HAL2     0.900000E-01   1.00800           0
     13998 MEMB     106      POPC     C216     CTL2    -0.180000       12.0110           0
     13999 MEMB     106      POPC     H16R     HAL2     0.900000E-01   1.00800           0
     14000 MEMB     106      POPC     H16S     HAL2     0.900000E-01   1.00800           0
     14001 MEMB     106      POPC     C217     CTL2    -0.180000       12.0110           0
     14002 MEMB     106      POPC     H17R     HAL2     0.900000E-01   1.00800           0
     14003 MEMB     106      POPC     H17S     HAL2     0.900000E-01   1.00800           0
     14004 MEMB     106      POPC     C218     CTL3    -0.270000       12.0110           0
     14005 MEMB     106      POPC     H18R     HAL3     0.900000E-01   1.00800           0
     14006 MEMB     106      POPC     H18S     HAL3     0.900000E-01   1.00800           0
     14007 MEMB     106      POPC     H18T     HAL3     0.900000E-01   1.00800           0
     14008 MEMB     106      POPC     C33      CTL2    -0.180000       12.0110           0
     14009 MEMB     106      POPC     H3X      HAL2     0.900000E-01   1.00800           0
     14010 MEMB     106      POPC     H3Y      HAL2     0.900000E-01   1.00800           0
     14011 MEMB     106      POPC     C34      CTL2    -0.180000       12.0110           0
     14012 MEMB     106      POPC     H4X      HAL2     0.900000E-01   1.00800           0
     14013 MEMB     106      POPC     H4Y      HAL2     0.900000E-01   1.00800           0
     14014 MEMB     106      POPC     C35      CTL2    -0.180000       12.0110           0
     14015 MEMB     106      POPC     H5X      HAL2     0.900000E-01   1.00800           0
     14016 MEMB     106      POPC     H5Y      HAL2     0.900000E-01   1.00800           0
     14017 MEMB     106      POPC     C36      CTL2    -0.180000       12.0110           0
     14018 MEMB     106      POPC     H6X      HAL2     0.900000E-01   1.00800           0
     14019 MEMB     106      POPC     H6Y      HAL2     0.900000E-01   1.00800           0
     14020 MEMB     106      POPC     C37      CTL2    -0.180000       12.0110           0
     14021 MEMB     106      POPC     H7X      HAL2     0.900000E-01   1.00800           0
     14022 MEMB     106      POPC     H7Y      HAL2     0.900000E-01   1.00800           0
     14023 MEMB     106      POPC     C38      CTL2    -0.180000       12.0110           0
     14024 MEMB     106      POPC     H8X      HAL2     0.900000E-01   1.00800           0
     14025 MEMB     106      POPC     H8Y      HAL2     0.900000E-01   1.00800           0
     14026 MEMB     106      POPC     C39      CTL2    -0.180000       12.0110           0
     14027 MEMB     106      POPC     H9X      HAL2     0.900000E-01   1.00800           0
     14028 MEMB     106      POPC     H9Y      HAL2     0.900000E-01   1.00800           0
     14029 MEMB     106      POPC     C310     CTL2    -0.180000       12.0110           0
     14030 MEMB     106      POPC     H10X     HAL2     0.900000E-01   1.00800           0
     14031 MEMB     106      POPC     H10Y     HAL2     0.900000E-01   1.00800           0
     14032 MEMB     106      POPC     C311     CTL2    -0.180000       12.0110           0
     14033 MEMB     106      POPC     H11X     HAL2     0.900000E-01   1.00800           0
     14034 MEMB     106      POPC     H11Y     HAL2     0.900000E-01   1.00800           0
     14035 MEMB     106      POPC     C312     CTL2    -0.180000       12.0110           0
     14036 MEMB     106      POPC     H12X     HAL2     0.900000E-01   1.00800           0
     14037 MEMB     106      POPC     H12Y     HAL2     0.900000E-01   1.00800           0
     14038 MEMB     106      POPC     C313     CTL2    -0.180000       12.0110           0
     14039 MEMB     106      POPC     H13X     HAL2     0.900000E-01   1.00800           0
     14040 MEMB     106      POPC     H13Y     HAL2     0.900000E-01   1.00800           0
     14041 MEMB     106      POPC     C314     CTL2    -0.180000       12.0110           0
     14042 MEMB     106      POPC     H14X     HAL2     0.900000E-01   1.00800           0
     14043 MEMB     106      POPC     H14Y     HAL2     0.900000E-01   1.00800           0
     14044 MEMB     106      POPC     C315     CTL2    -0.180000       12.0110           0
     14045 MEMB     106      POPC     H15X     HAL2     0.900000E-01   1.00800           0
     14046 MEMB     106      POPC     H15Y     HAL2     0.900000E-01   1.00800           0
     14047 MEMB     106      POPC     C316     CTL3    -0.270000       12.0110           0
     14048 MEMB     106      POPC     H16X     HAL3     0.900000E-01   1.00800           0
     14049 MEMB     106      POPC     H16Y     HAL3     0.900000E-01   1.00800           0
     14050 MEMB     106      POPC     H16Z     HAL3     0.900000E-01   1.00800           0
     14051 MEMB     107      POPC     N        NTL     -0.600000       14.0070           0
     14052 MEMB     107      POPC     C12      CTL2    -0.100000       12.0110           0
     14053 MEMB     107      POPC     H12A     HL       0.250000       1.00800           0
     14054 MEMB     107      POPC     H12B     HL       0.250000       1.00800           0
     14055 MEMB     107      POPC     C13      CTL5    -0.350000       12.0110           0
     14056 MEMB     107      POPC     H13A     HL       0.250000       1.00800           0
     14057 MEMB     107      POPC     H13B     HL       0.250000       1.00800           0
     14058 MEMB     107      POPC     H13C     HL       0.250000       1.00800           0
     14059 MEMB     107      POPC     C14      CTL5    -0.350000       12.0110           0
     14060 MEMB     107      POPC     H14A     HL       0.250000       1.00800           0
     14061 MEMB     107      POPC     H14B     HL       0.250000       1.00800           0
     14062 MEMB     107      POPC     H14C     HL       0.250000       1.00800           0
     14063 MEMB     107      POPC     C15      CTL5    -0.350000       12.0110           0
     14064 MEMB     107      POPC     H15A     HL       0.250000       1.00800           0
     14065 MEMB     107      POPC     H15B     HL       0.250000       1.00800           0
     14066 MEMB     107      POPC     H15C     HL       0.250000       1.00800           0
     14067 MEMB     107      POPC     C11      CTL2    -0.800000E-01   12.0110           0
     14068 MEMB     107      POPC     H11A     HAL2     0.900000E-01   1.00800           0
     14069 MEMB     107      POPC     H11B     HAL2     0.900000E-01   1.00800           0
     14070 MEMB     107      POPC     P        PL        1.50000       30.9740           0
     14071 MEMB     107      POPC     O13      O2L     -0.780000       15.9994           0
     14072 MEMB     107      POPC     O14      O2L     -0.780000       15.9994           0
     14073 MEMB     107      POPC     O12      OSLP    -0.570000       15.9994           0
     14074 MEMB     107      POPC     O11      OSLP    -0.570000       15.9994           0
     14075 MEMB     107      POPC     C1       CTL2    -0.800000E-01   12.0110           0
     14076 MEMB     107      POPC     HA       HAL2     0.900000E-01   1.00800           0
     14077 MEMB     107      POPC     HB       HAL2     0.900000E-01   1.00800           0
     14078 MEMB     107      POPC     C2       CTL1     0.170000       12.0110           0
     14079 MEMB     107      POPC     HS       HAL1     0.900000E-01   1.00800           0
     14080 MEMB     107      POPC     O21      OSL     -0.490000       15.9994           0
     14081 MEMB     107      POPC     C21      CL       0.900000       12.0110           0
     14082 MEMB     107      POPC     O22      OBL     -0.630000       15.9994           0
     14083 MEMB     107      POPC     C22      CTL2    -0.220000       12.0110           0
     14084 MEMB     107      POPC     H2R      HAL2     0.900000E-01   1.00800           0
     14085 MEMB     107      POPC     H2S      HAL2     0.900000E-01   1.00800           0
     14086 MEMB     107      POPC     C3       CTL2     0.800000E-01   12.0110           0
     14087 MEMB     107      POPC     HX       HAL2     0.900000E-01   1.00800           0
     14088 MEMB     107      POPC     HY       HAL2     0.900000E-01   1.00800           0
     14089 MEMB     107      POPC     O31      OSL     -0.490000       15.9994           0
     14090 MEMB     107      POPC     C31      CL       0.900000       12.0110           0
     14091 MEMB     107      POPC     O32      OBL     -0.630000       15.9994           0
     14092 MEMB     107      POPC     C32      CTL2    -0.220000       12.0110           0
     14093 MEMB     107      POPC     H2X      HAL2     0.900000E-01   1.00800           0
     14094 MEMB     107      POPC     H2Y      HAL2     0.900000E-01   1.00800           0
     14095 MEMB     107      POPC     C23      CTL2    -0.180000       12.0110           0
     14096 MEMB     107      POPC     H3R      HAL2     0.900000E-01   1.00800           0
     14097 MEMB     107      POPC     H3S      HAL2     0.900000E-01   1.00800           0
     14098 MEMB     107      POPC     C24      CTL2    -0.180000       12.0110           0
     14099 MEMB     107      POPC     H4R      HAL2     0.900000E-01   1.00800           0
     14100 MEMB     107      POPC     H4S      HAL2     0.900000E-01   1.00800           0
     14101 MEMB     107      POPC     C25      CTL2    -0.180000       12.0110           0
     14102 MEMB     107      POPC     H5R      HAL2     0.900000E-01   1.00800           0
     14103 MEMB     107      POPC     H5S      HAL2     0.900000E-01   1.00800           0
     14104 MEMB     107      POPC     C26      CTL2    -0.180000       12.0110           0
     14105 MEMB     107      POPC     H6R      HAL2     0.900000E-01   1.00800           0
     14106 MEMB     107      POPC     H6S      HAL2     0.900000E-01   1.00800           0
     14107 MEMB     107      POPC     C27      CTL2    -0.180000       12.0110           0
     14108 MEMB     107      POPC     H7R      HAL2     0.900000E-01   1.00800           0
     14109 MEMB     107      POPC     H7S      HAL2     0.900000E-01   1.00800           0
     14110 MEMB     107      POPC     C28      CTL2    -0.180000       12.0110           0
     14111 MEMB     107      POPC     H8R      HAL2     0.900000E-01   1.00800           0
     14112 MEMB     107      POPC     H8S      HAL2     0.900000E-01   1.00800           0
     14113 MEMB     107      POPC     C29      CEL1    -0.150000       12.0110           0
     14114 MEMB     107      POPC     H91      HEL1     0.150000       1.00800           0
     14115 MEMB     107      POPC     C210     CEL1    -0.150000       12.0110           0
     14116 MEMB     107      POPC     H101     HEL1     0.150000       1.00800           0
     14117 MEMB     107      POPC     C211     CTL2    -0.180000       12.0110           0
     14118 MEMB     107      POPC     H11R     HAL2     0.900000E-01   1.00800           0
     14119 MEMB     107      POPC     H11S     HAL2     0.900000E-01   1.00800           0
     14120 MEMB     107      POPC     C212     CTL2    -0.180000       12.0110           0
     14121 MEMB     107      POPC     H12R     HAL2     0.900000E-01   1.00800           0
     14122 MEMB     107      POPC     H12S     HAL2     0.900000E-01   1.00800           0
     14123 MEMB     107      POPC     C213     CTL2    -0.180000       12.0110           0
     14124 MEMB     107      POPC     H13R     HAL2     0.900000E-01   1.00800           0
     14125 MEMB     107      POPC     H13S     HAL2     0.900000E-01   1.00800           0
     14126 MEMB     107      POPC     C214     CTL2    -0.180000       12.0110           0
     14127 MEMB     107      POPC     H14R     HAL2     0.900000E-01   1.00800           0
     14128 MEMB     107      POPC     H14S     HAL2     0.900000E-01   1.00800           0
     14129 MEMB     107      POPC     C215     CTL2    -0.180000       12.0110           0
     14130 MEMB     107      POPC     H15R     HAL2     0.900000E-01   1.00800           0
     14131 MEMB     107      POPC     H15S     HAL2     0.900000E-01   1.00800           0
     14132 MEMB     107      POPC     C216     CTL2    -0.180000       12.0110           0
     14133 MEMB     107      POPC     H16R     HAL2     0.900000E-01   1.00800           0
     14134 MEMB     107      POPC     H16S     HAL2     0.900000E-01   1.00800           0
     14135 MEMB     107      POPC     C217     CTL2    -0.180000       12.0110           0
     14136 MEMB     107      POPC     H17R     HAL2     0.900000E-01   1.00800           0
     14137 MEMB     107      POPC     H17S     HAL2     0.900000E-01   1.00800           0
     14138 MEMB     107      POPC     C218     CTL3    -0.270000       12.0110           0
     14139 MEMB     107      POPC     H18R     HAL3     0.900000E-01   1.00800           0
     14140 MEMB     107      POPC     H18S     HAL3     0.900000E-01   1.00800           0
     14141 MEMB     107      POPC     H18T     HAL3     0.900000E-01   1.00800           0
     14142 MEMB     107      POPC     C33      CTL2    -0.180000       12.0110           0
     14143 MEMB     107      POPC     H3X      HAL2     0.900000E-01   1.00800           0
     14144 MEMB     107      POPC     H3Y      HAL2     0.900000E-01   1.00800           0
     14145 MEMB     107      POPC     C34      CTL2    -0.180000       12.0110           0
     14146 MEMB     107      POPC     H4X      HAL2     0.900000E-01   1.00800           0
     14147 MEMB     107      POPC     H4Y      HAL2     0.900000E-01   1.00800           0
     14148 MEMB     107      POPC     C35      CTL2    -0.180000       12.0110           0
     14149 MEMB     107      POPC     H5X      HAL2     0.900000E-01   1.00800           0
     14150 MEMB     107      POPC     H5Y      HAL2     0.900000E-01   1.00800           0
     14151 MEMB     107      POPC     C36      CTL2    -0.180000       12.0110           0
     14152 MEMB     107      POPC     H6X      HAL2     0.900000E-01   1.00800           0
     14153 MEMB     107      POPC     H6Y      HAL2     0.900000E-01   1.00800           0
     14154 MEMB     107      POPC     C37      CTL2    -0.180000       12.0110           0
     14155 MEMB     107      POPC     H7X      HAL2     0.900000E-01   1.00800           0
     14156 MEMB     107      POPC     H7Y      HAL2     0.900000E-01   1.00800           0
     14157 MEMB     107      POPC     C38      CTL2    -0.180000       12.0110           0
     14158 MEMB     107      POPC     H8X      HAL2     0.900000E-01   1.00800           0
     14159 MEMB     107      POPC     H8Y      HAL2     0.900000E-01   1.00800           0
     14160 MEMB     107      POPC     C39      CTL2    -0.180000       12.0110           0
     14161 MEMB     107      POPC     H9X      HAL2     0.900000E-01   1.00800           0
     14162 MEMB     107      POPC     H9Y      HAL2     0.900000E-01   1.00800           0
     14163 MEMB     107      POPC     C310     CTL2    -0.180000       12.0110           0
     14164 MEMB     107      POPC     H10X     HAL2     0.900000E-01   1.00800           0
     14165 MEMB     107      POPC     H10Y     HAL2     0.900000E-01   1.00800           0
     14166 MEMB     107      POPC     C311     CTL2    -0.180000       12.0110           0
     14167 MEMB     107      POPC     H11X     HAL2     0.900000E-01   1.00800           0
     14168 MEMB     107      POPC     H11Y     HAL2     0.900000E-01   1.00800           0
     14169 MEMB     107      POPC     C312     CTL2    -0.180000       12.0110           0
     14170 MEMB     107      POPC     H12X     HAL2     0.900000E-01   1.00800           0
     14171 MEMB     107      POPC     H12Y     HAL2     0.900000E-01   1.00800           0
     14172 MEMB     107      POPC     C313     CTL2    -0.180000       12.0110           0
     14173 MEMB     107      POPC     H13X     HAL2     0.900000E-01   1.00800           0
     14174 MEMB     107      POPC     H13Y     HAL2     0.900000E-01   1.00800           0
     14175 MEMB     107      POPC     C314     CTL2    -0.180000       12.0110           0
     14176 MEMB     107      POPC     H14X     HAL2     0.900000E-01   1.00800           0
     14177 MEMB     107      POPC     H14Y     HAL2     0.900000E-01   1.00800           0
     14178 MEMB     107      POPC     C315     CTL2    -0.180000       12.0110           0
     14179 MEMB     107      POPC     H15X     HAL2     0.900000E-01   1.00800           0
     14180 MEMB     107      POPC     H15Y     HAL2     0.900000E-01   1.00800           0
     14181 MEMB     107      POPC     C316     CTL3    -0.270000       12.0110           0
     14182 MEMB     107      POPC     H16X     HAL3     0.900000E-01   1.00800           0
     14183 MEMB     107      POPC     H16Y     HAL3     0.900000E-01   1.00800           0
     14184 MEMB     107      POPC     H16Z     HAL3     0.900000E-01   1.00800           0
     14185 MEMB     108      POPC     N        NTL     -0.600000       14.0070           0
     14186 MEMB     108      POPC     C12      CTL2    -0.100000       12.0110           0
     14187 MEMB     108      POPC     H12A     HL       0.250000       1.00800           0
     14188 MEMB     108      POPC     H12B     HL       0.250000       1.00800           0
     14189 MEMB     108      POPC     C13      CTL5    -0.350000       12.0110           0
     14190 MEMB     108      POPC     H13A     HL       0.250000       1.00800           0
     14191 MEMB     108      POPC     H13B     HL       0.250000       1.00800           0
     14192 MEMB     108      POPC     H13C     HL       0.250000       1.00800           0
     14193 MEMB     108      POPC     C14      CTL5    -0.350000       12.0110           0
     14194 MEMB     108      POPC     H14A     HL       0.250000       1.00800           0
     14195 MEMB     108      POPC     H14B     HL       0.250000       1.00800           0
     14196 MEMB     108      POPC     H14C     HL       0.250000       1.00800           0
     14197 MEMB     108      POPC     C15      CTL5    -0.350000       12.0110           0
     14198 MEMB     108      POPC     H15A     HL       0.250000       1.00800           0
     14199 MEMB     108      POPC     H15B     HL       0.250000       1.00800           0
     14200 MEMB     108      POPC     H15C     HL       0.250000       1.00800           0
     14201 MEMB     108      POPC     C11      CTL2    -0.800000E-01   12.0110           0
     14202 MEMB     108      POPC     H11A     HAL2     0.900000E-01   1.00800           0
     14203 MEMB     108      POPC     H11B     HAL2     0.900000E-01   1.00800           0
     14204 MEMB     108      POPC     P        PL        1.50000       30.9740           0
     14205 MEMB     108      POPC     O13      O2L     -0.780000       15.9994           0
     14206 MEMB     108      POPC     O14      O2L     -0.780000       15.9994           0
     14207 MEMB     108      POPC     O12      OSLP    -0.570000       15.9994           0
     14208 MEMB     108      POPC     O11      OSLP    -0.570000       15.9994           0
     14209 MEMB     108      POPC     C1       CTL2    -0.800000E-01   12.0110           0
     14210 MEMB     108      POPC     HA       HAL2     0.900000E-01   1.00800           0
     14211 MEMB     108      POPC     HB       HAL2     0.900000E-01   1.00800           0
     14212 MEMB     108      POPC     C2       CTL1     0.170000       12.0110           0
     14213 MEMB     108      POPC     HS       HAL1     0.900000E-01   1.00800           0
     14214 MEMB     108      POPC     O21      OSL     -0.490000       15.9994           0
     14215 MEMB     108      POPC     C21      CL       0.900000       12.0110           0
     14216 MEMB     108      POPC     O22      OBL     -0.630000       15.9994           0
     14217 MEMB     108      POPC     C22      CTL2    -0.220000       12.0110           0
     14218 MEMB     108      POPC     H2R      HAL2     0.900000E-01   1.00800           0
     14219 MEMB     108      POPC     H2S      HAL2     0.900000E-01   1.00800           0
     14220 MEMB     108      POPC     C3       CTL2     0.800000E-01   12.0110           0
     14221 MEMB     108      POPC     HX       HAL2     0.900000E-01   1.00800           0
     14222 MEMB     108      POPC     HY       HAL2     0.900000E-01   1.00800           0
     14223 MEMB     108      POPC     O31      OSL     -0.490000       15.9994           0
     14224 MEMB     108      POPC     C31      CL       0.900000       12.0110           0
     14225 MEMB     108      POPC     O32      OBL     -0.630000       15.9994           0
     14226 MEMB     108      POPC     C32      CTL2    -0.220000       12.0110           0
     14227 MEMB     108      POPC     H2X      HAL2     0.900000E-01   1.00800           0
     14228 MEMB     108      POPC     H2Y      HAL2     0.900000E-01   1.00800           0
     14229 MEMB     108      POPC     C23      CTL2    -0.180000       12.0110           0
     14230 MEMB     108      POPC     H3R      HAL2     0.900000E-01   1.00800           0
     14231 MEMB     108      POPC     H3S      HAL2     0.900000E-01   1.00800           0
     14232 MEMB     108      POPC     C24      CTL2    -0.180000       12.0110           0
     14233 MEMB     108      POPC     H4R      HAL2     0.900000E-01   1.00800           0
     14234 MEMB     108      POPC     H4S      HAL2     0.900000E-01   1.00800           0
     14235 MEMB     108      POPC     C25      CTL2    -0.180000       12.0110           0
     14236 MEMB     108      POPC     H5R      HAL2     0.900000E-01   1.00800           0
     14237 MEMB     108      POPC     H5S      HAL2     0.900000E-01   1.00800           0
     14238 MEMB     108      POPC     C26      CTL2    -0.180000       12.0110           0
     14239 MEMB     108      POPC     H6R      HAL2     0.900000E-01   1.00800           0
     14240 MEMB     108      POPC     H6S      HAL2     0.900000E-01   1.00800           0
     14241 MEMB     108      POPC     C27      CTL2    -0.180000       12.0110           0
     14242 MEMB     108      POPC     H7R      HAL2     0.900000E-01   1.00800           0
     14243 MEMB     108      POPC     H7S      HAL2     0.900000E-01   1.00800           0
     14244 MEMB     108      POPC     C28      CTL2    -0.180000       12.0110           0
     14245 MEMB     108      POPC     H8R      HAL2     0.900000E-01   1.00800           0
     14246 MEMB     108      POPC     H8S      HAL2     0.900000E-01   1.00800           0
     14247 MEMB     108      POPC     C29      CEL1    -0.150000       12.0110           0
     14248 MEMB     108      POPC     H91      HEL1     0.150000       1.00800           0
     14249 MEMB     108      POPC     C210     CEL1    -0.150000       12.0110           0
     14250 MEMB     108      POPC     H101     HEL1     0.150000       1.00800           0
     14251 MEMB     108      POPC     C211     CTL2    -0.180000       12.0110           0
     14252 MEMB     108      POPC     H11R     HAL2     0.900000E-01   1.00800           0
     14253 MEMB     108      POPC     H11S     HAL2     0.900000E-01   1.00800           0
     14254 MEMB     108      POPC     C212     CTL2    -0.180000       12.0110           0
     14255 MEMB     108      POPC     H12R     HAL2     0.900000E-01   1.00800           0
     14256 MEMB     108      POPC     H12S     HAL2     0.900000E-01   1.00800           0
     14257 MEMB     108      POPC     C213     CTL2    -0.180000       12.0110           0
     14258 MEMB     108      POPC     H13R     HAL2     0.900000E-01   1.00800           0
     14259 MEMB     108      POPC     H13S     HAL2     0.900000E-01   1.00800           0
     14260 MEMB     108      POPC     C214     CTL2    -0.180000       12.0110           0
     14261 MEMB     108      POPC     H14R     HAL2     0.900000E-01   1.00800           0
     14262 MEMB     108      POPC     H14S     HAL2     0.900000E-01   1.00800           0
     14263 MEMB     108      POPC     C215     CTL2    -0.180000       12.0110           0
     14264 MEMB     108      POPC     H15R     HAL2     0.900000E-01   1.00800           0
     14265 MEMB     108      POPC     H15S     HAL2     0.900000E-01   1.00800           0
     14266 MEMB     108      POPC     C216     CTL2    -0.180000       12.0110           0
     14267 MEMB     108      POPC     H16R     HAL2     0.900000E-01   1.00800           0
     14268 MEMB     108      POPC     H16S     HAL2     0.900000E-01   1.00800           0
     14269 MEMB     108      POPC     C217     CTL2    -0.180000       12.0110           0
     14270 MEMB     108      POPC     H17R     HAL2     0.900000E-01   1.00800           0
     14271 MEMB     108      POPC     H17S     HAL2     0.900000E-01   1.00800           0
     14272 MEMB     108      POPC     C218     CTL3    -0.270000       12.0110           0
     14273 MEMB     108      POPC     H18R     HAL3     0.900000E-01   1.00800           0
     14274 MEMB     108      POPC     H18S     HAL3     0.900000E-01   1.00800           0
     14275 MEMB     108      POPC     H18T     HAL3     0.900000E-01   1.00800           0
     14276 MEMB     108      POPC     C33      CTL2    -0.180000       12.0110           0
     14277 MEMB     108      POPC     H3X      HAL2     0.900000E-01   1.00800           0
     14278 MEMB     108      POPC     H3Y      HAL2     0.900000E-01   1.00800           0
     14279 MEMB     108      POPC     C34      CTL2    -0.180000       12.0110           0
     14280 MEMB     108      POPC     H4X      HAL2     0.900000E-01   1.00800           0
     14281 MEMB     108      POPC     H4Y      HAL2     0.900000E-01   1.00800           0
     14282 MEMB     108      POPC     C35      CTL2    -0.180000       12.0110           0
     14283 MEMB     108      POPC     H5X      HAL2     0.900000E-01   1.00800           0
     14284 MEMB     108      POPC     H5Y      HAL2     0.900000E-01   1.00800           0
     14285 MEMB     108      POPC     C36      CTL2    -0.180000       12.0110           0
     14286 MEMB     108      POPC     H6X      HAL2     0.900000E-01   1.00800           0
     14287 MEMB     108      POPC     H6Y      HAL2     0.900000E-01   1.00800           0
     14288 MEMB     108      POPC     C37      CTL2    -0.180000       12.0110           0
     14289 MEMB     108      POPC     H7X      HAL2     0.900000E-01   1.00800           0
     14290 MEMB     108      POPC     H7Y      HAL2     0.900000E-01   1.00800           0
     14291 MEMB     108      POPC     C38      CTL2    -0.180000       12.0110           0
     14292 MEMB     108      POPC     H8X      HAL2     0.900000E-01   1.00800           0
     14293 MEMB     108      POPC     H8Y      HAL2     0.900000E-01   1.00800           0
     14294 MEMB     108      POPC     C39      CTL2    -0.180000       12.0110           0
     14295 MEMB     108      POPC     H9X      HAL2     0.900000E-01   1.00800           0
     14296 MEMB     108      POPC     H9Y      HAL2     0.900000E-01   1.00800           0
     14297 MEMB     108      POPC     C310     CTL2    -0.180000       12.0110           0
     14298 MEMB     108      POPC     H10X     HAL2     0.900000E-01   1.00800           0
     14299 MEMB     108      POPC     H10Y     HAL2     0.900000E-01   1.00800           0
     14300 MEMB     108      POPC     C311     CTL2    -0.180000       12.0110           0
     14301 MEMB     108      POPC     H11X     HAL2     0.900000E-01   1.00800           0
     14302 MEMB     108      POPC     H11Y     HAL2     0.900000E-01   1.00800           0
     14303 MEMB     108      POPC     C312     CTL2    -0.180000       12.0110           0
     14304 MEMB     108      POPC     H12X     HAL2     0.900000E-01   1.00800           0
     14305 MEMB     108      POPC     H12Y     HAL2     0.900000E-01   1.00800           0
     14306 MEMB     108      POPC     C313     CTL2    -0.180000       12.0110           0
     14307 MEMB     108      POPC     H13X     HAL2     0.900000E-01   1.00800           0
     14308 MEMB     108      POPC     H13Y     HAL2     0.900000E-01   1.00800           0
     14309 MEMB     108      POPC     C314     CTL2    -0.180000       12.0110           0
     14310 MEMB     108      POPC     H14X     HAL2     0.900000E-01   1.00800           0
     14311 MEMB     108      POPC     H14Y     HAL2     0.900000E-01   1.00800           0
     14312 MEMB     108      POPC     C315     CTL2    -0.180000       12.0110           0
     14313 MEMB     108      POPC     H15X     HAL2     0.900000E-01   1.00800           0
     14314 MEMB     108      POPC     H15Y     HAL2     0.900000E-01   1.00800           0
     14315 MEMB     108      POPC     C316     CTL3    -0.270000       12.0110           0
     14316 MEMB     108      POPC     H16X     HAL3     0.900000E-01   1.00800           0
     14317 MEMB     108      POPC     H16Y     HAL3     0.900000E-01   1.00800           0
     14318 MEMB     108      POPC     H16Z     HAL3     0.900000E-01   1.00800           0
     14319 MEMB     109      POPC     N        NTL     -0.600000       14.0070           0
     14320 MEMB     109      POPC     C12      CTL2    -0.100000       12.0110           0
     14321 MEMB     109      POPC     H12A     HL       0.250000       1.00800           0
     14322 MEMB     109      POPC     H12B     HL       0.250000       1.00800           0
     14323 MEMB     109      POPC     C13      CTL5    -0.350000       12.0110           0
     14324 MEMB     109      POPC     H13A     HL       0.250000       1.00800           0
     14325 MEMB     109      POPC     H13B     HL       0.250000       1.00800           0
     14326 MEMB     109      POPC     H13C     HL       0.250000       1.00800           0
     14327 MEMB     109      POPC     C14      CTL5    -0.350000       12.0110           0
     14328 MEMB     109      POPC     H14A     HL       0.250000       1.00800           0
     14329 MEMB     109      POPC     H14B     HL       0.250000       1.00800           0
     14330 MEMB     109      POPC     H14C     HL       0.250000       1.00800           0
     14331 MEMB     109      POPC     C15      CTL5    -0.350000       12.0110           0
     14332 MEMB     109      POPC     H15A     HL       0.250000       1.00800           0
     14333 MEMB     109      POPC     H15B     HL       0.250000       1.00800           0
     14334 MEMB     109      POPC     H15C     HL       0.250000       1.00800           0
     14335 MEMB     109      POPC     C11      CTL2    -0.800000E-01   12.0110           0
     14336 MEMB     109      POPC     H11A     HAL2     0.900000E-01   1.00800           0
     14337 MEMB     109      POPC     H11B     HAL2     0.900000E-01   1.00800           0
     14338 MEMB     109      POPC     P        PL        1.50000       30.9740           0
     14339 MEMB     109      POPC     O13      O2L     -0.780000       15.9994           0
     14340 MEMB     109      POPC     O14      O2L     -0.780000       15.9994           0
     14341 MEMB     109      POPC     O12      OSLP    -0.570000       15.9994           0
     14342 MEMB     109      POPC     O11      OSLP    -0.570000       15.9994           0
     14343 MEMB     109      POPC     C1       CTL2    -0.800000E-01   12.0110           0
     14344 MEMB     109      POPC     HA       HAL2     0.900000E-01   1.00800           0
     14345 MEMB     109      POPC     HB       HAL2     0.900000E-01   1.00800           0
     14346 MEMB     109      POPC     C2       CTL1     0.170000       12.0110           0
     14347 MEMB     109      POPC     HS       HAL1     0.900000E-01   1.00800           0
     14348 MEMB     109      POPC     O21      OSL     -0.490000       15.9994           0
     14349 MEMB     109      POPC     C21      CL       0.900000       12.0110           0
     14350 MEMB     109      POPC     O22      OBL     -0.630000       15.9994           0
     14351 MEMB     109      POPC     C22      CTL2    -0.220000       12.0110           0
     14352 MEMB     109      POPC     H2R      HAL2     0.900000E-01   1.00800           0
     14353 MEMB     109      POPC     H2S      HAL2     0.900000E-01   1.00800           0
     14354 MEMB     109      POPC     C3       CTL2     0.800000E-01   12.0110           0
     14355 MEMB     109      POPC     HX       HAL2     0.900000E-01   1.00800           0
     14356 MEMB     109      POPC     HY       HAL2     0.900000E-01   1.00800           0
     14357 MEMB     109      POPC     O31      OSL     -0.490000       15.9994           0
     14358 MEMB     109      POPC     C31      CL       0.900000       12.0110           0
     14359 MEMB     109      POPC     O32      OBL     -0.630000       15.9994           0
     14360 MEMB     109      POPC     C32      CTL2    -0.220000       12.0110           0
     14361 MEMB     109      POPC     H2X      HAL2     0.900000E-01   1.00800           0
     14362 MEMB     109      POPC     H2Y      HAL2     0.900000E-01   1.00800           0
     14363 MEMB     109      POPC     C23      CTL2    -0.180000       12.0110           0
     14364 MEMB     109      POPC     H3R      HAL2     0.900000E-01   1.00800           0
     14365 MEMB     109      POPC     H3S      HAL2     0.900000E-01   1.00800           0
     14366 MEMB     109      POPC     C24      CTL2    -0.180000       12.0110           0
     14367 MEMB     109      POPC     H4R      HAL2     0.900000E-01   1.00800           0
     14368 MEMB     109      POPC     H4S      HAL2     0.900000E-01   1.00800           0
     14369 MEMB     109      POPC     C25      CTL2    -0.180000       12.0110           0
     14370 MEMB     109      POPC     H5R      HAL2     0.900000E-01   1.00800           0
     14371 MEMB     109      POPC     H5S      HAL2     0.900000E-01   1.00800           0
     14372 MEMB     109      POPC     C26      CTL2    -0.180000       12.0110           0
     14373 MEMB     109      POPC     H6R      HAL2     0.900000E-01   1.00800           0
     14374 MEMB     109      POPC     H6S      HAL2     0.900000E-01   1.00800           0
     14375 MEMB     109      POPC     C27      CTL2    -0.180000       12.0110           0
     14376 MEMB     109      POPC     H7R      HAL2     0.900000E-01   1.00800           0
     14377 MEMB     109      POPC     H7S      HAL2     0.900000E-01   1.00800           0
     14378 MEMB     109      POPC     C28      CTL2    -0.180000       12.0110           0
     14379 MEMB     109      POPC     H8R      HAL2     0.900000E-01   1.00800           0
     14380 MEMB     109      POPC     H8S      HAL2     0.900000E-01   1.00800           0
     14381 MEMB     109      POPC     C29      CEL1    -0.150000       12.0110           0
     14382 MEMB     109      POPC     H91      HEL1     0.150000       1.00800           0
     14383 MEMB     109      POPC     C210     CEL1    -0.150000       12.0110           0
     14384 MEMB     109      POPC     H101     HEL1     0.150000       1.00800           0
     14385 MEMB     109      POPC     C211     CTL2    -0.180000       12.0110           0
     14386 MEMB     109      POPC     H11R     HAL2     0.900000E-01   1.00800           0
     14387 MEMB     109      POPC     H11S     HAL2     0.900000E-01   1.00800           0
     14388 MEMB     109      POPC     C212     CTL2    -0.180000       12.0110           0
     14389 MEMB     109      POPC     H12R     HAL2     0.900000E-01   1.00800           0
     14390 MEMB     109      POPC     H12S     HAL2     0.900000E-01   1.00800           0
     14391 MEMB     109      POPC     C213     CTL2    -0.180000       12.0110           0
     14392 MEMB     109      POPC     H13R     HAL2     0.900000E-01   1.00800           0
     14393 MEMB     109      POPC     H13S     HAL2     0.900000E-01   1.00800           0
     14394 MEMB     109      POPC     C214     CTL2    -0.180000       12.0110           0
     14395 MEMB     109      POPC     H14R     HAL2     0.900000E-01   1.00800           0
     14396 MEMB     109      POPC     H14S     HAL2     0.900000E-01   1.00800           0
     14397 MEMB     109      POPC     C215     CTL2    -0.180000       12.0110           0
     14398 MEMB     109      POPC     H15R     HAL2     0.900000E-01   1.00800           0
     14399 MEMB     109      POPC     H15S     HAL2     0.900000E-01   1.00800           0
     14400 MEMB     109      POPC     C216     CTL2    -0.180000       12.0110           0
     14401 MEMB     109      POPC     H16R     HAL2     0.900000E-01   1.00800           0
     14402 MEMB     109      POPC     H16S     HAL2     0.900000E-01   1.00800           0
     14403 MEMB     109      POPC     C217     CTL2    -0.180000       12.0110           0
     14404 MEMB     109      POPC     H17R     HAL2     0.900000E-01   1.00800           0
     14405 MEMB     109      POPC     H17S     HAL2     0.900000E-01   1.00800           0
     14406 MEMB     109      POPC     C218     CTL3    -0.270000       12.0110           0
     14407 MEMB     109      POPC     H18R     HAL3     0.900000E-01   1.00800           0
     14408 MEMB     109      POPC     H18S     HAL3     0.900000E-01   1.00800           0
     14409 MEMB     109      POPC     H18T     HAL3     0.900000E-01   1.00800           0
     14410 MEMB     109      POPC     C33      CTL2    -0.180000       12.0110           0
     14411 MEMB     109      POPC     H3X      HAL2     0.900000E-01   1.00800           0
     14412 MEMB     109      POPC     H3Y      HAL2     0.900000E-01   1.00800           0
     14413 MEMB     109      POPC     C34      CTL2    -0.180000       12.0110           0
     14414 MEMB     109      POPC     H4X      HAL2     0.900000E-01   1.00800           0
     14415 MEMB     109      POPC     H4Y      HAL2     0.900000E-01   1.00800           0
     14416 MEMB     109      POPC     C35      CTL2    -0.180000       12.0110           0
     14417 MEMB     109      POPC     H5X      HAL2     0.900000E-01   1.00800           0
     14418 MEMB     109      POPC     H5Y      HAL2     0.900000E-01   1.00800           0
     14419 MEMB     109      POPC     C36      CTL2    -0.180000       12.0110           0
     14420 MEMB     109      POPC     H6X      HAL2     0.900000E-01   1.00800           0
     14421 MEMB     109      POPC     H6Y      HAL2     0.900000E-01   1.00800           0
     14422 MEMB     109      POPC     C37      CTL2    -0.180000       12.0110           0
     14423 MEMB     109      POPC     H7X      HAL2     0.900000E-01   1.00800           0
     14424 MEMB     109      POPC     H7Y      HAL2     0.900000E-01   1.00800           0
     14425 MEMB     109      POPC     C38      CTL2    -0.180000       12.0110           0
     14426 MEMB     109      POPC     H8X      HAL2     0.900000E-01   1.00800           0
     14427 MEMB     109      POPC     H8Y      HAL2     0.900000E-01   1.00800           0
     14428 MEMB     109      POPC     C39      CTL2    -0.180000       12.0110           0
     14429 MEMB     109      POPC     H9X      HAL2     0.900000E-01   1.00800           0
     14430 MEMB     109      POPC     H9Y      HAL2     0.900000E-01   1.00800           0
     14431 MEMB     109      POPC     C310     CTL2    -0.180000       12.0110           0
     14432 MEMB     109      POPC     H10X     HAL2     0.900000E-01   1.00800           0
     14433 MEMB     109      POPC     H10Y     HAL2     0.900000E-01   1.00800           0
     14434 MEMB     109      POPC     C311     CTL2    -0.180000       12.0110           0
     14435 MEMB     109      POPC     H11X     HAL2     0.900000E-01   1.00800           0
     14436 MEMB     109      POPC     H11Y     HAL2     0.900000E-01   1.00800           0
     14437 MEMB     109      POPC     C312     CTL2    -0.180000       12.0110           0
     14438 MEMB     109      POPC     H12X     HAL2     0.900000E-01   1.00800           0
     14439 MEMB     109      POPC     H12Y     HAL2     0.900000E-01   1.00800           0
     14440 MEMB     109      POPC     C313     CTL2    -0.180000       12.0110           0
     14441 MEMB     109      POPC     H13X     HAL2     0.900000E-01   1.00800           0
     14442 MEMB     109      POPC     H13Y     HAL2     0.900000E-01   1.00800           0
     14443 MEMB     109      POPC     C314     CTL2    -0.180000       12.0110           0
     14444 MEMB     109      POPC     H14X     HAL2     0.900000E-01   1.00800           0
     14445 MEMB     109      POPC     H14Y     HAL2     0.900000E-01   1.00800           0
     14446 MEMB     109      POPC     C315     CTL2    -0.180000       12.0110           0
     14447 MEMB     109      POPC     H15X     HAL2     0.900000E-01   1.00800           0
     14448 MEMB     109      POPC     H15Y     HAL2     0.900000E-01   1.00800           0
     14449 MEMB     109      POPC     C316     CTL3    -0.270000       12.0110           0
     14450 MEMB     109      POPC     H16X     HAL3     0.900000E-01   1.00800           0
     14451 MEMB     109      POPC     H16Y     HAL3     0.900000E-01   1.00800           0
     14452 MEMB     109      POPC     H16Z     HAL3     0.900000E-01   1.00800           0
     14453 MEMB     110      POPC     N        NTL     -0.600000       14.0070           0
     14454 MEMB     110      POPC     C12      CTL2    -0.100000       12.0110           0
     14455 MEMB     110      POPC     H12A     HL       0.250000       1.00800           0
     14456 MEMB     110      POPC     H12B     HL       0.250000       1.00800           0
     14457 MEMB     110      POPC     C13      CTL5    -0.350000       12.0110           0
     14458 MEMB     110      POPC     H13A     HL       0.250000       1.00800           0
     14459 MEMB     110      POPC     H13B     HL       0.250000       1.00800           0
     14460 MEMB     110      POPC     H13C     HL       0.250000       1.00800           0
     14461 MEMB     110      POPC     C14      CTL5    -0.350000       12.0110           0
     14462 MEMB     110      POPC     H14A     HL       0.250000       1.00800           0
     14463 MEMB     110      POPC     H14B     HL       0.250000       1.00800           0
     14464 MEMB     110      POPC     H14C     HL       0.250000       1.00800           0
     14465 MEMB     110      POPC     C15      CTL5    -0.350000       12.0110           0
     14466 MEMB     110      POPC     H15A     HL       0.250000       1.00800           0
     14467 MEMB     110      POPC     H15B     HL       0.250000       1.00800           0
     14468 MEMB     110      POPC     H15C     HL       0.250000       1.00800           0
     14469 MEMB     110      POPC     C11      CTL2    -0.800000E-01   12.0110           0
     14470 MEMB     110      POPC     H11A     HAL2     0.900000E-01   1.00800           0
     14471 MEMB     110      POPC     H11B     HAL2     0.900000E-01   1.00800           0
     14472 MEMB     110      POPC     P        PL        1.50000       30.9740           0
     14473 MEMB     110      POPC     O13      O2L     -0.780000       15.9994           0
     14474 MEMB     110      POPC     O14      O2L     -0.780000       15.9994           0
     14475 MEMB     110      POPC     O12      OSLP    -0.570000       15.9994           0
     14476 MEMB     110      POPC     O11      OSLP    -0.570000       15.9994           0
     14477 MEMB     110      POPC     C1       CTL2    -0.800000E-01   12.0110           0
     14478 MEMB     110      POPC     HA       HAL2     0.900000E-01   1.00800           0
     14479 MEMB     110      POPC     HB       HAL2     0.900000E-01   1.00800           0
     14480 MEMB     110      POPC     C2       CTL1     0.170000       12.0110           0
     14481 MEMB     110      POPC     HS       HAL1     0.900000E-01   1.00800           0
     14482 MEMB     110      POPC     O21      OSL     -0.490000       15.9994           0
     14483 MEMB     110      POPC     C21      CL       0.900000       12.0110           0
     14484 MEMB     110      POPC     O22      OBL     -0.630000       15.9994           0
     14485 MEMB     110      POPC     C22      CTL2    -0.220000       12.0110           0
     14486 MEMB     110      POPC     H2R      HAL2     0.900000E-01   1.00800           0
     14487 MEMB     110      POPC     H2S      HAL2     0.900000E-01   1.00800           0
     14488 MEMB     110      POPC     C3       CTL2     0.800000E-01   12.0110           0
     14489 MEMB     110      POPC     HX       HAL2     0.900000E-01   1.00800           0
     14490 MEMB     110      POPC     HY       HAL2     0.900000E-01   1.00800           0
     14491 MEMB     110      POPC     O31      OSL     -0.490000       15.9994           0
     14492 MEMB     110      POPC     C31      CL       0.900000       12.0110           0
     14493 MEMB     110      POPC     O32      OBL     -0.630000       15.9994           0
     14494 MEMB     110      POPC     C32      CTL2    -0.220000       12.0110           0
     14495 MEMB     110      POPC     H2X      HAL2     0.900000E-01   1.00800           0
     14496 MEMB     110      POPC     H2Y      HAL2     0.900000E-01   1.00800           0
     14497 MEMB     110      POPC     C23      CTL2    -0.180000       12.0110           0
     14498 MEMB     110      POPC     H3R      HAL2     0.900000E-01   1.00800           0
     14499 MEMB     110      POPC     H3S      HAL2     0.900000E-01   1.00800           0
     14500 MEMB     110      POPC     C24      CTL2    -0.180000       12.0110           0
     14501 MEMB     110      POPC     H4R      HAL2     0.900000E-01   1.00800           0
     14502 MEMB     110      POPC     H4S      HAL2     0.900000E-01   1.00800           0
     14503 MEMB     110      POPC     C25      CTL2    -0.180000       12.0110           0
     14504 MEMB     110      POPC     H5R      HAL2     0.900000E-01   1.00800           0
     14505 MEMB     110      POPC     H5S      HAL2     0.900000E-01   1.00800           0
     14506 MEMB     110      POPC     C26      CTL2    -0.180000       12.0110           0
     14507 MEMB     110      POPC     H6R      HAL2     0.900000E-01   1.00800           0
     14508 MEMB     110      POPC     H6S      HAL2     0.900000E-01   1.00800           0
     14509 MEMB     110      POPC     C27      CTL2    -0.180000       12.0110           0
     14510 MEMB     110      POPC     H7R      HAL2     0.900000E-01   1.00800           0
     14511 MEMB     110      POPC     H7S      HAL2     0.900000E-01   1.00800           0
     14512 MEMB     110      POPC     C28      CTL2    -0.180000       12.0110           0
     14513 MEMB     110      POPC     H8R      HAL2     0.900000E-01   1.00800           0
     14514 MEMB     110      POPC     H8S      HAL2     0.900000E-01   1.00800           0
     14515 MEMB     110      POPC     C29      CEL1    -0.150000       12.0110           0
     14516 MEMB     110      POPC     H91      HEL1     0.150000       1.00800           0
     14517 MEMB     110      POPC     C210     CEL1    -0.150000       12.0110           0
     14518 MEMB     110      POPC     H101     HEL1     0.150000       1.00800           0
     14519 MEMB     110      POPC     C211     CTL2    -0.180000       12.0110           0
     14520 MEMB     110      POPC     H11R     HAL2     0.900000E-01   1.00800           0
     14521 MEMB     110      POPC     H11S     HAL2     0.900000E-01   1.00800           0
     14522 MEMB     110      POPC     C212     CTL2    -0.180000       12.0110           0
     14523 MEMB     110      POPC     H12R     HAL2     0.900000E-01   1.00800           0
     14524 MEMB     110      POPC     H12S     HAL2     0.900000E-01   1.00800           0
     14525 MEMB     110      POPC     C213     CTL2    -0.180000       12.0110           0
     14526 MEMB     110      POPC     H13R     HAL2     0.900000E-01   1.00800           0
     14527 MEMB     110      POPC     H13S     HAL2     0.900000E-01   1.00800           0
     14528 MEMB     110      POPC     C214     CTL2    -0.180000       12.0110           0
     14529 MEMB     110      POPC     H14R     HAL2     0.900000E-01   1.00800           0
     14530 MEMB     110      POPC     H14S     HAL2     0.900000E-01   1.00800           0
     14531 MEMB     110      POPC     C215     CTL2    -0.180000       12.0110           0
     14532 MEMB     110      POPC     H15R     HAL2     0.900000E-01   1.00800           0
     14533 MEMB     110      POPC     H15S     HAL2     0.900000E-01   1.00800           0
     14534 MEMB     110      POPC     C216     CTL2    -0.180000       12.0110           0
     14535 MEMB     110      POPC     H16R     HAL2     0.900000E-01   1.00800           0
     14536 MEMB     110      POPC     H16S     HAL2     0.900000E-01   1.00800           0
     14537 MEMB     110      POPC     C217     CTL2    -0.180000       12.0110           0
     14538 MEMB     110      POPC     H17R     HAL2     0.900000E-01   1.00800           0
     14539 MEMB     110      POPC     H17S     HAL2     0.900000E-01   1.00800           0
     14540 MEMB     110      POPC     C218     CTL3    -0.270000       12.0110           0
     14541 MEMB     110      POPC     H18R     HAL3     0.900000E-01   1.00800           0
     14542 MEMB     110      POPC     H18S     HAL3     0.900000E-01   1.00800           0
     14543 MEMB     110      POPC     H18T     HAL3     0.900000E-01   1.00800           0
     14544 MEMB     110      POPC     C33      CTL2    -0.180000       12.0110           0
     14545 MEMB     110      POPC     H3X      HAL2     0.900000E-01   1.00800           0
     14546 MEMB     110      POPC     H3Y      HAL2     0.900000E-01   1.00800           0
     14547 MEMB     110      POPC     C34      CTL2    -0.180000       12.0110           0
     14548 MEMB     110      POPC     H4X      HAL2     0.900000E-01   1.00800           0
     14549 MEMB     110      POPC     H4Y      HAL2     0.900000E-01   1.00800           0
     14550 MEMB     110      POPC     C35      CTL2    -0.180000       12.0110           0
     14551 MEMB     110      POPC     H5X      HAL2     0.900000E-01   1.00800           0
     14552 MEMB     110      POPC     H5Y      HAL2     0.900000E-01   1.00800           0
     14553 MEMB     110      POPC     C36      CTL2    -0.180000       12.0110           0
     14554 MEMB     110      POPC     H6X      HAL2     0.900000E-01   1.00800           0
     14555 MEMB     110      POPC     H6Y      HAL2     0.900000E-01   1.00800           0
     14556 MEMB     110      POPC     C37      CTL2    -0.180000       12.0110           0
     14557 MEMB     110      POPC     H7X      HAL2     0.900000E-01   1.00800           0
     14558 MEMB     110      POPC     H7Y      HAL2     0.900000E-01   1.00800           0
     14559 MEMB     110      POPC     C38      CTL2    -0.180000       12.0110           0
     14560 MEMB     110      POPC     H8X      HAL2     0.900000E-01   1.00800           0
     14561 MEMB     110      POPC     H8Y      HAL2     0.900000E-01   1.00800           0
     14562 MEMB     110      POPC     C39      CTL2    -0.180000       12.0110           0
     14563 MEMB     110      POPC     H9X      HAL2     0.900000E-01   1.00800           0
     14564 MEMB     110      POPC     H9Y      HAL2     0.900000E-01   1.00800           0
     14565 MEMB     110      POPC     C310     CTL2    -0.180000       12.0110           0
     14566 MEMB     110      POPC     H10X     HAL2     0.900000E-01   1.00800           0
     14567 MEMB     110      POPC     H10Y     HAL2     0.900000E-01   1.00800           0
     14568 MEMB     110      POPC     C311     CTL2    -0.180000       12.0110           0
     14569 MEMB     110      POPC     H11X     HAL2     0.900000E-01   1.00800           0
     14570 MEMB     110      POPC     H11Y     HAL2     0.900000E-01   1.00800           0
     14571 MEMB     110      POPC     C312     CTL2    -0.180000       12.0110           0
     14572 MEMB     110      POPC     H12X     HAL2     0.900000E-01   1.00800           0
     14573 MEMB     110      POPC     H12Y     HAL2     0.900000E-01   1.00800           0
     14574 MEMB     110      POPC     C313     CTL2    -0.180000       12.0110           0
     14575 MEMB     110      POPC     H13X     HAL2     0.900000E-01   1.00800           0
     14576 MEMB     110      POPC     H13Y     HAL2     0.900000E-01   1.00800           0
     14577 MEMB     110      POPC     C314     CTL2    -0.180000       12.0110           0
     14578 MEMB     110      POPC     H14X     HAL2     0.900000E-01   1.00800           0
     14579 MEMB     110      POPC     H14Y     HAL2     0.900000E-01   1.00800           0
     14580 MEMB     110      POPC     C315     CTL2    -0.180000       12.0110           0
     14581 MEMB     110      POPC     H15X     HAL2     0.900000E-01   1.00800           0
     14582 MEMB     110      POPC     H15Y     HAL2     0.900000E-01   1.00800           0
     14583 MEMB     110      POPC     C316     CTL3    -0.270000       12.0110           0
     14584 MEMB     110      POPC     H16X     HAL3     0.900000E-01   1.00800           0
     14585 MEMB     110      POPC     H16Y     HAL3     0.900000E-01   1.00800           0
     14586 MEMB     110      POPC     H16Z     HAL3     0.900000E-01   1.00800           0
     14587 MEMB     111      POPC     N        NTL     -0.600000       14.0070           0
     14588 MEMB     111      POPC     C12      CTL2    -0.100000       12.0110           0
     14589 MEMB     111      POPC     H12A     HL       0.250000       1.00800           0
     14590 MEMB     111      POPC     H12B     HL       0.250000       1.00800           0
     14591 MEMB     111      POPC     C13      CTL5    -0.350000       12.0110           0
     14592 MEMB     111      POPC     H13A     HL       0.250000       1.00800           0
     14593 MEMB     111      POPC     H13B     HL       0.250000       1.00800           0
     14594 MEMB     111      POPC     H13C     HL       0.250000       1.00800           0
     14595 MEMB     111      POPC     C14      CTL5    -0.350000       12.0110           0
     14596 MEMB     111      POPC     H14A     HL       0.250000       1.00800           0
     14597 MEMB     111      POPC     H14B     HL       0.250000       1.00800           0
     14598 MEMB     111      POPC     H14C     HL       0.250000       1.00800           0
     14599 MEMB     111      POPC     C15      CTL5    -0.350000       12.0110           0
     14600 MEMB     111      POPC     H15A     HL       0.250000       1.00800           0
     14601 MEMB     111      POPC     H15B     HL       0.250000       1.00800           0
     14602 MEMB     111      POPC     H15C     HL       0.250000       1.00800           0
     14603 MEMB     111      POPC     C11      CTL2    -0.800000E-01   12.0110           0
     14604 MEMB     111      POPC     H11A     HAL2     0.900000E-01   1.00800           0
     14605 MEMB     111      POPC     H11B     HAL2     0.900000E-01   1.00800           0
     14606 MEMB     111      POPC     P        PL        1.50000       30.9740           0
     14607 MEMB     111      POPC     O13      O2L     -0.780000       15.9994           0
     14608 MEMB     111      POPC     O14      O2L     -0.780000       15.9994           0
     14609 MEMB     111      POPC     O12      OSLP    -0.570000       15.9994           0
     14610 MEMB     111      POPC     O11      OSLP    -0.570000       15.9994           0
     14611 MEMB     111      POPC     C1       CTL2    -0.800000E-01   12.0110           0
     14612 MEMB     111      POPC     HA       HAL2     0.900000E-01   1.00800           0
     14613 MEMB     111      POPC     HB       HAL2     0.900000E-01   1.00800           0
     14614 MEMB     111      POPC     C2       CTL1     0.170000       12.0110           0
     14615 MEMB     111      POPC     HS       HAL1     0.900000E-01   1.00800           0
     14616 MEMB     111      POPC     O21      OSL     -0.490000       15.9994           0
     14617 MEMB     111      POPC     C21      CL       0.900000       12.0110           0
     14618 MEMB     111      POPC     O22      OBL     -0.630000       15.9994           0
     14619 MEMB     111      POPC     C22      CTL2    -0.220000       12.0110           0
     14620 MEMB     111      POPC     H2R      HAL2     0.900000E-01   1.00800           0
     14621 MEMB     111      POPC     H2S      HAL2     0.900000E-01   1.00800           0
     14622 MEMB     111      POPC     C3       CTL2     0.800000E-01   12.0110           0
     14623 MEMB     111      POPC     HX       HAL2     0.900000E-01   1.00800           0
     14624 MEMB     111      POPC     HY       HAL2     0.900000E-01   1.00800           0
     14625 MEMB     111      POPC     O31      OSL     -0.490000       15.9994           0
     14626 MEMB     111      POPC     C31      CL       0.900000       12.0110           0
     14627 MEMB     111      POPC     O32      OBL     -0.630000       15.9994           0
     14628 MEMB     111      POPC     C32      CTL2    -0.220000       12.0110           0
     14629 MEMB     111      POPC     H2X      HAL2     0.900000E-01   1.00800           0
     14630 MEMB     111      POPC     H2Y      HAL2     0.900000E-01   1.00800           0
     14631 MEMB     111      POPC     C23      CTL2    -0.180000       12.0110           0
     14632 MEMB     111      POPC     H3R      HAL2     0.900000E-01   1.00800           0
     14633 MEMB     111      POPC     H3S      HAL2     0.900000E-01   1.00800           0
     14634 MEMB     111      POPC     C24      CTL2    -0.180000       12.0110           0
     14635 MEMB     111      POPC     H4R      HAL2     0.900000E-01   1.00800           0
     14636 MEMB     111      POPC     H4S      HAL2     0.900000E-01   1.00800           0
     14637 MEMB     111      POPC     C25      CTL2    -0.180000       12.0110           0
     14638 MEMB     111      POPC     H5R      HAL2     0.900000E-01   1.00800           0
     14639 MEMB     111      POPC     H5S      HAL2     0.900000E-01   1.00800           0
     14640 MEMB     111      POPC     C26      CTL2    -0.180000       12.0110           0
     14641 MEMB     111      POPC     H6R      HAL2     0.900000E-01   1.00800           0
     14642 MEMB     111      POPC     H6S      HAL2     0.900000E-01   1.00800           0
     14643 MEMB     111      POPC     C27      CTL2    -0.180000       12.0110           0
     14644 MEMB     111      POPC     H7R      HAL2     0.900000E-01   1.00800           0
     14645 MEMB     111      POPC     H7S      HAL2     0.900000E-01   1.00800           0
     14646 MEMB     111      POPC     C28      CTL2    -0.180000       12.0110           0
     14647 MEMB     111      POPC     H8R      HAL2     0.900000E-01   1.00800           0
     14648 MEMB     111      POPC     H8S      HAL2     0.900000E-01   1.00800           0
     14649 MEMB     111      POPC     C29      CEL1    -0.150000       12.0110           0
     14650 MEMB     111      POPC     H91      HEL1     0.150000       1.00800           0
     14651 MEMB     111      POPC     C210     CEL1    -0.150000       12.0110           0
     14652 MEMB     111      POPC     H101     HEL1     0.150000       1.00800           0
     14653 MEMB     111      POPC     C211     CTL2    -0.180000       12.0110           0
     14654 MEMB     111      POPC     H11R     HAL2     0.900000E-01   1.00800           0
     14655 MEMB     111      POPC     H11S     HAL2     0.900000E-01   1.00800           0
     14656 MEMB     111      POPC     C212     CTL2    -0.180000       12.0110           0
     14657 MEMB     111      POPC     H12R     HAL2     0.900000E-01   1.00800           0
     14658 MEMB     111      POPC     H12S     HAL2     0.900000E-01   1.00800           0
     14659 MEMB     111      POPC     C213     CTL2    -0.180000       12.0110           0
     14660 MEMB     111      POPC     H13R     HAL2     0.900000E-01   1.00800           0
     14661 MEMB     111      POPC     H13S     HAL2     0.900000E-01   1.00800           0
     14662 MEMB     111      POPC     C214     CTL2    -0.180000       12.0110           0
     14663 MEMB     111      POPC     H14R     HAL2     0.900000E-01   1.00800           0
     14664 MEMB     111      POPC     H14S     HAL2     0.900000E-01   1.00800           0
     14665 MEMB     111      POPC     C215     CTL2    -0.180000       12.0110           0
     14666 MEMB     111      POPC     H15R     HAL2     0.900000E-01   1.00800           0
     14667 MEMB     111      POPC     H15S     HAL2     0.900000E-01   1.00800           0
     14668 MEMB     111      POPC     C216     CTL2    -0.180000       12.0110           0
     14669 MEMB     111      POPC     H16R     HAL2     0.900000E-01   1.00800           0
     14670 MEMB     111      POPC     H16S     HAL2     0.900000E-01   1.00800           0
     14671 MEMB     111      POPC     C217     CTL2    -0.180000       12.0110           0
     14672 MEMB     111      POPC     H17R     HAL2     0.900000E-01   1.00800           0
     14673 MEMB     111      POPC     H17S     HAL2     0.900000E-01   1.00800           0
     14674 MEMB     111      POPC     C218     CTL3    -0.270000       12.0110           0
     14675 MEMB     111      POPC     H18R     HAL3     0.900000E-01   1.00800           0
     14676 MEMB     111      POPC     H18S     HAL3     0.900000E-01   1.00800           0
     14677 MEMB     111      POPC     H18T     HAL3     0.900000E-01   1.00800           0
     14678 MEMB     111      POPC     C33      CTL2    -0.180000       12.0110           0
     14679 MEMB     111      POPC     H3X      HAL2     0.900000E-01   1.00800           0
     14680 MEMB     111      POPC     H3Y      HAL2     0.900000E-01   1.00800           0
     14681 MEMB     111      POPC     C34      CTL2    -0.180000       12.0110           0
     14682 MEMB     111      POPC     H4X      HAL2     0.900000E-01   1.00800           0
     14683 MEMB     111      POPC     H4Y      HAL2     0.900000E-01   1.00800           0
     14684 MEMB     111      POPC     C35      CTL2    -0.180000       12.0110           0
     14685 MEMB     111      POPC     H5X      HAL2     0.900000E-01   1.00800           0
     14686 MEMB     111      POPC     H5Y      HAL2     0.900000E-01   1.00800           0
     14687 MEMB     111      POPC     C36      CTL2    -0.180000       12.0110           0
     14688 MEMB     111      POPC     H6X      HAL2     0.900000E-01   1.00800           0
     14689 MEMB     111      POPC     H6Y      HAL2     0.900000E-01   1.00800           0
     14690 MEMB     111      POPC     C37      CTL2    -0.180000       12.0110           0
     14691 MEMB     111      POPC     H7X      HAL2     0.900000E-01   1.00800           0
     14692 MEMB     111      POPC     H7Y      HAL2     0.900000E-01   1.00800           0
     14693 MEMB     111      POPC     C38      CTL2    -0.180000       12.0110           0
     14694 MEMB     111      POPC     H8X      HAL2     0.900000E-01   1.00800           0
     14695 MEMB     111      POPC     H8Y      HAL2     0.900000E-01   1.00800           0
     14696 MEMB     111      POPC     C39      CTL2    -0.180000       12.0110           0
     14697 MEMB     111      POPC     H9X      HAL2     0.900000E-01   1.00800           0
     14698 MEMB     111      POPC     H9Y      HAL2     0.900000E-01   1.00800           0
     14699 MEMB     111      POPC     C310     CTL2    -0.180000       12.0110           0
     14700 MEMB     111      POPC     H10X     HAL2     0.900000E-01   1.00800           0
     14701 MEMB     111      POPC     H10Y     HAL2     0.900000E-01   1.00800           0
     14702 MEMB     111      POPC     C311     CTL2    -0.180000       12.0110           0
     14703 MEMB     111      POPC     H11X     HAL2     0.900000E-01   1.00800           0
     14704 MEMB     111      POPC     H11Y     HAL2     0.900000E-01   1.00800           0
     14705 MEMB     111      POPC     C312     CTL2    -0.180000       12.0110           0
     14706 MEMB     111      POPC     H12X     HAL2     0.900000E-01   1.00800           0
     14707 MEMB     111      POPC     H12Y     HAL2     0.900000E-01   1.00800           0
     14708 MEMB     111      POPC     C313     CTL2    -0.180000       12.0110           0
     14709 MEMB     111      POPC     H13X     HAL2     0.900000E-01   1.00800           0
     14710 MEMB     111      POPC     H13Y     HAL2     0.900000E-01   1.00800           0
     14711 MEMB     111      POPC     C314     CTL2    -0.180000       12.0110           0
     14712 MEMB     111      POPC     H14X     HAL2     0.900000E-01   1.00800           0
     14713 MEMB     111      POPC     H14Y     HAL2     0.900000E-01   1.00800           0
     14714 MEMB     111      POPC     C315     CTL2    -0.180000       12.0110           0
     14715 MEMB     111      POPC     H15X     HAL2     0.900000E-01   1.00800           0
     14716 MEMB     111      POPC     H15Y     HAL2     0.900000E-01   1.00800           0
     14717 MEMB     111      POPC     C316     CTL3    -0.270000       12.0110           0
     14718 MEMB     111      POPC     H16X     HAL3     0.900000E-01   1.00800           0
     14719 MEMB     111      POPC     H16Y     HAL3     0.900000E-01   1.00800           0
     14720 MEMB     111      POPC     H16Z     HAL3     0.900000E-01   1.00800           0
     14721 MEMB     112      POPC     N        NTL     -0.600000       14.0070           0
     14722 MEMB     112      POPC     C12      CTL2    -0.100000       12.0110           0
     14723 MEMB     112      POPC     H12A     HL       0.250000       1.00800           0
     14724 MEMB     112      POPC     H12B     HL       0.250000       1.00800           0
     14725 MEMB     112      POPC     C13      CTL5    -0.350000       12.0110           0
     14726 MEMB     112      POPC     H13A     HL       0.250000       1.00800           0
     14727 MEMB     112      POPC     H13B     HL       0.250000       1.00800           0
     14728 MEMB     112      POPC     H13C     HL       0.250000       1.00800           0
     14729 MEMB     112      POPC     C14      CTL5    -0.350000       12.0110           0
     14730 MEMB     112      POPC     H14A     HL       0.250000       1.00800           0
     14731 MEMB     112      POPC     H14B     HL       0.250000       1.00800           0
     14732 MEMB     112      POPC     H14C     HL       0.250000       1.00800           0
     14733 MEMB     112      POPC     C15      CTL5    -0.350000       12.0110           0
     14734 MEMB     112      POPC     H15A     HL       0.250000       1.00800           0
     14735 MEMB     112      POPC     H15B     HL       0.250000       1.00800           0
     14736 MEMB     112      POPC     H15C     HL       0.250000       1.00800           0
     14737 MEMB     112      POPC     C11      CTL2    -0.800000E-01   12.0110           0
     14738 MEMB     112      POPC     H11A     HAL2     0.900000E-01   1.00800           0
     14739 MEMB     112      POPC     H11B     HAL2     0.900000E-01   1.00800           0
     14740 MEMB     112      POPC     P        PL        1.50000       30.9740           0
     14741 MEMB     112      POPC     O13      O2L     -0.780000       15.9994           0
     14742 MEMB     112      POPC     O14      O2L     -0.780000       15.9994           0
     14743 MEMB     112      POPC     O12      OSLP    -0.570000       15.9994           0
     14744 MEMB     112      POPC     O11      OSLP    -0.570000       15.9994           0
     14745 MEMB     112      POPC     C1       CTL2    -0.800000E-01   12.0110           0
     14746 MEMB     112      POPC     HA       HAL2     0.900000E-01   1.00800           0
     14747 MEMB     112      POPC     HB       HAL2     0.900000E-01   1.00800           0
     14748 MEMB     112      POPC     C2       CTL1     0.170000       12.0110           0
     14749 MEMB     112      POPC     HS       HAL1     0.900000E-01   1.00800           0
     14750 MEMB     112      POPC     O21      OSL     -0.490000       15.9994           0
     14751 MEMB     112      POPC     C21      CL       0.900000       12.0110           0
     14752 MEMB     112      POPC     O22      OBL     -0.630000       15.9994           0
     14753 MEMB     112      POPC     C22      CTL2    -0.220000       12.0110           0
     14754 MEMB     112      POPC     H2R      HAL2     0.900000E-01   1.00800           0
     14755 MEMB     112      POPC     H2S      HAL2     0.900000E-01   1.00800           0
     14756 MEMB     112      POPC     C3       CTL2     0.800000E-01   12.0110           0
     14757 MEMB     112      POPC     HX       HAL2     0.900000E-01   1.00800           0
     14758 MEMB     112      POPC     HY       HAL2     0.900000E-01   1.00800           0
     14759 MEMB     112      POPC     O31      OSL     -0.490000       15.9994           0
     14760 MEMB     112      POPC     C31      CL       0.900000       12.0110           0
     14761 MEMB     112      POPC     O32      OBL     -0.630000       15.9994           0
     14762 MEMB     112      POPC     C32      CTL2    -0.220000       12.0110           0
     14763 MEMB     112      POPC     H2X      HAL2     0.900000E-01   1.00800           0
     14764 MEMB     112      POPC     H2Y      HAL2     0.900000E-01   1.00800           0
     14765 MEMB     112      POPC     C23      CTL2    -0.180000       12.0110           0
     14766 MEMB     112      POPC     H3R      HAL2     0.900000E-01   1.00800           0
     14767 MEMB     112      POPC     H3S      HAL2     0.900000E-01   1.00800           0
     14768 MEMB     112      POPC     C24      CTL2    -0.180000       12.0110           0
     14769 MEMB     112      POPC     H4R      HAL2     0.900000E-01   1.00800           0
     14770 MEMB     112      POPC     H4S      HAL2     0.900000E-01   1.00800           0
     14771 MEMB     112      POPC     C25      CTL2    -0.180000       12.0110           0
     14772 MEMB     112      POPC     H5R      HAL2     0.900000E-01   1.00800           0
     14773 MEMB     112      POPC     H5S      HAL2     0.900000E-01   1.00800           0
     14774 MEMB     112      POPC     C26      CTL2    -0.180000       12.0110           0
     14775 MEMB     112      POPC     H6R      HAL2     0.900000E-01   1.00800           0
     14776 MEMB     112      POPC     H6S      HAL2     0.900000E-01   1.00800           0
     14777 MEMB     112      POPC     C27      CTL2    -0.180000       12.0110           0
     14778 MEMB     112      POPC     H7R      HAL2     0.900000E-01   1.00800           0
     14779 MEMB     112      POPC     H7S      HAL2     0.900000E-01   1.00800           0
     14780 MEMB     112      POPC     C28      CTL2    -0.180000       12.0110           0
     14781 MEMB     112      POPC     H8R      HAL2     0.900000E-01   1.00800           0
     14782 MEMB     112      POPC     H8S      HAL2     0.900000E-01   1.00800           0
     14783 MEMB     112      POPC     C29      CEL1    -0.150000       12.0110           0
     14784 MEMB     112      POPC     H91      HEL1     0.150000       1.00800           0
     14785 MEMB     112      POPC     C210     CEL1    -0.150000       12.0110           0
     14786 MEMB     112      POPC     H101     HEL1     0.150000       1.00800           0
     14787 MEMB     112      POPC     C211     CTL2    -0.180000       12.0110           0
     14788 MEMB     112      POPC     H11R     HAL2     0.900000E-01   1.00800           0
     14789 MEMB     112      POPC     H11S     HAL2     0.900000E-01   1.00800           0
     14790 MEMB     112      POPC     C212     CTL2    -0.180000       12.0110           0
     14791 MEMB     112      POPC     H12R     HAL2     0.900000E-01   1.00800           0
     14792 MEMB     112      POPC     H12S     HAL2     0.900000E-01   1.00800           0
     14793 MEMB     112      POPC     C213     CTL2    -0.180000       12.0110           0
     14794 MEMB     112      POPC     H13R     HAL2     0.900000E-01   1.00800           0
     14795 MEMB     112      POPC     H13S     HAL2     0.900000E-01   1.00800           0
     14796 MEMB     112      POPC     C214     CTL2    -0.180000       12.0110           0
     14797 MEMB     112      POPC     H14R     HAL2     0.900000E-01   1.00800           0
     14798 MEMB     112      POPC     H14S     HAL2     0.900000E-01   1.00800           0
     14799 MEMB     112      POPC     C215     CTL2    -0.180000       12.0110           0
     14800 MEMB     112      POPC     H15R     HAL2     0.900000E-01   1.00800           0
     14801 MEMB     112      POPC     H15S     HAL2     0.900000E-01   1.00800           0
     14802 MEMB     112      POPC     C216     CTL2    -0.180000       12.0110           0
     14803 MEMB     112      POPC     H16R     HAL2     0.900000E-01   1.00800           0
     14804 MEMB     112      POPC     H16S     HAL2     0.900000E-01   1.00800           0
     14805 MEMB     112      POPC     C217     CTL2    -0.180000       12.0110           0
     14806 MEMB     112      POPC     H17R     HAL2     0.900000E-01   1.00800           0
     14807 MEMB     112      POPC     H17S     HAL2     0.900000E-01   1.00800           0
     14808 MEMB     112      POPC     C218     CTL3    -0.270000       12.0110           0
     14809 MEMB     112      POPC     H18R     HAL3     0.900000E-01   1.00800           0
     14810 MEMB     112      POPC     H18S     HAL3     0.900000E-01   1.00800           0
     14811 MEMB     112      POPC     H18T     HAL3     0.900000E-01   1.00800           0
     14812 MEMB     112      POPC     C33      CTL2    -0.180000       12.0110           0
     14813 MEMB     112      POPC     H3X      HAL2     0.900000E-01   1.00800           0
     14814 MEMB     112      POPC     H3Y      HAL2     0.900000E-01   1.00800           0
     14815 MEMB     112      POPC     C34      CTL2    -0.180000       12.0110           0
     14816 MEMB     112      POPC     H4X      HAL2     0.900000E-01   1.00800           0
     14817 MEMB     112      POPC     H4Y      HAL2     0.900000E-01   1.00800           0
     14818 MEMB     112      POPC     C35      CTL2    -0.180000       12.0110           0
     14819 MEMB     112      POPC     H5X      HAL2     0.900000E-01   1.00800           0
     14820 MEMB     112      POPC     H5Y      HAL2     0.900000E-01   1.00800           0
     14821 MEMB     112      POPC     C36      CTL2    -0.180000       12.0110           0
     14822 MEMB     112      POPC     H6X      HAL2     0.900000E-01   1.00800           0
     14823 MEMB     112      POPC     H6Y      HAL2     0.900000E-01   1.00800           0
     14824 MEMB     112      POPC     C37      CTL2    -0.180000       12.0110           0
     14825 MEMB     112      POPC     H7X      HAL2     0.900000E-01   1.00800           0
     14826 MEMB     112      POPC     H7Y      HAL2     0.900000E-01   1.00800           0
     14827 MEMB     112      POPC     C38      CTL2    -0.180000       12.0110           0
     14828 MEMB     112      POPC     H8X      HAL2     0.900000E-01   1.00800           0
     14829 MEMB     112      POPC     H8Y      HAL2     0.900000E-01   1.00800           0
     14830 MEMB     112      POPC     C39      CTL2    -0.180000       12.0110           0
     14831 MEMB     112      POPC     H9X      HAL2     0.900000E-01   1.00800           0
     14832 MEMB     112      POPC     H9Y      HAL2     0.900000E-01   1.00800           0
     14833 MEMB     112      POPC     C310     CTL2    -0.180000       12.0110           0
     14834 MEMB     112      POPC     H10X     HAL2     0.900000E-01   1.00800           0
     14835 MEMB     112      POPC     H10Y     HAL2     0.900000E-01   1.00800           0
     14836 MEMB     112      POPC     C311     CTL2    -0.180000       12.0110           0
     14837 MEMB     112      POPC     H11X     HAL2     0.900000E-01   1.00800           0
     14838 MEMB     112      POPC     H11Y     HAL2     0.900000E-01   1.00800           0
     14839 MEMB     112      POPC     C312     CTL2    -0.180000       12.0110           0
     14840 MEMB     112      POPC     H12X     HAL2     0.900000E-01   1.00800           0
     14841 MEMB     112      POPC     H12Y     HAL2     0.900000E-01   1.00800           0
     14842 MEMB     112      POPC     C313     CTL2    -0.180000       12.0110           0
     14843 MEMB     112      POPC     H13X     HAL2     0.900000E-01   1.00800           0
     14844 MEMB     112      POPC     H13Y     HAL2     0.900000E-01   1.00800           0
     14845 MEMB     112      POPC     C314     CTL2    -0.180000       12.0110           0
     14846 MEMB     112      POPC     H14X     HAL2     0.900000E-01   1.00800           0
     14847 MEMB     112      POPC     H14Y     HAL2     0.900000E-01   1.00800           0
     14848 MEMB     112      POPC     C315     CTL2    -0.180000       12.0110           0
     14849 MEMB     112      POPC     H15X     HAL2     0.900000E-01   1.00800           0
     14850 MEMB     112      POPC     H15Y     HAL2     0.900000E-01   1.00800           0
     14851 MEMB     112      POPC     C316     CTL3    -0.270000       12.0110           0
     14852 MEMB     112      POPC     H16X     HAL3     0.900000E-01   1.00800           0
     14853 MEMB     112      POPC     H16Y     HAL3     0.900000E-01   1.00800           0
     14854 MEMB     112      POPC     H16Z     HAL3     0.900000E-01   1.00800           0
     14855 MEMB     113      POPC     N        NTL     -0.600000       14.0070           0
     14856 MEMB     113      POPC     C12      CTL2    -0.100000       12.0110           0
     14857 MEMB     113      POPC     H12A     HL       0.250000       1.00800           0
     14858 MEMB     113      POPC     H12B     HL       0.250000       1.00800           0
     14859 MEMB     113      POPC     C13      CTL5    -0.350000       12.0110           0
     14860 MEMB     113      POPC     H13A     HL       0.250000       1.00800           0
     14861 MEMB     113      POPC     H13B     HL       0.250000       1.00800           0
     14862 MEMB     113      POPC     H13C     HL       0.250000       1.00800           0
     14863 MEMB     113      POPC     C14      CTL5    -0.350000       12.0110           0
     14864 MEMB     113      POPC     H14A     HL       0.250000       1.00800           0
     14865 MEMB     113      POPC     H14B     HL       0.250000       1.00800           0
     14866 MEMB     113      POPC     H14C     HL       0.250000       1.00800           0
     14867 MEMB     113      POPC     C15      CTL5    -0.350000       12.0110           0
     14868 MEMB     113      POPC     H15A     HL       0.250000       1.00800           0
     14869 MEMB     113      POPC     H15B     HL       0.250000       1.00800           0
     14870 MEMB     113      POPC     H15C     HL       0.250000       1.00800           0
     14871 MEMB     113      POPC     C11      CTL2    -0.800000E-01   12.0110           0
     14872 MEMB     113      POPC     H11A     HAL2     0.900000E-01   1.00800           0
     14873 MEMB     113      POPC     H11B     HAL2     0.900000E-01   1.00800           0
     14874 MEMB     113      POPC     P        PL        1.50000       30.9740           0
     14875 MEMB     113      POPC     O13      O2L     -0.780000       15.9994           0
     14876 MEMB     113      POPC     O14      O2L     -0.780000       15.9994           0
     14877 MEMB     113      POPC     O12      OSLP    -0.570000       15.9994           0
     14878 MEMB     113      POPC     O11      OSLP    -0.570000       15.9994           0
     14879 MEMB     113      POPC     C1       CTL2    -0.800000E-01   12.0110           0
     14880 MEMB     113      POPC     HA       HAL2     0.900000E-01   1.00800           0
     14881 MEMB     113      POPC     HB       HAL2     0.900000E-01   1.00800           0
     14882 MEMB     113      POPC     C2       CTL1     0.170000       12.0110           0
     14883 MEMB     113      POPC     HS       HAL1     0.900000E-01   1.00800           0
     14884 MEMB     113      POPC     O21      OSL     -0.490000       15.9994           0
     14885 MEMB     113      POPC     C21      CL       0.900000       12.0110           0
     14886 MEMB     113      POPC     O22      OBL     -0.630000       15.9994           0
     14887 MEMB     113      POPC     C22      CTL2    -0.220000       12.0110           0
     14888 MEMB     113      POPC     H2R      HAL2     0.900000E-01   1.00800           0
     14889 MEMB     113      POPC     H2S      HAL2     0.900000E-01   1.00800           0
     14890 MEMB     113      POPC     C3       CTL2     0.800000E-01   12.0110           0
     14891 MEMB     113      POPC     HX       HAL2     0.900000E-01   1.00800           0
     14892 MEMB     113      POPC     HY       HAL2     0.900000E-01   1.00800           0
     14893 MEMB     113      POPC     O31      OSL     -0.490000       15.9994           0
     14894 MEMB     113      POPC     C31      CL       0.900000       12.0110           0
     14895 MEMB     113      POPC     O32      OBL     -0.630000       15.9994           0
     14896 MEMB     113      POPC     C32      CTL2    -0.220000       12.0110           0
     14897 MEMB     113      POPC     H2X      HAL2     0.900000E-01   1.00800           0
     14898 MEMB     113      POPC     H2Y      HAL2     0.900000E-01   1.00800           0
     14899 MEMB     113      POPC     C23      CTL2    -0.180000       12.0110           0
     14900 MEMB     113      POPC     H3R      HAL2     0.900000E-01   1.00800           0
     14901 MEMB     113      POPC     H3S      HAL2     0.900000E-01   1.00800           0
     14902 MEMB     113      POPC     C24      CTL2    -0.180000       12.0110           0
     14903 MEMB     113      POPC     H4R      HAL2     0.900000E-01   1.00800           0
     14904 MEMB     113      POPC     H4S      HAL2     0.900000E-01   1.00800           0
     14905 MEMB     113      POPC     C25      CTL2    -0.180000       12.0110           0
     14906 MEMB     113      POPC     H5R      HAL2     0.900000E-01   1.00800           0
     14907 MEMB     113      POPC     H5S      HAL2     0.900000E-01   1.00800           0
     14908 MEMB     113      POPC     C26      CTL2    -0.180000       12.0110           0
     14909 MEMB     113      POPC     H6R      HAL2     0.900000E-01   1.00800           0
     14910 MEMB     113      POPC     H6S      HAL2     0.900000E-01   1.00800           0
     14911 MEMB     113      POPC     C27      CTL2    -0.180000       12.0110           0
     14912 MEMB     113      POPC     H7R      HAL2     0.900000E-01   1.00800           0
     14913 MEMB     113      POPC     H7S      HAL2     0.900000E-01   1.00800           0
     14914 MEMB     113      POPC     C28      CTL2    -0.180000       12.0110           0
     14915 MEMB     113      POPC     H8R      HAL2     0.900000E-01   1.00800           0
     14916 MEMB     113      POPC     H8S      HAL2     0.900000E-01   1.00800           0
     14917 MEMB     113      POPC     C29      CEL1    -0.150000       12.0110           0
     14918 MEMB     113      POPC     H91      HEL1     0.150000       1.00800           0
     14919 MEMB     113      POPC     C210     CEL1    -0.150000       12.0110           0
     14920 MEMB     113      POPC     H101     HEL1     0.150000       1.00800           0
     14921 MEMB     113      POPC     C211     CTL2    -0.180000       12.0110           0
     14922 MEMB     113      POPC     H11R     HAL2     0.900000E-01   1.00800           0
     14923 MEMB     113      POPC     H11S     HAL2     0.900000E-01   1.00800           0
     14924 MEMB     113      POPC     C212     CTL2    -0.180000       12.0110           0
     14925 MEMB     113      POPC     H12R     HAL2     0.900000E-01   1.00800           0
     14926 MEMB     113      POPC     H12S     HAL2     0.900000E-01   1.00800           0
     14927 MEMB     113      POPC     C213     CTL2    -0.180000       12.0110           0
     14928 MEMB     113      POPC     H13R     HAL2     0.900000E-01   1.00800           0
     14929 MEMB     113      POPC     H13S     HAL2     0.900000E-01   1.00800           0
     14930 MEMB     113      POPC     C214     CTL2    -0.180000       12.0110           0
     14931 MEMB     113      POPC     H14R     HAL2     0.900000E-01   1.00800           0
     14932 MEMB     113      POPC     H14S     HAL2     0.900000E-01   1.00800           0
     14933 MEMB     113      POPC     C215     CTL2    -0.180000       12.0110           0
     14934 MEMB     113      POPC     H15R     HAL2     0.900000E-01   1.00800           0
     14935 MEMB     113      POPC     H15S     HAL2     0.900000E-01   1.00800           0
     14936 MEMB     113      POPC     C216     CTL2    -0.180000       12.0110           0
     14937 MEMB     113      POPC     H16R     HAL2     0.900000E-01   1.00800           0
     14938 MEMB     113      POPC     H16S     HAL2     0.900000E-01   1.00800           0
     14939 MEMB     113      POPC     C217     CTL2    -0.180000       12.0110           0
     14940 MEMB     113      POPC     H17R     HAL2     0.900000E-01   1.00800           0
     14941 MEMB     113      POPC     H17S     HAL2     0.900000E-01   1.00800           0
     14942 MEMB     113      POPC     C218     CTL3    -0.270000       12.0110           0
     14943 MEMB     113      POPC     H18R     HAL3     0.900000E-01   1.00800           0
     14944 MEMB     113      POPC     H18S     HAL3     0.900000E-01   1.00800           0
     14945 MEMB     113      POPC     H18T     HAL3     0.900000E-01   1.00800           0
     14946 MEMB     113      POPC     C33      CTL2    -0.180000       12.0110           0
     14947 MEMB     113      POPC     H3X      HAL2     0.900000E-01   1.00800           0
     14948 MEMB     113      POPC     H3Y      HAL2     0.900000E-01   1.00800           0
     14949 MEMB     113      POPC     C34      CTL2    -0.180000       12.0110           0
     14950 MEMB     113      POPC     H4X      HAL2     0.900000E-01   1.00800           0
     14951 MEMB     113      POPC     H4Y      HAL2     0.900000E-01   1.00800           0
     14952 MEMB     113      POPC     C35      CTL2    -0.180000       12.0110           0
     14953 MEMB     113      POPC     H5X      HAL2     0.900000E-01   1.00800           0
     14954 MEMB     113      POPC     H5Y      HAL2     0.900000E-01   1.00800           0
     14955 MEMB     113      POPC     C36      CTL2    -0.180000       12.0110           0
     14956 MEMB     113      POPC     H6X      HAL2     0.900000E-01   1.00800           0
     14957 MEMB     113      POPC     H6Y      HAL2     0.900000E-01   1.00800           0
     14958 MEMB     113      POPC     C37      CTL2    -0.180000       12.0110           0
     14959 MEMB     113      POPC     H7X      HAL2     0.900000E-01   1.00800           0
     14960 MEMB     113      POPC     H7Y      HAL2     0.900000E-01   1.00800           0
     14961 MEMB     113      POPC     C38      CTL2    -0.180000       12.0110           0
     14962 MEMB     113      POPC     H8X      HAL2     0.900000E-01   1.00800           0
     14963 MEMB     113      POPC     H8Y      HAL2     0.900000E-01   1.00800           0
     14964 MEMB     113      POPC     C39      CTL2    -0.180000       12.0110           0
     14965 MEMB     113      POPC     H9X      HAL2     0.900000E-01   1.00800           0
     14966 MEMB     113      POPC     H9Y      HAL2     0.900000E-01   1.00800           0
     14967 MEMB     113      POPC     C310     CTL2    -0.180000       12.0110           0
     14968 MEMB     113      POPC     H10X     HAL2     0.900000E-01   1.00800           0
     14969 MEMB     113      POPC     H10Y     HAL2     0.900000E-01   1.00800           0
     14970 MEMB     113      POPC     C311     CTL2    -0.180000       12.0110           0
     14971 MEMB     113      POPC     H11X     HAL2     0.900000E-01   1.00800           0
     14972 MEMB     113      POPC     H11Y     HAL2     0.900000E-01   1.00800           0
     14973 MEMB     113      POPC     C312     CTL2    -0.180000       12.0110           0
     14974 MEMB     113      POPC     H12X     HAL2     0.900000E-01   1.00800           0
     14975 MEMB     113      POPC     H12Y     HAL2     0.900000E-01   1.00800           0
     14976 MEMB     113      POPC     C313     CTL2    -0.180000       12.0110           0
     14977 MEMB     113      POPC     H13X     HAL2     0.900000E-01   1.00800           0
     14978 MEMB     113      POPC     H13Y     HAL2     0.900000E-01   1.00800           0
     14979 MEMB     113      POPC     C314     CTL2    -0.180000       12.0110           0
     14980 MEMB     113      POPC     H14X     HAL2     0.900000E-01   1.00800           0
     14981 MEMB     113      POPC     H14Y     HAL2     0.900000E-01   1.00800           0
     14982 MEMB     113      POPC     C315     CTL2    -0.180000       12.0110           0
     14983 MEMB     113      POPC     H15X     HAL2     0.900000E-01   1.00800           0
     14984 MEMB     113      POPC     H15Y     HAL2     0.900000E-01   1.00800           0
     14985 MEMB     113      POPC     C316     CTL3    -0.270000       12.0110           0
     14986 MEMB     113      POPC     H16X     HAL3     0.900000E-01   1.00800           0
     14987 MEMB     113      POPC     H16Y     HAL3     0.900000E-01   1.00800           0
     14988 MEMB     113      POPC     H16Z     HAL3     0.900000E-01   1.00800           0
     14989 MEMB     114      POPS     N        NH3L    -0.300000       14.0070           0
     14990 MEMB     114      POPS     HN1      HCL      0.330000       1.00800           0
     14991 MEMB     114      POPS     HN2      HCL      0.330000       1.00800           0
     14992 MEMB     114      POPS     HN3      HCL      0.330000       1.00800           0
     14993 MEMB     114      POPS     C12      CTL1     0.210000       12.0110           0
     14994 MEMB     114      POPS     H12A     HBL      0.100000       1.00800           0
     14995 MEMB     114      POPS     C13      CCL      0.340000       12.0110           0
     14996 MEMB     114      POPS     O13A     OCL     -0.670000       15.9994           0
     14997 MEMB     114      POPS     O13B     OCL     -0.670000       15.9994           0
     14998 MEMB     114      POPS     C11      CTL2    -0.800000E-01   12.0110           0
     14999 MEMB     114      POPS     H11A     HAL2     0.900000E-01   1.00800           0
     15000 MEMB     114      POPS     H11B     HAL2     0.900000E-01   1.00800           0
     15001 MEMB     114      POPS     P        PL        1.50000       30.9740           0
     15002 MEMB     114      POPS     O13      O2L     -0.780000       15.9994           0
     15003 MEMB     114      POPS     O14      O2L     -0.780000       15.9994           0
     15004 MEMB     114      POPS     O12      OSLP    -0.570000       15.9994           0
     15005 MEMB     114      POPS     O11      OSLP    -0.570000       15.9994           0
     15006 MEMB     114      POPS     C1       CTL2    -0.800000E-01   12.0110           0
     15007 MEMB     114      POPS     HA       HAL2     0.900000E-01   1.00800           0
     15008 MEMB     114      POPS     HB       HAL2     0.900000E-01   1.00800           0
     15009 MEMB     114      POPS     C2       CTL1     0.170000       12.0110           0
     15010 MEMB     114      POPS     HS       HAL1     0.900000E-01   1.00800           0
     15011 MEMB     114      POPS     O21      OSL     -0.490000       15.9994           0
     15012 MEMB     114      POPS     C21      CL       0.900000       12.0110           0
     15013 MEMB     114      POPS     O22      OBL     -0.630000       15.9994           0
     15014 MEMB     114      POPS     C22      CTL2    -0.220000       12.0110           0
     15015 MEMB     114      POPS     H2R      HAL2     0.900000E-01   1.00800           0
     15016 MEMB     114      POPS     H2S      HAL2     0.900000E-01   1.00800           0
     15017 MEMB     114      POPS     C3       CTL2     0.800000E-01   12.0110           0
     15018 MEMB     114      POPS     HX       HAL2     0.900000E-01   1.00800           0
     15019 MEMB     114      POPS     HY       HAL2     0.900000E-01   1.00800           0
     15020 MEMB     114      POPS     O31      OSL     -0.490000       15.9994           0
     15021 MEMB     114      POPS     C31      CL       0.900000       12.0110           0
     15022 MEMB     114      POPS     O32      OBL     -0.630000       15.9994           0
     15023 MEMB     114      POPS     C32      CTL2    -0.220000       12.0110           0
     15024 MEMB     114      POPS     H2X      HAL2     0.900000E-01   1.00800           0
     15025 MEMB     114      POPS     H2Y      HAL2     0.900000E-01   1.00800           0
     15026 MEMB     114      POPS     C23      CTL2    -0.180000       12.0110           0
     15027 MEMB     114      POPS     H3R      HAL2     0.900000E-01   1.00800           0
     15028 MEMB     114      POPS     H3S      HAL2     0.900000E-01   1.00800           0
     15029 MEMB     114      POPS     C24      CTL2    -0.180000       12.0110           0
     15030 MEMB     114      POPS     H4R      HAL2     0.900000E-01   1.00800           0
     15031 MEMB     114      POPS     H4S      HAL2     0.900000E-01   1.00800           0
     15032 MEMB     114      POPS     C25      CTL2    -0.180000       12.0110           0
     15033 MEMB     114      POPS     H5R      HAL2     0.900000E-01   1.00800           0
     15034 MEMB     114      POPS     H5S      HAL2     0.900000E-01   1.00800           0
     15035 MEMB     114      POPS     C26      CTL2    -0.180000       12.0110           0
     15036 MEMB     114      POPS     H6R      HAL2     0.900000E-01   1.00800           0
     15037 MEMB     114      POPS     H6S      HAL2     0.900000E-01   1.00800           0
     15038 MEMB     114      POPS     C27      CTL2    -0.180000       12.0110           0
     15039 MEMB     114      POPS     H7R      HAL2     0.900000E-01   1.00800           0
     15040 MEMB     114      POPS     H7S      HAL2     0.900000E-01   1.00800           0
     15041 MEMB     114      POPS     C28      CTL2    -0.180000       12.0110           0
     15042 MEMB     114      POPS     H8R      HAL2     0.900000E-01   1.00800           0
     15043 MEMB     114      POPS     H8S      HAL2     0.900000E-01   1.00800           0
     15044 MEMB     114      POPS     C29      CEL1    -0.150000       12.0110           0
     15045 MEMB     114      POPS     H91      HEL1     0.150000       1.00800           0
     15046 MEMB     114      POPS     C210     CEL1    -0.150000       12.0110           0
     15047 MEMB     114      POPS     H101     HEL1     0.150000       1.00800           0
     15048 MEMB     114      POPS     C211     CTL2    -0.180000       12.0110           0
     15049 MEMB     114      POPS     H11R     HAL2     0.900000E-01   1.00800           0
     15050 MEMB     114      POPS     H11S     HAL2     0.900000E-01   1.00800           0
     15051 MEMB     114      POPS     C212     CTL2    -0.180000       12.0110           0
     15052 MEMB     114      POPS     H12R     HAL2     0.900000E-01   1.00800           0
     15053 MEMB     114      POPS     H12S     HAL2     0.900000E-01   1.00800           0
     15054 MEMB     114      POPS     C213     CTL2    -0.180000       12.0110           0
     15055 MEMB     114      POPS     H13R     HAL2     0.900000E-01   1.00800           0
     15056 MEMB     114      POPS     H13S     HAL2     0.900000E-01   1.00800           0
     15057 MEMB     114      POPS     C214     CTL2    -0.180000       12.0110           0
     15058 MEMB     114      POPS     H14R     HAL2     0.900000E-01   1.00800           0
     15059 MEMB     114      POPS     H14S     HAL2     0.900000E-01   1.00800           0
     15060 MEMB     114      POPS     C215     CTL2    -0.180000       12.0110           0
     15061 MEMB     114      POPS     H15R     HAL2     0.900000E-01   1.00800           0
     15062 MEMB     114      POPS     H15S     HAL2     0.900000E-01   1.00800           0
     15063 MEMB     114      POPS     C216     CTL2    -0.180000       12.0110           0
     15064 MEMB     114      POPS     H16R     HAL2     0.900000E-01   1.00800           0
     15065 MEMB     114      POPS     H16S     HAL2     0.900000E-01   1.00800           0
     15066 MEMB     114      POPS     C217     CTL2    -0.180000       12.0110           0
     15067 MEMB     114      POPS     H17R     HAL2     0.900000E-01   1.00800           0
     15068 MEMB     114      POPS     H17S     HAL2     0.900000E-01   1.00800           0
     15069 MEMB     114      POPS     C218     CTL3    -0.270000       12.0110           0
     15070 MEMB     114      POPS     H18R     HAL3     0.900000E-01   1.00800           0
     15071 MEMB     114      POPS     H18S     HAL3     0.900000E-01   1.00800           0
     15072 MEMB     114      POPS     H18T     HAL3     0.900000E-01   1.00800           0
     15073 MEMB     114      POPS     C33      CTL2    -0.180000       12.0110           0
     15074 MEMB     114      POPS     H3X      HAL2     0.900000E-01   1.00800           0
     15075 MEMB     114      POPS     H3Y      HAL2     0.900000E-01   1.00800           0
     15076 MEMB     114      POPS     C34      CTL2    -0.180000       12.0110           0
     15077 MEMB     114      POPS     H4X      HAL2     0.900000E-01   1.00800           0
     15078 MEMB     114      POPS     H4Y      HAL2     0.900000E-01   1.00800           0
     15079 MEMB     114      POPS     C35      CTL2    -0.180000       12.0110           0
     15080 MEMB     114      POPS     H5X      HAL2     0.900000E-01   1.00800           0
     15081 MEMB     114      POPS     H5Y      HAL2     0.900000E-01   1.00800           0
     15082 MEMB     114      POPS     C36      CTL2    -0.180000       12.0110           0
     15083 MEMB     114      POPS     H6X      HAL2     0.900000E-01   1.00800           0
     15084 MEMB     114      POPS     H6Y      HAL2     0.900000E-01   1.00800           0
     15085 MEMB     114      POPS     C37      CTL2    -0.180000       12.0110           0
     15086 MEMB     114      POPS     H7X      HAL2     0.900000E-01   1.00800           0
     15087 MEMB     114      POPS     H7Y      HAL2     0.900000E-01   1.00800           0
     15088 MEMB     114      POPS     C38      CTL2    -0.180000       12.0110           0
     15089 MEMB     114      POPS     H8X      HAL2     0.900000E-01   1.00800           0
     15090 MEMB     114      POPS     H8Y      HAL2     0.900000E-01   1.00800           0
     15091 MEMB     114      POPS     C39      CTL2    -0.180000       12.0110           0
     15092 MEMB     114      POPS     H9X      HAL2     0.900000E-01   1.00800           0
     15093 MEMB     114      POPS     H9Y      HAL2     0.900000E-01   1.00800           0
     15094 MEMB     114      POPS     C310     CTL2    -0.180000       12.0110           0
     15095 MEMB     114      POPS     H10X     HAL2     0.900000E-01   1.00800           0
     15096 MEMB     114      POPS     H10Y     HAL2     0.900000E-01   1.00800           0
     15097 MEMB     114      POPS     C311     CTL2    -0.180000       12.0110           0
     15098 MEMB     114      POPS     H11X     HAL2     0.900000E-01   1.00800           0
     15099 MEMB     114      POPS     H11Y     HAL2     0.900000E-01   1.00800           0
     15100 MEMB     114      POPS     C312     CTL2    -0.180000       12.0110           0
     15101 MEMB     114      POPS     H12X     HAL2     0.900000E-01   1.00800           0
     15102 MEMB     114      POPS     H12Y     HAL2     0.900000E-01   1.00800           0
     15103 MEMB     114      POPS     C313     CTL2    -0.180000       12.0110           0
     15104 MEMB     114      POPS     H13X     HAL2     0.900000E-01   1.00800           0
     15105 MEMB     114      POPS     H13Y     HAL2     0.900000E-01   1.00800           0
     15106 MEMB     114      POPS     C314     CTL2    -0.180000       12.0110           0
     15107 MEMB     114      POPS     H14X     HAL2     0.900000E-01   1.00800           0
     15108 MEMB     114      POPS     H14Y     HAL2     0.900000E-01   1.00800           0
     15109 MEMB     114      POPS     C315     CTL2    -0.180000       12.0110           0
     15110 MEMB     114      POPS     H15X     HAL2     0.900000E-01   1.00800           0
     15111 MEMB     114      POPS     H15Y     HAL2     0.900000E-01   1.00800           0
     15112 MEMB     114      POPS     C316     CTL3    -0.270000       12.0110           0
     15113 MEMB     114      POPS     H16X     HAL3     0.900000E-01   1.00800           0
     15114 MEMB     114      POPS     H16Y     HAL3     0.900000E-01   1.00800           0
     15115 MEMB     114      POPS     H16Z     HAL3     0.900000E-01   1.00800           0
     15116 MEMB     115      POPC     N        NTL     -0.600000       14.0070           0
     15117 MEMB     115      POPC     C12      CTL2    -0.100000       12.0110           0
     15118 MEMB     115      POPC     H12A     HL       0.250000       1.00800           0
     15119 MEMB     115      POPC     H12B     HL       0.250000       1.00800           0
     15120 MEMB     115      POPC     C13      CTL5    -0.350000       12.0110           0
     15121 MEMB     115      POPC     H13A     HL       0.250000       1.00800           0
     15122 MEMB     115      POPC     H13B     HL       0.250000       1.00800           0
     15123 MEMB     115      POPC     H13C     HL       0.250000       1.00800           0
     15124 MEMB     115      POPC     C14      CTL5    -0.350000       12.0110           0
     15125 MEMB     115      POPC     H14A     HL       0.250000       1.00800           0
     15126 MEMB     115      POPC     H14B     HL       0.250000       1.00800           0
     15127 MEMB     115      POPC     H14C     HL       0.250000       1.00800           0
     15128 MEMB     115      POPC     C15      CTL5    -0.350000       12.0110           0
     15129 MEMB     115      POPC     H15A     HL       0.250000       1.00800           0
     15130 MEMB     115      POPC     H15B     HL       0.250000       1.00800           0
     15131 MEMB     115      POPC     H15C     HL       0.250000       1.00800           0
     15132 MEMB     115      POPC     C11      CTL2    -0.800000E-01   12.0110           0
     15133 MEMB     115      POPC     H11A     HAL2     0.900000E-01   1.00800           0
     15134 MEMB     115      POPC     H11B     HAL2     0.900000E-01   1.00800           0
     15135 MEMB     115      POPC     P        PL        1.50000       30.9740           0
     15136 MEMB     115      POPC     O13      O2L     -0.780000       15.9994           0
     15137 MEMB     115      POPC     O14      O2L     -0.780000       15.9994           0
     15138 MEMB     115      POPC     O12      OSLP    -0.570000       15.9994           0
     15139 MEMB     115      POPC     O11      OSLP    -0.570000       15.9994           0
     15140 MEMB     115      POPC     C1       CTL2    -0.800000E-01   12.0110           0
     15141 MEMB     115      POPC     HA       HAL2     0.900000E-01   1.00800           0
     15142 MEMB     115      POPC     HB       HAL2     0.900000E-01   1.00800           0
     15143 MEMB     115      POPC     C2       CTL1     0.170000       12.0110           0
     15144 MEMB     115      POPC     HS       HAL1     0.900000E-01   1.00800           0
     15145 MEMB     115      POPC     O21      OSL     -0.490000       15.9994           0
     15146 MEMB     115      POPC     C21      CL       0.900000       12.0110           0
     15147 MEMB     115      POPC     O22      OBL     -0.630000       15.9994           0
     15148 MEMB     115      POPC     C22      CTL2    -0.220000       12.0110           0
     15149 MEMB     115      POPC     H2R      HAL2     0.900000E-01   1.00800           0
     15150 MEMB     115      POPC     H2S      HAL2     0.900000E-01   1.00800           0
     15151 MEMB     115      POPC     C3       CTL2     0.800000E-01   12.0110           0
     15152 MEMB     115      POPC     HX       HAL2     0.900000E-01   1.00800           0
     15153 MEMB     115      POPC     HY       HAL2     0.900000E-01   1.00800           0
     15154 MEMB     115      POPC     O31      OSL     -0.490000       15.9994           0
     15155 MEMB     115      POPC     C31      CL       0.900000       12.0110           0
     15156 MEMB     115      POPC     O32      OBL     -0.630000       15.9994           0
     15157 MEMB     115      POPC     C32      CTL2    -0.220000       12.0110           0
     15158 MEMB     115      POPC     H2X      HAL2     0.900000E-01   1.00800           0
     15159 MEMB     115      POPC     H2Y      HAL2     0.900000E-01   1.00800           0
     15160 MEMB     115      POPC     C23      CTL2    -0.180000       12.0110           0
     15161 MEMB     115      POPC     H3R      HAL2     0.900000E-01   1.00800           0
     15162 MEMB     115      POPC     H3S      HAL2     0.900000E-01   1.00800           0
     15163 MEMB     115      POPC     C24      CTL2    -0.180000       12.0110           0
     15164 MEMB     115      POPC     H4R      HAL2     0.900000E-01   1.00800           0
     15165 MEMB     115      POPC     H4S      HAL2     0.900000E-01   1.00800           0
     15166 MEMB     115      POPC     C25      CTL2    -0.180000       12.0110           0
     15167 MEMB     115      POPC     H5R      HAL2     0.900000E-01   1.00800           0
     15168 MEMB     115      POPC     H5S      HAL2     0.900000E-01   1.00800           0
     15169 MEMB     115      POPC     C26      CTL2    -0.180000       12.0110           0
     15170 MEMB     115      POPC     H6R      HAL2     0.900000E-01   1.00800           0
     15171 MEMB     115      POPC     H6S      HAL2     0.900000E-01   1.00800           0
     15172 MEMB     115      POPC     C27      CTL2    -0.180000       12.0110           0
     15173 MEMB     115      POPC     H7R      HAL2     0.900000E-01   1.00800           0
     15174 MEMB     115      POPC     H7S      HAL2     0.900000E-01   1.00800           0
     15175 MEMB     115      POPC     C28      CTL2    -0.180000       12.0110           0
     15176 MEMB     115      POPC     H8R      HAL2     0.900000E-01   1.00800           0
     15177 MEMB     115      POPC     H8S      HAL2     0.900000E-01   1.00800           0
     15178 MEMB     115      POPC     C29      CEL1    -0.150000       12.0110           0
     15179 MEMB     115      POPC     H91      HEL1     0.150000       1.00800           0
     15180 MEMB     115      POPC     C210     CEL1    -0.150000       12.0110           0
     15181 MEMB     115      POPC     H101     HEL1     0.150000       1.00800           0
     15182 MEMB     115      POPC     C211     CTL2    -0.180000       12.0110           0
     15183 MEMB     115      POPC     H11R     HAL2     0.900000E-01   1.00800           0
     15184 MEMB     115      POPC     H11S     HAL2     0.900000E-01   1.00800           0
     15185 MEMB     115      POPC     C212     CTL2    -0.180000       12.0110           0
     15186 MEMB     115      POPC     H12R     HAL2     0.900000E-01   1.00800           0
     15187 MEMB     115      POPC     H12S     HAL2     0.900000E-01   1.00800           0
     15188 MEMB     115      POPC     C213     CTL2    -0.180000       12.0110           0
     15189 MEMB     115      POPC     H13R     HAL2     0.900000E-01   1.00800           0
     15190 MEMB     115      POPC     H13S     HAL2     0.900000E-01   1.00800           0
     15191 MEMB     115      POPC     C214     CTL2    -0.180000       12.0110           0
     15192 MEMB     115      POPC     H14R     HAL2     0.900000E-01   1.00800           0
     15193 MEMB     115      POPC     H14S     HAL2     0.900000E-01   1.00800           0
     15194 MEMB     115      POPC     C215     CTL2    -0.180000       12.0110           0
     15195 MEMB     115      POPC     H15R     HAL2     0.900000E-01   1.00800           0
     15196 MEMB     115      POPC     H15S     HAL2     0.900000E-01   1.00800           0
     15197 MEMB     115      POPC     C216     CTL2    -0.180000       12.0110           0
     15198 MEMB     115      POPC     H16R     HAL2     0.900000E-01   1.00800           0
     15199 MEMB     115      POPC     H16S     HAL2     0.900000E-01   1.00800           0
     15200 MEMB     115      POPC     C217     CTL2    -0.180000       12.0110           0
     15201 MEMB     115      POPC     H17R     HAL2     0.900000E-01   1.00800           0
     15202 MEMB     115      POPC     H17S     HAL2     0.900000E-01   1.00800           0
     15203 MEMB     115      POPC     C218     CTL3    -0.270000       12.0110           0
     15204 MEMB     115      POPC     H18R     HAL3     0.900000E-01   1.00800           0
     15205 MEMB     115      POPC     H18S     HAL3     0.900000E-01   1.00800           0
     15206 MEMB     115      POPC     H18T     HAL3     0.900000E-01   1.00800           0
     15207 MEMB     115      POPC     C33      CTL2    -0.180000       12.0110           0
     15208 MEMB     115      POPC     H3X      HAL2     0.900000E-01   1.00800           0
     15209 MEMB     115      POPC     H3Y      HAL2     0.900000E-01   1.00800           0
     15210 MEMB     115      POPC     C34      CTL2    -0.180000       12.0110           0
     15211 MEMB     115      POPC     H4X      HAL2     0.900000E-01   1.00800           0
     15212 MEMB     115      POPC     H4Y      HAL2     0.900000E-01   1.00800           0
     15213 MEMB     115      POPC     C35      CTL2    -0.180000       12.0110           0
     15214 MEMB     115      POPC     H5X      HAL2     0.900000E-01   1.00800           0
     15215 MEMB     115      POPC     H5Y      HAL2     0.900000E-01   1.00800           0
     15216 MEMB     115      POPC     C36      CTL2    -0.180000       12.0110           0
     15217 MEMB     115      POPC     H6X      HAL2     0.900000E-01   1.00800           0
     15218 MEMB     115      POPC     H6Y      HAL2     0.900000E-01   1.00800           0
     15219 MEMB     115      POPC     C37      CTL2    -0.180000       12.0110           0
     15220 MEMB     115      POPC     H7X      HAL2     0.900000E-01   1.00800           0
     15221 MEMB     115      POPC     H7Y      HAL2     0.900000E-01   1.00800           0
     15222 MEMB     115      POPC     C38      CTL2    -0.180000       12.0110           0
     15223 MEMB     115      POPC     H8X      HAL2     0.900000E-01   1.00800           0
     15224 MEMB     115      POPC     H8Y      HAL2     0.900000E-01   1.00800           0
     15225 MEMB     115      POPC     C39      CTL2    -0.180000       12.0110           0
     15226 MEMB     115      POPC     H9X      HAL2     0.900000E-01   1.00800           0
     15227 MEMB     115      POPC     H9Y      HAL2     0.900000E-01   1.00800           0
     15228 MEMB     115      POPC     C310     CTL2    -0.180000       12.0110           0
     15229 MEMB     115      POPC     H10X     HAL2     0.900000E-01   1.00800           0
     15230 MEMB     115      POPC     H10Y     HAL2     0.900000E-01   1.00800           0
     15231 MEMB     115      POPC     C311     CTL2    -0.180000       12.0110           0
     15232 MEMB     115      POPC     H11X     HAL2     0.900000E-01   1.00800           0
     15233 MEMB     115      POPC     H11Y     HAL2     0.900000E-01   1.00800           0
     15234 MEMB     115      POPC     C312     CTL2    -0.180000       12.0110           0
     15235 MEMB     115      POPC     H12X     HAL2     0.900000E-01   1.00800           0
     15236 MEMB     115      POPC     H12Y     HAL2     0.900000E-01   1.00800           0
     15237 MEMB     115      POPC     C313     CTL2    -0.180000       12.0110           0
     15238 MEMB     115      POPC     H13X     HAL2     0.900000E-01   1.00800           0
     15239 MEMB     115      POPC     H13Y     HAL2     0.900000E-01   1.00800           0
     15240 MEMB     115      POPC     C314     CTL2    -0.180000       12.0110           0
     15241 MEMB     115      POPC     H14X     HAL2     0.900000E-01   1.00800           0
     15242 MEMB     115      POPC     H14Y     HAL2     0.900000E-01   1.00800           0
     15243 MEMB     115      POPC     C315     CTL2    -0.180000       12.0110           0
     15244 MEMB     115      POPC     H15X     HAL2     0.900000E-01   1.00800           0
     15245 MEMB     115      POPC     H15Y     HAL2     0.900000E-01   1.00800           0
     15246 MEMB     115      POPC     C316     CTL3    -0.270000       12.0110           0
     15247 MEMB     115      POPC     H16X     HAL3     0.900000E-01   1.00800           0
     15248 MEMB     115      POPC     H16Y     HAL3     0.900000E-01   1.00800           0
     15249 MEMB     115      POPC     H16Z     HAL3     0.900000E-01   1.00800           0
     15250 MEMB     116      POPS     N        NH3L    -0.300000       14.0070           0
     15251 MEMB     116      POPS     HN1      HCL      0.330000       1.00800           0
     15252 MEMB     116      POPS     HN2      HCL      0.330000       1.00800           0
     15253 MEMB     116      POPS     HN3      HCL      0.330000       1.00800           0
     15254 MEMB     116      POPS     C12      CTL1     0.210000       12.0110           0
     15255 MEMB     116      POPS     H12A     HBL      0.100000       1.00800           0
     15256 MEMB     116      POPS     C13      CCL      0.340000       12.0110           0
     15257 MEMB     116      POPS     O13A     OCL     -0.670000       15.9994           0
     15258 MEMB     116      POPS     O13B     OCL     -0.670000       15.9994           0
     15259 MEMB     116      POPS     C11      CTL2    -0.800000E-01   12.0110           0
     15260 MEMB     116      POPS     H11A     HAL2     0.900000E-01   1.00800           0
     15261 MEMB     116      POPS     H11B     HAL2     0.900000E-01   1.00800           0
     15262 MEMB     116      POPS     P        PL        1.50000       30.9740           0
     15263 MEMB     116      POPS     O13      O2L     -0.780000       15.9994           0
     15264 MEMB     116      POPS     O14      O2L     -0.780000       15.9994           0
     15265 MEMB     116      POPS     O12      OSLP    -0.570000       15.9994           0
     15266 MEMB     116      POPS     O11      OSLP    -0.570000       15.9994           0
     15267 MEMB     116      POPS     C1       CTL2    -0.800000E-01   12.0110           0
     15268 MEMB     116      POPS     HA       HAL2     0.900000E-01   1.00800           0
     15269 MEMB     116      POPS     HB       HAL2     0.900000E-01   1.00800           0
     15270 MEMB     116      POPS     C2       CTL1     0.170000       12.0110           0
     15271 MEMB     116      POPS     HS       HAL1     0.900000E-01   1.00800           0
     15272 MEMB     116      POPS     O21      OSL     -0.490000       15.9994           0
     15273 MEMB     116      POPS     C21      CL       0.900000       12.0110           0
     15274 MEMB     116      POPS     O22      OBL     -0.630000       15.9994           0
     15275 MEMB     116      POPS     C22      CTL2    -0.220000       12.0110           0
     15276 MEMB     116      POPS     H2R      HAL2     0.900000E-01   1.00800           0
     15277 MEMB     116      POPS     H2S      HAL2     0.900000E-01   1.00800           0
     15278 MEMB     116      POPS     C3       CTL2     0.800000E-01   12.0110           0
     15279 MEMB     116      POPS     HX       HAL2     0.900000E-01   1.00800           0
     15280 MEMB     116      POPS     HY       HAL2     0.900000E-01   1.00800           0
     15281 MEMB     116      POPS     O31      OSL     -0.490000       15.9994           0
     15282 MEMB     116      POPS     C31      CL       0.900000       12.0110           0
     15283 MEMB     116      POPS     O32      OBL     -0.630000       15.9994           0
     15284 MEMB     116      POPS     C32      CTL2    -0.220000       12.0110           0
     15285 MEMB     116      POPS     H2X      HAL2     0.900000E-01   1.00800           0
     15286 MEMB     116      POPS     H2Y      HAL2     0.900000E-01   1.00800           0
     15287 MEMB     116      POPS     C23      CTL2    -0.180000       12.0110           0
     15288 MEMB     116      POPS     H3R      HAL2     0.900000E-01   1.00800           0
     15289 MEMB     116      POPS     H3S      HAL2     0.900000E-01   1.00800           0
     15290 MEMB     116      POPS     C24      CTL2    -0.180000       12.0110           0
     15291 MEMB     116      POPS     H4R      HAL2     0.900000E-01   1.00800           0
     15292 MEMB     116      POPS     H4S      HAL2     0.900000E-01   1.00800           0
     15293 MEMB     116      POPS     C25      CTL2    -0.180000       12.0110           0
     15294 MEMB     116      POPS     H5R      HAL2     0.900000E-01   1.00800           0
     15295 MEMB     116      POPS     H5S      HAL2     0.900000E-01   1.00800           0
     15296 MEMB     116      POPS     C26      CTL2    -0.180000       12.0110           0
     15297 MEMB     116      POPS     H6R      HAL2     0.900000E-01   1.00800           0
     15298 MEMB     116      POPS     H6S      HAL2     0.900000E-01   1.00800           0
     15299 MEMB     116      POPS     C27      CTL2    -0.180000       12.0110           0
     15300 MEMB     116      POPS     H7R      HAL2     0.900000E-01   1.00800           0
     15301 MEMB     116      POPS     H7S      HAL2     0.900000E-01   1.00800           0
     15302 MEMB     116      POPS     C28      CTL2    -0.180000       12.0110           0
     15303 MEMB     116      POPS     H8R      HAL2     0.900000E-01   1.00800           0
     15304 MEMB     116      POPS     H8S      HAL2     0.900000E-01   1.00800           0
     15305 MEMB     116      POPS     C29      CEL1    -0.150000       12.0110           0
     15306 MEMB     116      POPS     H91      HEL1     0.150000       1.00800           0
     15307 MEMB     116      POPS     C210     CEL1    -0.150000       12.0110           0
     15308 MEMB     116      POPS     H101     HEL1     0.150000       1.00800           0
     15309 MEMB     116      POPS     C211     CTL2    -0.180000       12.0110           0
     15310 MEMB     116      POPS     H11R     HAL2     0.900000E-01   1.00800           0
     15311 MEMB     116      POPS     H11S     HAL2     0.900000E-01   1.00800           0
     15312 MEMB     116      POPS     C212     CTL2    -0.180000       12.0110           0
     15313 MEMB     116      POPS     H12R     HAL2     0.900000E-01   1.00800           0
     15314 MEMB     116      POPS     H12S     HAL2     0.900000E-01   1.00800           0
     15315 MEMB     116      POPS     C213     CTL2    -0.180000       12.0110           0
     15316 MEMB     116      POPS     H13R     HAL2     0.900000E-01   1.00800           0
     15317 MEMB     116      POPS     H13S     HAL2     0.900000E-01   1.00800           0
     15318 MEMB     116      POPS     C214     CTL2    -0.180000       12.0110           0
     15319 MEMB     116      POPS     H14R     HAL2     0.900000E-01   1.00800           0
     15320 MEMB     116      POPS     H14S     HAL2     0.900000E-01   1.00800           0
     15321 MEMB     116      POPS     C215     CTL2    -0.180000       12.0110           0
     15322 MEMB     116      POPS     H15R     HAL2     0.900000E-01   1.00800           0
     15323 MEMB     116      POPS     H15S     HAL2     0.900000E-01   1.00800           0
     15324 MEMB     116      POPS     C216     CTL2    -0.180000       12.0110           0
     15325 MEMB     116      POPS     H16R     HAL2     0.900000E-01   1.00800           0
     15326 MEMB     116      POPS     H16S     HAL2     0.900000E-01   1.00800           0
     15327 MEMB     116      POPS     C217     CTL2    -0.180000       12.0110           0
     15328 MEMB     116      POPS     H17R     HAL2     0.900000E-01   1.00800           0
     15329 MEMB     116      POPS     H17S     HAL2     0.900000E-01   1.00800           0
     15330 MEMB     116      POPS     C218     CTL3    -0.270000       12.0110           0
     15331 MEMB     116      POPS     H18R     HAL3     0.900000E-01   1.00800           0
     15332 MEMB     116      POPS     H18S     HAL3     0.900000E-01   1.00800           0
     15333 MEMB     116      POPS     H18T     HAL3     0.900000E-01   1.00800           0
     15334 MEMB     116      POPS     C33      CTL2    -0.180000       12.0110           0
     15335 MEMB     116      POPS     H3X      HAL2     0.900000E-01   1.00800           0
     15336 MEMB     116      POPS     H3Y      HAL2     0.900000E-01   1.00800           0
     15337 MEMB     116      POPS     C34      CTL2    -0.180000       12.0110           0
     15338 MEMB     116      POPS     H4X      HAL2     0.900000E-01   1.00800           0
     15339 MEMB     116      POPS     H4Y      HAL2     0.900000E-01   1.00800           0
     15340 MEMB     116      POPS     C35      CTL2    -0.180000       12.0110           0
     15341 MEMB     116      POPS     H5X      HAL2     0.900000E-01   1.00800           0
     15342 MEMB     116      POPS     H5Y      HAL2     0.900000E-01   1.00800           0
     15343 MEMB     116      POPS     C36      CTL2    -0.180000       12.0110           0
     15344 MEMB     116      POPS     H6X      HAL2     0.900000E-01   1.00800           0
     15345 MEMB     116      POPS     H6Y      HAL2     0.900000E-01   1.00800           0
     15346 MEMB     116      POPS     C37      CTL2    -0.180000       12.0110           0
     15347 MEMB     116      POPS     H7X      HAL2     0.900000E-01   1.00800           0
     15348 MEMB     116      POPS     H7Y      HAL2     0.900000E-01   1.00800           0
     15349 MEMB     116      POPS     C38      CTL2    -0.180000       12.0110           0
     15350 MEMB     116      POPS     H8X      HAL2     0.900000E-01   1.00800           0
     15351 MEMB     116      POPS     H8Y      HAL2     0.900000E-01   1.00800           0
     15352 MEMB     116      POPS     C39      CTL2    -0.180000       12.0110           0
     15353 MEMB     116      POPS     H9X      HAL2     0.900000E-01   1.00800           0
     15354 MEMB     116      POPS     H9Y      HAL2     0.900000E-01   1.00800           0
     15355 MEMB     116      POPS     C310     CTL2    -0.180000       12.0110           0
     15356 MEMB     116      POPS     H10X     HAL2     0.900000E-01   1.00800           0
     15357 MEMB     116      POPS     H10Y     HAL2     0.900000E-01   1.00800           0
     15358 MEMB     116      POPS     C311     CTL2    -0.180000       12.0110           0
     15359 MEMB     116      POPS     H11X     HAL2     0.900000E-01   1.00800           0
     15360 MEMB     116      POPS     H11Y     HAL2     0.900000E-01   1.00800           0
     15361 MEMB     116      POPS     C312     CTL2    -0.180000       12.0110           0
     15362 MEMB     116      POPS     H12X     HAL2     0.900000E-01   1.00800           0
     15363 MEMB     116      POPS     H12Y     HAL2     0.900000E-01   1.00800           0
     15364 MEMB     116      POPS     C313     CTL2    -0.180000       12.0110           0
     15365 MEMB     116      POPS     H13X     HAL2     0.900000E-01   1.00800           0
     15366 MEMB     116      POPS     H13Y     HAL2     0.900000E-01   1.00800           0
     15367 MEMB     116      POPS     C314     CTL2    -0.180000       12.0110           0
     15368 MEMB     116      POPS     H14X     HAL2     0.900000E-01   1.00800           0
     15369 MEMB     116      POPS     H14Y     HAL2     0.900000E-01   1.00800           0
     15370 MEMB     116      POPS     C315     CTL2    -0.180000       12.0110           0
     15371 MEMB     116      POPS     H15X     HAL2     0.900000E-01   1.00800           0
     15372 MEMB     116      POPS     H15Y     HAL2     0.900000E-01   1.00800           0
     15373 MEMB     116      POPS     C316     CTL3    -0.270000       12.0110           0
     15374 MEMB     116      POPS     H16X     HAL3     0.900000E-01   1.00800           0
     15375 MEMB     116      POPS     H16Y     HAL3     0.900000E-01   1.00800           0
     15376 MEMB     116      POPS     H16Z     HAL3     0.900000E-01   1.00800           0
     15377 MEMB     117      POPC     N        NTL     -0.600000       14.0070           0
     15378 MEMB     117      POPC     C12      CTL2    -0.100000       12.0110           0
     15379 MEMB     117      POPC     H12A     HL       0.250000       1.00800           0
     15380 MEMB     117      POPC     H12B     HL       0.250000       1.00800           0
     15381 MEMB     117      POPC     C13      CTL5    -0.350000       12.0110           0
     15382 MEMB     117      POPC     H13A     HL       0.250000       1.00800           0
     15383 MEMB     117      POPC     H13B     HL       0.250000       1.00800           0
     15384 MEMB     117      POPC     H13C     HL       0.250000       1.00800           0
     15385 MEMB     117      POPC     C14      CTL5    -0.350000       12.0110           0
     15386 MEMB     117      POPC     H14A     HL       0.250000       1.00800           0
     15387 MEMB     117      POPC     H14B     HL       0.250000       1.00800           0
     15388 MEMB     117      POPC     H14C     HL       0.250000       1.00800           0
     15389 MEMB     117      POPC     C15      CTL5    -0.350000       12.0110           0
     15390 MEMB     117      POPC     H15A     HL       0.250000       1.00800           0
     15391 MEMB     117      POPC     H15B     HL       0.250000       1.00800           0
     15392 MEMB     117      POPC     H15C     HL       0.250000       1.00800           0
     15393 MEMB     117      POPC     C11      CTL2    -0.800000E-01   12.0110           0
     15394 MEMB     117      POPC     H11A     HAL2     0.900000E-01   1.00800           0
     15395 MEMB     117      POPC     H11B     HAL2     0.900000E-01   1.00800           0
     15396 MEMB     117      POPC     P        PL        1.50000       30.9740           0
     15397 MEMB     117      POPC     O13      O2L     -0.780000       15.9994           0
     15398 MEMB     117      POPC     O14      O2L     -0.780000       15.9994           0
     15399 MEMB     117      POPC     O12      OSLP    -0.570000       15.9994           0
     15400 MEMB     117      POPC     O11      OSLP    -0.570000       15.9994           0
     15401 MEMB     117      POPC     C1       CTL2    -0.800000E-01   12.0110           0
     15402 MEMB     117      POPC     HA       HAL2     0.900000E-01   1.00800           0
     15403 MEMB     117      POPC     HB       HAL2     0.900000E-01   1.00800           0
     15404 MEMB     117      POPC     C2       CTL1     0.170000       12.0110           0
     15405 MEMB     117      POPC     HS       HAL1     0.900000E-01   1.00800           0
     15406 MEMB     117      POPC     O21      OSL     -0.490000       15.9994           0
     15407 MEMB     117      POPC     C21      CL       0.900000       12.0110           0
     15408 MEMB     117      POPC     O22      OBL     -0.630000       15.9994           0
     15409 MEMB     117      POPC     C22      CTL2    -0.220000       12.0110           0
     15410 MEMB     117      POPC     H2R      HAL2     0.900000E-01   1.00800           0
     15411 MEMB     117      POPC     H2S      HAL2     0.900000E-01   1.00800           0
     15412 MEMB     117      POPC     C3       CTL2     0.800000E-01   12.0110           0
     15413 MEMB     117      POPC     HX       HAL2     0.900000E-01   1.00800           0
     15414 MEMB     117      POPC     HY       HAL2     0.900000E-01   1.00800           0
     15415 MEMB     117      POPC     O31      OSL     -0.490000       15.9994           0
     15416 MEMB     117      POPC     C31      CL       0.900000       12.0110           0
     15417 MEMB     117      POPC     O32      OBL     -0.630000       15.9994           0
     15418 MEMB     117      POPC     C32      CTL2    -0.220000       12.0110           0
     15419 MEMB     117      POPC     H2X      HAL2     0.900000E-01   1.00800           0
     15420 MEMB     117      POPC     H2Y      HAL2     0.900000E-01   1.00800           0
     15421 MEMB     117      POPC     C23      CTL2    -0.180000       12.0110           0
     15422 MEMB     117      POPC     H3R      HAL2     0.900000E-01   1.00800           0
     15423 MEMB     117      POPC     H3S      HAL2     0.900000E-01   1.00800           0
     15424 MEMB     117      POPC     C24      CTL2    -0.180000       12.0110           0
     15425 MEMB     117      POPC     H4R      HAL2     0.900000E-01   1.00800           0
     15426 MEMB     117      POPC     H4S      HAL2     0.900000E-01   1.00800           0
     15427 MEMB     117      POPC     C25      CTL2    -0.180000       12.0110           0
     15428 MEMB     117      POPC     H5R      HAL2     0.900000E-01   1.00800           0
     15429 MEMB     117      POPC     H5S      HAL2     0.900000E-01   1.00800           0
     15430 MEMB     117      POPC     C26      CTL2    -0.180000       12.0110           0
     15431 MEMB     117      POPC     H6R      HAL2     0.900000E-01   1.00800           0
     15432 MEMB     117      POPC     H6S      HAL2     0.900000E-01   1.00800           0
     15433 MEMB     117      POPC     C27      CTL2    -0.180000       12.0110           0
     15434 MEMB     117      POPC     H7R      HAL2     0.900000E-01   1.00800           0
     15435 MEMB     117      POPC     H7S      HAL2     0.900000E-01   1.00800           0
     15436 MEMB     117      POPC     C28      CTL2    -0.180000       12.0110           0
     15437 MEMB     117      POPC     H8R      HAL2     0.900000E-01   1.00800           0
     15438 MEMB     117      POPC     H8S      HAL2     0.900000E-01   1.00800           0
     15439 MEMB     117      POPC     C29      CEL1    -0.150000       12.0110           0
     15440 MEMB     117      POPC     H91      HEL1     0.150000       1.00800           0
     15441 MEMB     117      POPC     C210     CEL1    -0.150000       12.0110           0
     15442 MEMB     117      POPC     H101     HEL1     0.150000       1.00800           0
     15443 MEMB     117      POPC     C211     CTL2    -0.180000       12.0110           0
     15444 MEMB     117      POPC     H11R     HAL2     0.900000E-01   1.00800           0
     15445 MEMB     117      POPC     H11S     HAL2     0.900000E-01   1.00800           0
     15446 MEMB     117      POPC     C212     CTL2    -0.180000       12.0110           0
     15447 MEMB     117      POPC     H12R     HAL2     0.900000E-01   1.00800           0
     15448 MEMB     117      POPC     H12S     HAL2     0.900000E-01   1.00800           0
     15449 MEMB     117      POPC     C213     CTL2    -0.180000       12.0110           0
     15450 MEMB     117      POPC     H13R     HAL2     0.900000E-01   1.00800           0
     15451 MEMB     117      POPC     H13S     HAL2     0.900000E-01   1.00800           0
     15452 MEMB     117      POPC     C214     CTL2    -0.180000       12.0110           0
     15453 MEMB     117      POPC     H14R     HAL2     0.900000E-01   1.00800           0
     15454 MEMB     117      POPC     H14S     HAL2     0.900000E-01   1.00800           0
     15455 MEMB     117      POPC     C215     CTL2    -0.180000       12.0110           0
     15456 MEMB     117      POPC     H15R     HAL2     0.900000E-01   1.00800           0
     15457 MEMB     117      POPC     H15S     HAL2     0.900000E-01   1.00800           0
     15458 MEMB     117      POPC     C216     CTL2    -0.180000       12.0110           0
     15459 MEMB     117      POPC     H16R     HAL2     0.900000E-01   1.00800           0
     15460 MEMB     117      POPC     H16S     HAL2     0.900000E-01   1.00800           0
     15461 MEMB     117      POPC     C217     CTL2    -0.180000       12.0110           0
     15462 MEMB     117      POPC     H17R     HAL2     0.900000E-01   1.00800           0
     15463 MEMB     117      POPC     H17S     HAL2     0.900000E-01   1.00800           0
     15464 MEMB     117      POPC     C218     CTL3    -0.270000       12.0110           0
     15465 MEMB     117      POPC     H18R     HAL3     0.900000E-01   1.00800           0
     15466 MEMB     117      POPC     H18S     HAL3     0.900000E-01   1.00800           0
     15467 MEMB     117      POPC     H18T     HAL3     0.900000E-01   1.00800           0
     15468 MEMB     117      POPC     C33      CTL2    -0.180000       12.0110           0
     15469 MEMB     117      POPC     H3X      HAL2     0.900000E-01   1.00800           0
     15470 MEMB     117      POPC     H3Y      HAL2     0.900000E-01   1.00800           0
     15471 MEMB     117      POPC     C34      CTL2    -0.180000       12.0110           0
     15472 MEMB     117      POPC     H4X      HAL2     0.900000E-01   1.00800           0
     15473 MEMB     117      POPC     H4Y      HAL2     0.900000E-01   1.00800           0
     15474 MEMB     117      POPC     C35      CTL2    -0.180000       12.0110           0
     15475 MEMB     117      POPC     H5X      HAL2     0.900000E-01   1.00800           0
     15476 MEMB     117      POPC     H5Y      HAL2     0.900000E-01   1.00800           0
     15477 MEMB     117      POPC     C36      CTL2    -0.180000       12.0110           0
     15478 MEMB     117      POPC     H6X      HAL2     0.900000E-01   1.00800           0
     15479 MEMB     117      POPC     H6Y      HAL2     0.900000E-01   1.00800           0
     15480 MEMB     117      POPC     C37      CTL2    -0.180000       12.0110           0
     15481 MEMB     117      POPC     H7X      HAL2     0.900000E-01   1.00800           0
     15482 MEMB     117      POPC     H7Y      HAL2     0.900000E-01   1.00800           0
     15483 MEMB     117      POPC     C38      CTL2    -0.180000       12.0110           0
     15484 MEMB     117      POPC     H8X      HAL2     0.900000E-01   1.00800           0
     15485 MEMB     117      POPC     H8Y      HAL2     0.900000E-01   1.00800           0
     15486 MEMB     117      POPC     C39      CTL2    -0.180000       12.0110           0
     15487 MEMB     117      POPC     H9X      HAL2     0.900000E-01   1.00800           0
     15488 MEMB     117      POPC     H9Y      HAL2     0.900000E-01   1.00800           0
     15489 MEMB     117      POPC     C310     CTL2    -0.180000       12.0110           0
     15490 MEMB     117      POPC     H10X     HAL2     0.900000E-01   1.00800           0
     15491 MEMB     117      POPC     H10Y     HAL2     0.900000E-01   1.00800           0
     15492 MEMB     117      POPC     C311     CTL2    -0.180000       12.0110           0
     15493 MEMB     117      POPC     H11X     HAL2     0.900000E-01   1.00800           0
     15494 MEMB     117      POPC     H11Y     HAL2     0.900000E-01   1.00800           0
     15495 MEMB     117      POPC     C312     CTL2    -0.180000       12.0110           0
     15496 MEMB     117      POPC     H12X     HAL2     0.900000E-01   1.00800           0
     15497 MEMB     117      POPC     H12Y     HAL2     0.900000E-01   1.00800           0
     15498 MEMB     117      POPC     C313     CTL2    -0.180000       12.0110           0
     15499 MEMB     117      POPC     H13X     HAL2     0.900000E-01   1.00800           0
     15500 MEMB     117      POPC     H13Y     HAL2     0.900000E-01   1.00800           0
     15501 MEMB     117      POPC     C314     CTL2    -0.180000       12.0110           0
     15502 MEMB     117      POPC     H14X     HAL2     0.900000E-01   1.00800           0
     15503 MEMB     117      POPC     H14Y     HAL2     0.900000E-01   1.00800           0
     15504 MEMB     117      POPC     C315     CTL2    -0.180000       12.0110           0
     15505 MEMB     117      POPC     H15X     HAL2     0.900000E-01   1.00800           0
     15506 MEMB     117      POPC     H15Y     HAL2     0.900000E-01   1.00800           0
     15507 MEMB     117      POPC     C316     CTL3    -0.270000       12.0110           0
     15508 MEMB     117      POPC     H16X     HAL3     0.900000E-01   1.00800           0
     15509 MEMB     117      POPC     H16Y     HAL3     0.900000E-01   1.00800           0
     15510 MEMB     117      POPC     H16Z     HAL3     0.900000E-01   1.00800           0
     15511 MEMB     118      POPC     N        NTL     -0.600000       14.0070           0
     15512 MEMB     118      POPC     C12      CTL2    -0.100000       12.0110           0
     15513 MEMB     118      POPC     H12A     HL       0.250000       1.00800           0
     15514 MEMB     118      POPC     H12B     HL       0.250000       1.00800           0
     15515 MEMB     118      POPC     C13      CTL5    -0.350000       12.0110           0
     15516 MEMB     118      POPC     H13A     HL       0.250000       1.00800           0
     15517 MEMB     118      POPC     H13B     HL       0.250000       1.00800           0
     15518 MEMB     118      POPC     H13C     HL       0.250000       1.00800           0
     15519 MEMB     118      POPC     C14      CTL5    -0.350000       12.0110           0
     15520 MEMB     118      POPC     H14A     HL       0.250000       1.00800           0
     15521 MEMB     118      POPC     H14B     HL       0.250000       1.00800           0
     15522 MEMB     118      POPC     H14C     HL       0.250000       1.00800           0
     15523 MEMB     118      POPC     C15      CTL5    -0.350000       12.0110           0
     15524 MEMB     118      POPC     H15A     HL       0.250000       1.00800           0
     15525 MEMB     118      POPC     H15B     HL       0.250000       1.00800           0
     15526 MEMB     118      POPC     H15C     HL       0.250000       1.00800           0
     15527 MEMB     118      POPC     C11      CTL2    -0.800000E-01   12.0110           0
     15528 MEMB     118      POPC     H11A     HAL2     0.900000E-01   1.00800           0
     15529 MEMB     118      POPC     H11B     HAL2     0.900000E-01   1.00800           0
     15530 MEMB     118      POPC     P        PL        1.50000       30.9740           0
     15531 MEMB     118      POPC     O13      O2L     -0.780000       15.9994           0
     15532 MEMB     118      POPC     O14      O2L     -0.780000       15.9994           0
     15533 MEMB     118      POPC     O12      OSLP    -0.570000       15.9994           0
     15534 MEMB     118      POPC     O11      OSLP    -0.570000       15.9994           0
     15535 MEMB     118      POPC     C1       CTL2    -0.800000E-01   12.0110           0
     15536 MEMB     118      POPC     HA       HAL2     0.900000E-01   1.00800           0
     15537 MEMB     118      POPC     HB       HAL2     0.900000E-01   1.00800           0
     15538 MEMB     118      POPC     C2       CTL1     0.170000       12.0110           0
     15539 MEMB     118      POPC     HS       HAL1     0.900000E-01   1.00800           0
     15540 MEMB     118      POPC     O21      OSL     -0.490000       15.9994           0
     15541 MEMB     118      POPC     C21      CL       0.900000       12.0110           0
     15542 MEMB     118      POPC     O22      OBL     -0.630000       15.9994           0
     15543 MEMB     118      POPC     C22      CTL2    -0.220000       12.0110           0
     15544 MEMB     118      POPC     H2R      HAL2     0.900000E-01   1.00800           0
     15545 MEMB     118      POPC     H2S      HAL2     0.900000E-01   1.00800           0
     15546 MEMB     118      POPC     C3       CTL2     0.800000E-01   12.0110           0
     15547 MEMB     118      POPC     HX       HAL2     0.900000E-01   1.00800           0
     15548 MEMB     118      POPC     HY       HAL2     0.900000E-01   1.00800           0
     15549 MEMB     118      POPC     O31      OSL     -0.490000       15.9994           0
     15550 MEMB     118      POPC     C31      CL       0.900000       12.0110           0
     15551 MEMB     118      POPC     O32      OBL     -0.630000       15.9994           0
     15552 MEMB     118      POPC     C32      CTL2    -0.220000       12.0110           0
     15553 MEMB     118      POPC     H2X      HAL2     0.900000E-01   1.00800           0
     15554 MEMB     118      POPC     H2Y      HAL2     0.900000E-01   1.00800           0
     15555 MEMB     118      POPC     C23      CTL2    -0.180000       12.0110           0
     15556 MEMB     118      POPC     H3R      HAL2     0.900000E-01   1.00800           0
     15557 MEMB     118      POPC     H3S      HAL2     0.900000E-01   1.00800           0
     15558 MEMB     118      POPC     C24      CTL2    -0.180000       12.0110           0
     15559 MEMB     118      POPC     H4R      HAL2     0.900000E-01   1.00800           0
     15560 MEMB     118      POPC     H4S      HAL2     0.900000E-01   1.00800           0
     15561 MEMB     118      POPC     C25      CTL2    -0.180000       12.0110           0
     15562 MEMB     118      POPC     H5R      HAL2     0.900000E-01   1.00800           0
     15563 MEMB     118      POPC     H5S      HAL2     0.900000E-01   1.00800           0
     15564 MEMB     118      POPC     C26      CTL2    -0.180000       12.0110           0
     15565 MEMB     118      POPC     H6R      HAL2     0.900000E-01   1.00800           0
     15566 MEMB     118      POPC     H6S      HAL2     0.900000E-01   1.00800           0
     15567 MEMB     118      POPC     C27      CTL2    -0.180000       12.0110           0
     15568 MEMB     118      POPC     H7R      HAL2     0.900000E-01   1.00800           0
     15569 MEMB     118      POPC     H7S      HAL2     0.900000E-01   1.00800           0
     15570 MEMB     118      POPC     C28      CTL2    -0.180000       12.0110           0
     15571 MEMB     118      POPC     H8R      HAL2     0.900000E-01   1.00800           0
     15572 MEMB     118      POPC     H8S      HAL2     0.900000E-01   1.00800           0
     15573 MEMB     118      POPC     C29      CEL1    -0.150000       12.0110           0
     15574 MEMB     118      POPC     H91      HEL1     0.150000       1.00800           0
     15575 MEMB     118      POPC     C210     CEL1    -0.150000       12.0110           0
     15576 MEMB     118      POPC     H101     HEL1     0.150000       1.00800           0
     15577 MEMB     118      POPC     C211     CTL2    -0.180000       12.0110           0
     15578 MEMB     118      POPC     H11R     HAL2     0.900000E-01   1.00800           0
     15579 MEMB     118      POPC     H11S     HAL2     0.900000E-01   1.00800           0
     15580 MEMB     118      POPC     C212     CTL2    -0.180000       12.0110           0
     15581 MEMB     118      POPC     H12R     HAL2     0.900000E-01   1.00800           0
     15582 MEMB     118      POPC     H12S     HAL2     0.900000E-01   1.00800           0
     15583 MEMB     118      POPC     C213     CTL2    -0.180000       12.0110           0
     15584 MEMB     118      POPC     H13R     HAL2     0.900000E-01   1.00800           0
     15585 MEMB     118      POPC     H13S     HAL2     0.900000E-01   1.00800           0
     15586 MEMB     118      POPC     C214     CTL2    -0.180000       12.0110           0
     15587 MEMB     118      POPC     H14R     HAL2     0.900000E-01   1.00800           0
     15588 MEMB     118      POPC     H14S     HAL2     0.900000E-01   1.00800           0
     15589 MEMB     118      POPC     C215     CTL2    -0.180000       12.0110           0
     15590 MEMB     118      POPC     H15R     HAL2     0.900000E-01   1.00800           0
     15591 MEMB     118      POPC     H15S     HAL2     0.900000E-01   1.00800           0
     15592 MEMB     118      POPC     C216     CTL2    -0.180000       12.0110           0
     15593 MEMB     118      POPC     H16R     HAL2     0.900000E-01   1.00800           0
     15594 MEMB     118      POPC     H16S     HAL2     0.900000E-01   1.00800           0
     15595 MEMB     118      POPC     C217     CTL2    -0.180000       12.0110           0
     15596 MEMB     118      POPC     H17R     HAL2     0.900000E-01   1.00800           0
     15597 MEMB     118      POPC     H17S     HAL2     0.900000E-01   1.00800           0
     15598 MEMB     118      POPC     C218     CTL3    -0.270000       12.0110           0
     15599 MEMB     118      POPC     H18R     HAL3     0.900000E-01   1.00800           0
     15600 MEMB     118      POPC     H18S     HAL3     0.900000E-01   1.00800           0
     15601 MEMB     118      POPC     H18T     HAL3     0.900000E-01   1.00800           0
     15602 MEMB     118      POPC     C33      CTL2    -0.180000       12.0110           0
     15603 MEMB     118      POPC     H3X      HAL2     0.900000E-01   1.00800           0
     15604 MEMB     118      POPC     H3Y      HAL2     0.900000E-01   1.00800           0
     15605 MEMB     118      POPC     C34      CTL2    -0.180000       12.0110           0
     15606 MEMB     118      POPC     H4X      HAL2     0.900000E-01   1.00800           0
     15607 MEMB     118      POPC     H4Y      HAL2     0.900000E-01   1.00800           0
     15608 MEMB     118      POPC     C35      CTL2    -0.180000       12.0110           0
     15609 MEMB     118      POPC     H5X      HAL2     0.900000E-01   1.00800           0
     15610 MEMB     118      POPC     H5Y      HAL2     0.900000E-01   1.00800           0
     15611 MEMB     118      POPC     C36      CTL2    -0.180000       12.0110           0
     15612 MEMB     118      POPC     H6X      HAL2     0.900000E-01   1.00800           0
     15613 MEMB     118      POPC     H6Y      HAL2     0.900000E-01   1.00800           0
     15614 MEMB     118      POPC     C37      CTL2    -0.180000       12.0110           0
     15615 MEMB     118      POPC     H7X      HAL2     0.900000E-01   1.00800           0
     15616 MEMB     118      POPC     H7Y      HAL2     0.900000E-01   1.00800           0
     15617 MEMB     118      POPC     C38      CTL2    -0.180000       12.0110           0
     15618 MEMB     118      POPC     H8X      HAL2     0.900000E-01   1.00800           0
     15619 MEMB     118      POPC     H8Y      HAL2     0.900000E-01   1.00800           0
     15620 MEMB     118      POPC     C39      CTL2    -0.180000       12.0110           0
     15621 MEMB     118      POPC     H9X      HAL2     0.900000E-01   1.00800           0
     15622 MEMB     118      POPC     H9Y      HAL2     0.900000E-01   1.00800           0
     15623 MEMB     118      POPC     C310     CTL2    -0.180000       12.0110           0
     15624 MEMB     118      POPC     H10X     HAL2     0.900000E-01   1.00800           0
     15625 MEMB     118      POPC     H10Y     HAL2     0.900000E-01   1.00800           0
     15626 MEMB     118      POPC     C311     CTL2    -0.180000       12.0110           0
     15627 MEMB     118      POPC     H11X     HAL2     0.900000E-01   1.00800           0
     15628 MEMB     118      POPC     H11Y     HAL2     0.900000E-01   1.00800           0
     15629 MEMB     118      POPC     C312     CTL2    -0.180000       12.0110           0
     15630 MEMB     118      POPC     H12X     HAL2     0.900000E-01   1.00800           0
     15631 MEMB     118      POPC     H12Y     HAL2     0.900000E-01   1.00800           0
     15632 MEMB     118      POPC     C313     CTL2    -0.180000       12.0110           0
     15633 MEMB     118      POPC     H13X     HAL2     0.900000E-01   1.00800           0
     15634 MEMB     118      POPC     H13Y     HAL2     0.900000E-01   1.00800           0
     15635 MEMB     118      POPC     C314     CTL2    -0.180000       12.0110           0
     15636 MEMB     118      POPC     H14X     HAL2     0.900000E-01   1.00800           0
     15637 MEMB     118      POPC     H14Y     HAL2     0.900000E-01   1.00800           0
     15638 MEMB     118      POPC     C315     CTL2    -0.180000       12.0110           0
     15639 MEMB     118      POPC     H15X     HAL2     0.900000E-01   1.00800           0
     15640 MEMB     118      POPC     H15Y     HAL2     0.900000E-01   1.00800           0
     15641 MEMB     118      POPC     C316     CTL3    -0.270000       12.0110           0
     15642 MEMB     118      POPC     H16X     HAL3     0.900000E-01   1.00800           0
     15643 MEMB     118      POPC     H16Y     HAL3     0.900000E-01   1.00800           0
     15644 MEMB     118      POPC     H16Z     HAL3     0.900000E-01   1.00800           0
     15645 MEMB     119      POPS     N        NH3L    -0.300000       14.0070           0
     15646 MEMB     119      POPS     HN1      HCL      0.330000       1.00800           0
     15647 MEMB     119      POPS     HN2      HCL      0.330000       1.00800           0
     15648 MEMB     119      POPS     HN3      HCL      0.330000       1.00800           0
     15649 MEMB     119      POPS     C12      CTL1     0.210000       12.0110           0
     15650 MEMB     119      POPS     H12A     HBL      0.100000       1.00800           0
     15651 MEMB     119      POPS     C13      CCL      0.340000       12.0110           0
     15652 MEMB     119      POPS     O13A     OCL     -0.670000       15.9994           0
     15653 MEMB     119      POPS     O13B     OCL     -0.670000       15.9994           0
     15654 MEMB     119      POPS     C11      CTL2    -0.800000E-01   12.0110           0
     15655 MEMB     119      POPS     H11A     HAL2     0.900000E-01   1.00800           0
     15656 MEMB     119      POPS     H11B     HAL2     0.900000E-01   1.00800           0
     15657 MEMB     119      POPS     P        PL        1.50000       30.9740           0
     15658 MEMB     119      POPS     O13      O2L     -0.780000       15.9994           0
     15659 MEMB     119      POPS     O14      O2L     -0.780000       15.9994           0
     15660 MEMB     119      POPS     O12      OSLP    -0.570000       15.9994           0
     15661 MEMB     119      POPS     O11      OSLP    -0.570000       15.9994           0
     15662 MEMB     119      POPS     C1       CTL2    -0.800000E-01   12.0110           0
     15663 MEMB     119      POPS     HA       HAL2     0.900000E-01   1.00800           0
     15664 MEMB     119      POPS     HB       HAL2     0.900000E-01   1.00800           0
     15665 MEMB     119      POPS     C2       CTL1     0.170000       12.0110           0
     15666 MEMB     119      POPS     HS       HAL1     0.900000E-01   1.00800           0
     15667 MEMB     119      POPS     O21      OSL     -0.490000       15.9994           0
     15668 MEMB     119      POPS     C21      CL       0.900000       12.0110           0
     15669 MEMB     119      POPS     O22      OBL     -0.630000       15.9994           0
     15670 MEMB     119      POPS     C22      CTL2    -0.220000       12.0110           0
     15671 MEMB     119      POPS     H2R      HAL2     0.900000E-01   1.00800           0
     15672 MEMB     119      POPS     H2S      HAL2     0.900000E-01   1.00800           0
     15673 MEMB     119      POPS     C3       CTL2     0.800000E-01   12.0110           0
     15674 MEMB     119      POPS     HX       HAL2     0.900000E-01   1.00800           0
     15675 MEMB     119      POPS     HY       HAL2     0.900000E-01   1.00800           0
     15676 MEMB     119      POPS     O31      OSL     -0.490000       15.9994           0
     15677 MEMB     119      POPS     C31      CL       0.900000       12.0110           0
     15678 MEMB     119      POPS     O32      OBL     -0.630000       15.9994           0
     15679 MEMB     119      POPS     C32      CTL2    -0.220000       12.0110           0
     15680 MEMB     119      POPS     H2X      HAL2     0.900000E-01   1.00800           0
     15681 MEMB     119      POPS     H2Y      HAL2     0.900000E-01   1.00800           0
     15682 MEMB     119      POPS     C23      CTL2    -0.180000       12.0110           0
     15683 MEMB     119      POPS     H3R      HAL2     0.900000E-01   1.00800           0
     15684 MEMB     119      POPS     H3S      HAL2     0.900000E-01   1.00800           0
     15685 MEMB     119      POPS     C24      CTL2    -0.180000       12.0110           0
     15686 MEMB     119      POPS     H4R      HAL2     0.900000E-01   1.00800           0
     15687 MEMB     119      POPS     H4S      HAL2     0.900000E-01   1.00800           0
     15688 MEMB     119      POPS     C25      CTL2    -0.180000       12.0110           0
     15689 MEMB     119      POPS     H5R      HAL2     0.900000E-01   1.00800           0
     15690 MEMB     119      POPS     H5S      HAL2     0.900000E-01   1.00800           0
     15691 MEMB     119      POPS     C26      CTL2    -0.180000       12.0110           0
     15692 MEMB     119      POPS     H6R      HAL2     0.900000E-01   1.00800           0
     15693 MEMB     119      POPS     H6S      HAL2     0.900000E-01   1.00800           0
     15694 MEMB     119      POPS     C27      CTL2    -0.180000       12.0110           0
     15695 MEMB     119      POPS     H7R      HAL2     0.900000E-01   1.00800           0
     15696 MEMB     119      POPS     H7S      HAL2     0.900000E-01   1.00800           0
     15697 MEMB     119      POPS     C28      CTL2    -0.180000       12.0110           0
     15698 MEMB     119      POPS     H8R      HAL2     0.900000E-01   1.00800           0
     15699 MEMB     119      POPS     H8S      HAL2     0.900000E-01   1.00800           0
     15700 MEMB     119      POPS     C29      CEL1    -0.150000       12.0110           0
     15701 MEMB     119      POPS     H91      HEL1     0.150000       1.00800           0
     15702 MEMB     119      POPS     C210     CEL1    -0.150000       12.0110           0
     15703 MEMB     119      POPS     H101     HEL1     0.150000       1.00800           0
     15704 MEMB     119      POPS     C211     CTL2    -0.180000       12.0110           0
     15705 MEMB     119      POPS     H11R     HAL2     0.900000E-01   1.00800           0
     15706 MEMB     119      POPS     H11S     HAL2     0.900000E-01   1.00800           0
     15707 MEMB     119      POPS     C212     CTL2    -0.180000       12.0110           0
     15708 MEMB     119      POPS     H12R     HAL2     0.900000E-01   1.00800           0
     15709 MEMB     119      POPS     H12S     HAL2     0.900000E-01   1.00800           0
     15710 MEMB     119      POPS     C213     CTL2    -0.180000       12.0110           0
     15711 MEMB     119      POPS     H13R     HAL2     0.900000E-01   1.00800           0
     15712 MEMB     119      POPS     H13S     HAL2     0.900000E-01   1.00800           0
     15713 MEMB     119      POPS     C214     CTL2    -0.180000       12.0110           0
     15714 MEMB     119      POPS     H14R     HAL2     0.900000E-01   1.00800           0
     15715 MEMB     119      POPS     H14S     HAL2     0.900000E-01   1.00800           0
     15716 MEMB     119      POPS     C215     CTL2    -0.180000       12.0110           0
     15717 MEMB     119      POPS     H15R     HAL2     0.900000E-01   1.00800           0
     15718 MEMB     119      POPS     H15S     HAL2     0.900000E-01   1.00800           0
     15719 MEMB     119      POPS     C216     CTL2    -0.180000       12.0110           0
     15720 MEMB     119      POPS     H16R     HAL2     0.900000E-01   1.00800           0
     15721 MEMB     119      POPS     H16S     HAL2     0.900000E-01   1.00800           0
     15722 MEMB     119      POPS     C217     CTL2    -0.180000       12.0110           0
     15723 MEMB     119      POPS     H17R     HAL2     0.900000E-01   1.00800           0
     15724 MEMB     119      POPS     H17S     HAL2     0.900000E-01   1.00800           0
     15725 MEMB     119      POPS     C218     CTL3    -0.270000       12.0110           0
     15726 MEMB     119      POPS     H18R     HAL3     0.900000E-01   1.00800           0
     15727 MEMB     119      POPS     H18S     HAL3     0.900000E-01   1.00800           0
     15728 MEMB     119      POPS     H18T     HAL3     0.900000E-01   1.00800           0
     15729 MEMB     119      POPS     C33      CTL2    -0.180000       12.0110           0
     15730 MEMB     119      POPS     H3X      HAL2     0.900000E-01   1.00800           0
     15731 MEMB     119      POPS     H3Y      HAL2     0.900000E-01   1.00800           0
     15732 MEMB     119      POPS     C34      CTL2    -0.180000       12.0110           0
     15733 MEMB     119      POPS     H4X      HAL2     0.900000E-01   1.00800           0
     15734 MEMB     119      POPS     H4Y      HAL2     0.900000E-01   1.00800           0
     15735 MEMB     119      POPS     C35      CTL2    -0.180000       12.0110           0
     15736 MEMB     119      POPS     H5X      HAL2     0.900000E-01   1.00800           0
     15737 MEMB     119      POPS     H5Y      HAL2     0.900000E-01   1.00800           0
     15738 MEMB     119      POPS     C36      CTL2    -0.180000       12.0110           0
     15739 MEMB     119      POPS     H6X      HAL2     0.900000E-01   1.00800           0
     15740 MEMB     119      POPS     H6Y      HAL2     0.900000E-01   1.00800           0
     15741 MEMB     119      POPS     C37      CTL2    -0.180000       12.0110           0
     15742 MEMB     119      POPS     H7X      HAL2     0.900000E-01   1.00800           0
     15743 MEMB     119      POPS     H7Y      HAL2     0.900000E-01   1.00800           0
     15744 MEMB     119      POPS     C38      CTL2    -0.180000       12.0110           0
     15745 MEMB     119      POPS     H8X      HAL2     0.900000E-01   1.00800           0
     15746 MEMB     119      POPS     H8Y      HAL2     0.900000E-01   1.00800           0
     15747 MEMB     119      POPS     C39      CTL2    -0.180000       12.0110           0
     15748 MEMB     119      POPS     H9X      HAL2     0.900000E-01   1.00800           0
     15749 MEMB     119      POPS     H9Y      HAL2     0.900000E-01   1.00800           0
     15750 MEMB     119      POPS     C310     CTL2    -0.180000       12.0110           0
     15751 MEMB     119      POPS     H10X     HAL2     0.900000E-01   1.00800           0
     15752 MEMB     119      POPS     H10Y     HAL2     0.900000E-01   1.00800           0
     15753 MEMB     119      POPS     C311     CTL2    -0.180000       12.0110           0
     15754 MEMB     119      POPS     H11X     HAL2     0.900000E-01   1.00800           0
     15755 MEMB     119      POPS     H11Y     HAL2     0.900000E-01   1.00800           0
     15756 MEMB     119      POPS     C312     CTL2    -0.180000       12.0110           0
     15757 MEMB     119      POPS     H12X     HAL2     0.900000E-01   1.00800           0
     15758 MEMB     119      POPS     H12Y     HAL2     0.900000E-01   1.00800           0
     15759 MEMB     119      POPS     C313     CTL2    -0.180000       12.0110           0
     15760 MEMB     119      POPS     H13X     HAL2     0.900000E-01   1.00800           0
     15761 MEMB     119      POPS     H13Y     HAL2     0.900000E-01   1.00800           0
     15762 MEMB     119      POPS     C314     CTL2    -0.180000       12.0110           0
     15763 MEMB     119      POPS     H14X     HAL2     0.900000E-01   1.00800           0
     15764 MEMB     119      POPS     H14Y     HAL2     0.900000E-01   1.00800           0
     15765 MEMB     119      POPS     C315     CTL2    -0.180000       12.0110           0
     15766 MEMB     119      POPS     H15X     HAL2     0.900000E-01   1.00800           0
     15767 MEMB     119      POPS     H15Y     HAL2     0.900000E-01   1.00800           0
     15768 MEMB     119      POPS     C316     CTL3    -0.270000       12.0110           0
     15769 MEMB     119      POPS     H16X     HAL3     0.900000E-01   1.00800           0
     15770 MEMB     119      POPS     H16Y     HAL3     0.900000E-01   1.00800           0
     15771 MEMB     119      POPS     H16Z     HAL3     0.900000E-01   1.00800           0
     15772 MEMB     120      POPC     N        NTL     -0.600000       14.0070           0
     15773 MEMB     120      POPC     C12      CTL2    -0.100000       12.0110           0
     15774 MEMB     120      POPC     H12A     HL       0.250000       1.00800           0
     15775 MEMB     120      POPC     H12B     HL       0.250000       1.00800           0
     15776 MEMB     120      POPC     C13      CTL5    -0.350000       12.0110           0
     15777 MEMB     120      POPC     H13A     HL       0.250000       1.00800           0
     15778 MEMB     120      POPC     H13B     HL       0.250000       1.00800           0
     15779 MEMB     120      POPC     H13C     HL       0.250000       1.00800           0
     15780 MEMB     120      POPC     C14      CTL5    -0.350000       12.0110           0
     15781 MEMB     120      POPC     H14A     HL       0.250000       1.00800           0
     15782 MEMB     120      POPC     H14B     HL       0.250000       1.00800           0
     15783 MEMB     120      POPC     H14C     HL       0.250000       1.00800           0
     15784 MEMB     120      POPC     C15      CTL5    -0.350000       12.0110           0
     15785 MEMB     120      POPC     H15A     HL       0.250000       1.00800           0
     15786 MEMB     120      POPC     H15B     HL       0.250000       1.00800           0
     15787 MEMB     120      POPC     H15C     HL       0.250000       1.00800           0
     15788 MEMB     120      POPC     C11      CTL2    -0.800000E-01   12.0110           0
     15789 MEMB     120      POPC     H11A     HAL2     0.900000E-01   1.00800           0
     15790 MEMB     120      POPC     H11B     HAL2     0.900000E-01   1.00800           0
     15791 MEMB     120      POPC     P        PL        1.50000       30.9740           0
     15792 MEMB     120      POPC     O13      O2L     -0.780000       15.9994           0
     15793 MEMB     120      POPC     O14      O2L     -0.780000       15.9994           0
     15794 MEMB     120      POPC     O12      OSLP    -0.570000       15.9994           0
     15795 MEMB     120      POPC     O11      OSLP    -0.570000       15.9994           0
     15796 MEMB     120      POPC     C1       CTL2    -0.800000E-01   12.0110           0
     15797 MEMB     120      POPC     HA       HAL2     0.900000E-01   1.00800           0
     15798 MEMB     120      POPC     HB       HAL2     0.900000E-01   1.00800           0
     15799 MEMB     120      POPC     C2       CTL1     0.170000       12.0110           0
     15800 MEMB     120      POPC     HS       HAL1     0.900000E-01   1.00800           0
     15801 MEMB     120      POPC     O21      OSL     -0.490000       15.9994           0
     15802 MEMB     120      POPC     C21      CL       0.900000       12.0110           0
     15803 MEMB     120      POPC     O22      OBL     -0.630000       15.9994           0
     15804 MEMB     120      POPC     C22      CTL2    -0.220000       12.0110           0
     15805 MEMB     120      POPC     H2R      HAL2     0.900000E-01   1.00800           0
     15806 MEMB     120      POPC     H2S      HAL2     0.900000E-01   1.00800           0
     15807 MEMB     120      POPC     C3       CTL2     0.800000E-01   12.0110           0
     15808 MEMB     120      POPC     HX       HAL2     0.900000E-01   1.00800           0
     15809 MEMB     120      POPC     HY       HAL2     0.900000E-01   1.00800           0
     15810 MEMB     120      POPC     O31      OSL     -0.490000       15.9994           0
     15811 MEMB     120      POPC     C31      CL       0.900000       12.0110           0
     15812 MEMB     120      POPC     O32      OBL     -0.630000       15.9994           0
     15813 MEMB     120      POPC     C32      CTL2    -0.220000       12.0110           0
     15814 MEMB     120      POPC     H2X      HAL2     0.900000E-01   1.00800           0
     15815 MEMB     120      POPC     H2Y      HAL2     0.900000E-01   1.00800           0
     15816 MEMB     120      POPC     C23      CTL2    -0.180000       12.0110           0
     15817 MEMB     120      POPC     H3R      HAL2     0.900000E-01   1.00800           0
     15818 MEMB     120      POPC     H3S      HAL2     0.900000E-01   1.00800           0
     15819 MEMB     120      POPC     C24      CTL2    -0.180000       12.0110           0
     15820 MEMB     120      POPC     H4R      HAL2     0.900000E-01   1.00800           0
     15821 MEMB     120      POPC     H4S      HAL2     0.900000E-01   1.00800           0
     15822 MEMB     120      POPC     C25      CTL2    -0.180000       12.0110           0
     15823 MEMB     120      POPC     H5R      HAL2     0.900000E-01   1.00800           0
     15824 MEMB     120      POPC     H5S      HAL2     0.900000E-01   1.00800           0
     15825 MEMB     120      POPC     C26      CTL2    -0.180000       12.0110           0
     15826 MEMB     120      POPC     H6R      HAL2     0.900000E-01   1.00800           0
     15827 MEMB     120      POPC     H6S      HAL2     0.900000E-01   1.00800           0
     15828 MEMB     120      POPC     C27      CTL2    -0.180000       12.0110           0
     15829 MEMB     120      POPC     H7R      HAL2     0.900000E-01   1.00800           0
     15830 MEMB     120      POPC     H7S      HAL2     0.900000E-01   1.00800           0
     15831 MEMB     120      POPC     C28      CTL2    -0.180000       12.0110           0
     15832 MEMB     120      POPC     H8R      HAL2     0.900000E-01   1.00800           0
     15833 MEMB     120      POPC     H8S      HAL2     0.900000E-01   1.00800           0
     15834 MEMB     120      POPC     C29      CEL1    -0.150000       12.0110           0
     15835 MEMB     120      POPC     H91      HEL1     0.150000       1.00800           0
     15836 MEMB     120      POPC     C210     CEL1    -0.150000       12.0110           0
     15837 MEMB     120      POPC     H101     HEL1     0.150000       1.00800           0
     15838 MEMB     120      POPC     C211     CTL2    -0.180000       12.0110           0
     15839 MEMB     120      POPC     H11R     HAL2     0.900000E-01   1.00800           0
     15840 MEMB     120      POPC     H11S     HAL2     0.900000E-01   1.00800           0
     15841 MEMB     120      POPC     C212     CTL2    -0.180000       12.0110           0
     15842 MEMB     120      POPC     H12R     HAL2     0.900000E-01   1.00800           0
     15843 MEMB     120      POPC     H12S     HAL2     0.900000E-01   1.00800           0
     15844 MEMB     120      POPC     C213     CTL2    -0.180000       12.0110           0
     15845 MEMB     120      POPC     H13R     HAL2     0.900000E-01   1.00800           0
     15846 MEMB     120      POPC     H13S     HAL2     0.900000E-01   1.00800           0
     15847 MEMB     120      POPC     C214     CTL2    -0.180000       12.0110           0
     15848 MEMB     120      POPC     H14R     HAL2     0.900000E-01   1.00800           0
     15849 MEMB     120      POPC     H14S     HAL2     0.900000E-01   1.00800           0
     15850 MEMB     120      POPC     C215     CTL2    -0.180000       12.0110           0
     15851 MEMB     120      POPC     H15R     HAL2     0.900000E-01   1.00800           0
     15852 MEMB     120      POPC     H15S     HAL2     0.900000E-01   1.00800           0
     15853 MEMB     120      POPC     C216     CTL2    -0.180000       12.0110           0
     15854 MEMB     120      POPC     H16R     HAL2     0.900000E-01   1.00800           0
     15855 MEMB     120      POPC     H16S     HAL2     0.900000E-01   1.00800           0
     15856 MEMB     120      POPC     C217     CTL2    -0.180000       12.0110           0
     15857 MEMB     120      POPC     H17R     HAL2     0.900000E-01   1.00800           0
     15858 MEMB     120      POPC     H17S     HAL2     0.900000E-01   1.00800           0
     15859 MEMB     120      POPC     C218     CTL3    -0.270000       12.0110           0
     15860 MEMB     120      POPC     H18R     HAL3     0.900000E-01   1.00800           0
     15861 MEMB     120      POPC     H18S     HAL3     0.900000E-01   1.00800           0
     15862 MEMB     120      POPC     H18T     HAL3     0.900000E-01   1.00800           0
     15863 MEMB     120      POPC     C33      CTL2    -0.180000       12.0110           0
     15864 MEMB     120      POPC     H3X      HAL2     0.900000E-01   1.00800           0
     15865 MEMB     120      POPC     H3Y      HAL2     0.900000E-01   1.00800           0
     15866 MEMB     120      POPC     C34      CTL2    -0.180000       12.0110           0
     15867 MEMB     120      POPC     H4X      HAL2     0.900000E-01   1.00800           0
     15868 MEMB     120      POPC     H4Y      HAL2     0.900000E-01   1.00800           0
     15869 MEMB     120      POPC     C35      CTL2    -0.180000       12.0110           0
     15870 MEMB     120      POPC     H5X      HAL2     0.900000E-01   1.00800           0
     15871 MEMB     120      POPC     H5Y      HAL2     0.900000E-01   1.00800           0
     15872 MEMB     120      POPC     C36      CTL2    -0.180000       12.0110           0
     15873 MEMB     120      POPC     H6X      HAL2     0.900000E-01   1.00800           0
     15874 MEMB     120      POPC     H6Y      HAL2     0.900000E-01   1.00800           0
     15875 MEMB     120      POPC     C37      CTL2    -0.180000       12.0110           0
     15876 MEMB     120      POPC     H7X      HAL2     0.900000E-01   1.00800           0
     15877 MEMB     120      POPC     H7Y      HAL2     0.900000E-01   1.00800           0
     15878 MEMB     120      POPC     C38      CTL2    -0.180000       12.0110           0
     15879 MEMB     120      POPC     H8X      HAL2     0.900000E-01   1.00800           0
     15880 MEMB     120      POPC     H8Y      HAL2     0.900000E-01   1.00800           0
     15881 MEMB     120      POPC     C39      CTL2    -0.180000       12.0110           0
     15882 MEMB     120      POPC     H9X      HAL2     0.900000E-01   1.00800           0
     15883 MEMB     120      POPC     H9Y      HAL2     0.900000E-01   1.00800           0
     15884 MEMB     120      POPC     C310     CTL2    -0.180000       12.0110           0
     15885 MEMB     120      POPC     H10X     HAL2     0.900000E-01   1.00800           0
     15886 MEMB     120      POPC     H10Y     HAL2     0.900000E-01   1.00800           0
     15887 MEMB     120      POPC     C311     CTL2    -0.180000       12.0110           0
     15888 MEMB     120      POPC     H11X     HAL2     0.900000E-01   1.00800           0
     15889 MEMB     120      POPC     H11Y     HAL2     0.900000E-01   1.00800           0
     15890 MEMB     120      POPC     C312     CTL2    -0.180000       12.0110           0
     15891 MEMB     120      POPC     H12X     HAL2     0.900000E-01   1.00800           0
     15892 MEMB     120      POPC     H12Y     HAL2     0.900000E-01   1.00800           0
     15893 MEMB     120      POPC     C313     CTL2    -0.180000       12.0110           0
     15894 MEMB     120      POPC     H13X     HAL2     0.900000E-01   1.00800           0
     15895 MEMB     120      POPC     H13Y     HAL2     0.900000E-01   1.00800           0
     15896 MEMB     120      POPC     C314     CTL2    -0.180000       12.0110           0
     15897 MEMB     120      POPC     H14X     HAL2     0.900000E-01   1.00800           0
     15898 MEMB     120      POPC     H14Y     HAL2     0.900000E-01   1.00800           0
     15899 MEMB     120      POPC     C315     CTL2    -0.180000       12.0110           0
     15900 MEMB     120      POPC     H15X     HAL2     0.900000E-01   1.00800           0
     15901 MEMB     120      POPC     H15Y     HAL2     0.900000E-01   1.00800           0
     15902 MEMB     120      POPC     C316     CTL3    -0.270000       12.0110           0
     15903 MEMB     120      POPC     H16X     HAL3     0.900000E-01   1.00800           0
     15904 MEMB     120      POPC     H16Y     HAL3     0.900000E-01   1.00800           0
     15905 MEMB     120      POPC     H16Z     HAL3     0.900000E-01   1.00800           0
     15906 MEMB     121      POPC     N        NTL     -0.600000       14.0070           0
     15907 MEMB     121      POPC     C12      CTL2    -0.100000       12.0110           0
     15908 MEMB     121      POPC     H12A     HL       0.250000       1.00800           0
     15909 MEMB     121      POPC     H12B     HL       0.250000       1.00800           0
     15910 MEMB     121      POPC     C13      CTL5    -0.350000       12.0110           0
     15911 MEMB     121      POPC     H13A     HL       0.250000       1.00800           0
     15912 MEMB     121      POPC     H13B     HL       0.250000       1.00800           0
     15913 MEMB     121      POPC     H13C     HL       0.250000       1.00800           0
     15914 MEMB     121      POPC     C14      CTL5    -0.350000       12.0110           0
     15915 MEMB     121      POPC     H14A     HL       0.250000       1.00800           0
     15916 MEMB     121      POPC     H14B     HL       0.250000       1.00800           0
     15917 MEMB     121      POPC     H14C     HL       0.250000       1.00800           0
     15918 MEMB     121      POPC     C15      CTL5    -0.350000       12.0110           0
     15919 MEMB     121      POPC     H15A     HL       0.250000       1.00800           0
     15920 MEMB     121      POPC     H15B     HL       0.250000       1.00800           0
     15921 MEMB     121      POPC     H15C     HL       0.250000       1.00800           0
     15922 MEMB     121      POPC     C11      CTL2    -0.800000E-01   12.0110           0
     15923 MEMB     121      POPC     H11A     HAL2     0.900000E-01   1.00800           0
     15924 MEMB     121      POPC     H11B     HAL2     0.900000E-01   1.00800           0
     15925 MEMB     121      POPC     P        PL        1.50000       30.9740           0
     15926 MEMB     121      POPC     O13      O2L     -0.780000       15.9994           0
     15927 MEMB     121      POPC     O14      O2L     -0.780000       15.9994           0
     15928 MEMB     121      POPC     O12      OSLP    -0.570000       15.9994           0
     15929 MEMB     121      POPC     O11      OSLP    -0.570000       15.9994           0
     15930 MEMB     121      POPC     C1       CTL2    -0.800000E-01   12.0110           0
     15931 MEMB     121      POPC     HA       HAL2     0.900000E-01   1.00800           0
     15932 MEMB     121      POPC     HB       HAL2     0.900000E-01   1.00800           0
     15933 MEMB     121      POPC     C2       CTL1     0.170000       12.0110           0
     15934 MEMB     121      POPC     HS       HAL1     0.900000E-01   1.00800           0
     15935 MEMB     121      POPC     O21      OSL     -0.490000       15.9994           0
     15936 MEMB     121      POPC     C21      CL       0.900000       12.0110           0
     15937 MEMB     121      POPC     O22      OBL     -0.630000       15.9994           0
     15938 MEMB     121      POPC     C22      CTL2    -0.220000       12.0110           0
     15939 MEMB     121      POPC     H2R      HAL2     0.900000E-01   1.00800           0
     15940 MEMB     121      POPC     H2S      HAL2     0.900000E-01   1.00800           0
     15941 MEMB     121      POPC     C3       CTL2     0.800000E-01   12.0110           0
     15942 MEMB     121      POPC     HX       HAL2     0.900000E-01   1.00800           0
     15943 MEMB     121      POPC     HY       HAL2     0.900000E-01   1.00800           0
     15944 MEMB     121      POPC     O31      OSL     -0.490000       15.9994           0
     15945 MEMB     121      POPC     C31      CL       0.900000       12.0110           0
     15946 MEMB     121      POPC     O32      OBL     -0.630000       15.9994           0
     15947 MEMB     121      POPC     C32      CTL2    -0.220000       12.0110           0
     15948 MEMB     121      POPC     H2X      HAL2     0.900000E-01   1.00800           0
     15949 MEMB     121      POPC     H2Y      HAL2     0.900000E-01   1.00800           0
     15950 MEMB     121      POPC     C23      CTL2    -0.180000       12.0110           0
     15951 MEMB     121      POPC     H3R      HAL2     0.900000E-01   1.00800           0
     15952 MEMB     121      POPC     H3S      HAL2     0.900000E-01   1.00800           0
     15953 MEMB     121      POPC     C24      CTL2    -0.180000       12.0110           0
     15954 MEMB     121      POPC     H4R      HAL2     0.900000E-01   1.00800           0
     15955 MEMB     121      POPC     H4S      HAL2     0.900000E-01   1.00800           0
     15956 MEMB     121      POPC     C25      CTL2    -0.180000       12.0110           0
     15957 MEMB     121      POPC     H5R      HAL2     0.900000E-01   1.00800           0
     15958 MEMB     121      POPC     H5S      HAL2     0.900000E-01   1.00800           0
     15959 MEMB     121      POPC     C26      CTL2    -0.180000       12.0110           0
     15960 MEMB     121      POPC     H6R      HAL2     0.900000E-01   1.00800           0
     15961 MEMB     121      POPC     H6S      HAL2     0.900000E-01   1.00800           0
     15962 MEMB     121      POPC     C27      CTL2    -0.180000       12.0110           0
     15963 MEMB     121      POPC     H7R      HAL2     0.900000E-01   1.00800           0
     15964 MEMB     121      POPC     H7S      HAL2     0.900000E-01   1.00800           0
     15965 MEMB     121      POPC     C28      CTL2    -0.180000       12.0110           0
     15966 MEMB     121      POPC     H8R      HAL2     0.900000E-01   1.00800           0
     15967 MEMB     121      POPC     H8S      HAL2     0.900000E-01   1.00800           0
     15968 MEMB     121      POPC     C29      CEL1    -0.150000       12.0110           0
     15969 MEMB     121      POPC     H91      HEL1     0.150000       1.00800           0
     15970 MEMB     121      POPC     C210     CEL1    -0.150000       12.0110           0
     15971 MEMB     121      POPC     H101     HEL1     0.150000       1.00800           0
     15972 MEMB     121      POPC     C211     CTL2    -0.180000       12.0110           0
     15973 MEMB     121      POPC     H11R     HAL2     0.900000E-01   1.00800           0
     15974 MEMB     121      POPC     H11S     HAL2     0.900000E-01   1.00800           0
     15975 MEMB     121      POPC     C212     CTL2    -0.180000       12.0110           0
     15976 MEMB     121      POPC     H12R     HAL2     0.900000E-01   1.00800           0
     15977 MEMB     121      POPC     H12S     HAL2     0.900000E-01   1.00800           0
     15978 MEMB     121      POPC     C213     CTL2    -0.180000       12.0110           0
     15979 MEMB     121      POPC     H13R     HAL2     0.900000E-01   1.00800           0
     15980 MEMB     121      POPC     H13S     HAL2     0.900000E-01   1.00800           0
     15981 MEMB     121      POPC     C214     CTL2    -0.180000       12.0110           0
     15982 MEMB     121      POPC     H14R     HAL2     0.900000E-01   1.00800           0
     15983 MEMB     121      POPC     H14S     HAL2     0.900000E-01   1.00800           0
     15984 MEMB     121      POPC     C215     CTL2    -0.180000       12.0110           0
     15985 MEMB     121      POPC     H15R     HAL2     0.900000E-01   1.00800           0
     15986 MEMB     121      POPC     H15S     HAL2     0.900000E-01   1.00800           0
     15987 MEMB     121      POPC     C216     CTL2    -0.180000       12.0110           0
     15988 MEMB     121      POPC     H16R     HAL2     0.900000E-01   1.00800           0
     15989 MEMB     121      POPC     H16S     HAL2     0.900000E-01   1.00800           0
     15990 MEMB     121      POPC     C217     CTL2    -0.180000       12.0110           0
     15991 MEMB     121      POPC     H17R     HAL2     0.900000E-01   1.00800           0
     15992 MEMB     121      POPC     H17S     HAL2     0.900000E-01   1.00800           0
     15993 MEMB     121      POPC     C218     CTL3    -0.270000       12.0110           0
     15994 MEMB     121      POPC     H18R     HAL3     0.900000E-01   1.00800           0
     15995 MEMB     121      POPC     H18S     HAL3     0.900000E-01   1.00800           0
     15996 MEMB     121      POPC     H18T     HAL3     0.900000E-01   1.00800           0
     15997 MEMB     121      POPC     C33      CTL2    -0.180000       12.0110           0
     15998 MEMB     121      POPC     H3X      HAL2     0.900000E-01   1.00800           0
     15999 MEMB     121      POPC     H3Y      HAL2     0.900000E-01   1.00800           0
     16000 MEMB     121      POPC     C34      CTL2    -0.180000       12.0110           0
     16001 MEMB     121      POPC     H4X      HAL2     0.900000E-01   1.00800           0
     16002 MEMB     121      POPC     H4Y      HAL2     0.900000E-01   1.00800           0
     16003 MEMB     121      POPC     C35      CTL2    -0.180000       12.0110           0
     16004 MEMB     121      POPC     H5X      HAL2     0.900000E-01   1.00800           0
     16005 MEMB     121      POPC     H5Y      HAL2     0.900000E-01   1.00800           0
     16006 MEMB     121      POPC     C36      CTL2    -0.180000       12.0110           0
     16007 MEMB     121      POPC     H6X      HAL2     0.900000E-01   1.00800           0
     16008 MEMB     121      POPC     H6Y      HAL2     0.900000E-01   1.00800           0
     16009 MEMB     121      POPC     C37      CTL2    -0.180000       12.0110           0
     16010 MEMB     121      POPC     H7X      HAL2     0.900000E-01   1.00800           0
     16011 MEMB     121      POPC     H7Y      HAL2     0.900000E-01   1.00800           0
     16012 MEMB     121      POPC     C38      CTL2    -0.180000       12.0110           0
     16013 MEMB     121      POPC     H8X      HAL2     0.900000E-01   1.00800           0
     16014 MEMB     121      POPC     H8Y      HAL2     0.900000E-01   1.00800           0
     16015 MEMB     121      POPC     C39      CTL2    -0.180000       12.0110           0
     16016 MEMB     121      POPC     H9X      HAL2     0.900000E-01   1.00800           0
     16017 MEMB     121      POPC     H9Y      HAL2     0.900000E-01   1.00800           0
     16018 MEMB     121      POPC     C310     CTL2    -0.180000       12.0110           0
     16019 MEMB     121      POPC     H10X     HAL2     0.900000E-01   1.00800           0
     16020 MEMB     121      POPC     H10Y     HAL2     0.900000E-01   1.00800           0
     16021 MEMB     121      POPC     C311     CTL2    -0.180000       12.0110           0
     16022 MEMB     121      POPC     H11X     HAL2     0.900000E-01   1.00800           0
     16023 MEMB     121      POPC     H11Y     HAL2     0.900000E-01   1.00800           0
     16024 MEMB     121      POPC     C312     CTL2    -0.180000       12.0110           0
     16025 MEMB     121      POPC     H12X     HAL2     0.900000E-01   1.00800           0
     16026 MEMB     121      POPC     H12Y     HAL2     0.900000E-01   1.00800           0
     16027 MEMB     121      POPC     C313     CTL2    -0.180000       12.0110           0
     16028 MEMB     121      POPC     H13X     HAL2     0.900000E-01   1.00800           0
     16029 MEMB     121      POPC     H13Y     HAL2     0.900000E-01   1.00800           0
     16030 MEMB     121      POPC     C314     CTL2    -0.180000       12.0110           0
     16031 MEMB     121      POPC     H14X     HAL2     0.900000E-01   1.00800           0
     16032 MEMB     121      POPC     H14Y     HAL2     0.900000E-01   1.00800           0
     16033 MEMB     121      POPC     C315     CTL2    -0.180000       12.0110           0
     16034 MEMB     121      POPC     H15X     HAL2     0.900000E-01   1.00800           0
     16035 MEMB     121      POPC     H15Y     HAL2     0.900000E-01   1.00800           0
     16036 MEMB     121      POPC     C316     CTL3    -0.270000       12.0110           0
     16037 MEMB     121      POPC     H16X     HAL3     0.900000E-01   1.00800           0
     16038 MEMB     121      POPC     H16Y     HAL3     0.900000E-01   1.00800           0
     16039 MEMB     121      POPC     H16Z     HAL3     0.900000E-01   1.00800           0
     16040 MEMB     122      POPC     N        NTL     -0.600000       14.0070           0
     16041 MEMB     122      POPC     C12      CTL2    -0.100000       12.0110           0
     16042 MEMB     122      POPC     H12A     HL       0.250000       1.00800           0
     16043 MEMB     122      POPC     H12B     HL       0.250000       1.00800           0
     16044 MEMB     122      POPC     C13      CTL5    -0.350000       12.0110           0
     16045 MEMB     122      POPC     H13A     HL       0.250000       1.00800           0
     16046 MEMB     122      POPC     H13B     HL       0.250000       1.00800           0
     16047 MEMB     122      POPC     H13C     HL       0.250000       1.00800           0
     16048 MEMB     122      POPC     C14      CTL5    -0.350000       12.0110           0
     16049 MEMB     122      POPC     H14A     HL       0.250000       1.00800           0
     16050 MEMB     122      POPC     H14B     HL       0.250000       1.00800           0
     16051 MEMB     122      POPC     H14C     HL       0.250000       1.00800           0
     16052 MEMB     122      POPC     C15      CTL5    -0.350000       12.0110           0
     16053 MEMB     122      POPC     H15A     HL       0.250000       1.00800           0
     16054 MEMB     122      POPC     H15B     HL       0.250000       1.00800           0
     16055 MEMB     122      POPC     H15C     HL       0.250000       1.00800           0
     16056 MEMB     122      POPC     C11      CTL2    -0.800000E-01   12.0110           0
     16057 MEMB     122      POPC     H11A     HAL2     0.900000E-01   1.00800           0
     16058 MEMB     122      POPC     H11B     HAL2     0.900000E-01   1.00800           0
     16059 MEMB     122      POPC     P        PL        1.50000       30.9740           0
     16060 MEMB     122      POPC     O13      O2L     -0.780000       15.9994           0
     16061 MEMB     122      POPC     O14      O2L     -0.780000       15.9994           0
     16062 MEMB     122      POPC     O12      OSLP    -0.570000       15.9994           0
     16063 MEMB     122      POPC     O11      OSLP    -0.570000       15.9994           0
     16064 MEMB     122      POPC     C1       CTL2    -0.800000E-01   12.0110           0
     16065 MEMB     122      POPC     HA       HAL2     0.900000E-01   1.00800           0
     16066 MEMB     122      POPC     HB       HAL2     0.900000E-01   1.00800           0
     16067 MEMB     122      POPC     C2       CTL1     0.170000       12.0110           0
     16068 MEMB     122      POPC     HS       HAL1     0.900000E-01   1.00800           0
     16069 MEMB     122      POPC     O21      OSL     -0.490000       15.9994           0
     16070 MEMB     122      POPC     C21      CL       0.900000       12.0110           0
     16071 MEMB     122      POPC     O22      OBL     -0.630000       15.9994           0
     16072 MEMB     122      POPC     C22      CTL2    -0.220000       12.0110           0
     16073 MEMB     122      POPC     H2R      HAL2     0.900000E-01   1.00800           0
     16074 MEMB     122      POPC     H2S      HAL2     0.900000E-01   1.00800           0
     16075 MEMB     122      POPC     C3       CTL2     0.800000E-01   12.0110           0
     16076 MEMB     122      POPC     HX       HAL2     0.900000E-01   1.00800           0
     16077 MEMB     122      POPC     HY       HAL2     0.900000E-01   1.00800           0
     16078 MEMB     122      POPC     O31      OSL     -0.490000       15.9994           0
     16079 MEMB     122      POPC     C31      CL       0.900000       12.0110           0
     16080 MEMB     122      POPC     O32      OBL     -0.630000       15.9994           0
     16081 MEMB     122      POPC     C32      CTL2    -0.220000       12.0110           0
     16082 MEMB     122      POPC     H2X      HAL2     0.900000E-01   1.00800           0
     16083 MEMB     122      POPC     H2Y      HAL2     0.900000E-01   1.00800           0
     16084 MEMB     122      POPC     C23      CTL2    -0.180000       12.0110           0
     16085 MEMB     122      POPC     H3R      HAL2     0.900000E-01   1.00800           0
     16086 MEMB     122      POPC     H3S      HAL2     0.900000E-01   1.00800           0
     16087 MEMB     122      POPC     C24      CTL2    -0.180000       12.0110           0
     16088 MEMB     122      POPC     H4R      HAL2     0.900000E-01   1.00800           0
     16089 MEMB     122      POPC     H4S      HAL2     0.900000E-01   1.00800           0
     16090 MEMB     122      POPC     C25      CTL2    -0.180000       12.0110           0
     16091 MEMB     122      POPC     H5R      HAL2     0.900000E-01   1.00800           0
     16092 MEMB     122      POPC     H5S      HAL2     0.900000E-01   1.00800           0
     16093 MEMB     122      POPC     C26      CTL2    -0.180000       12.0110           0
     16094 MEMB     122      POPC     H6R      HAL2     0.900000E-01   1.00800           0
     16095 MEMB     122      POPC     H6S      HAL2     0.900000E-01   1.00800           0
     16096 MEMB     122      POPC     C27      CTL2    -0.180000       12.0110           0
     16097 MEMB     122      POPC     H7R      HAL2     0.900000E-01   1.00800           0
     16098 MEMB     122      POPC     H7S      HAL2     0.900000E-01   1.00800           0
     16099 MEMB     122      POPC     C28      CTL2    -0.180000       12.0110           0
     16100 MEMB     122      POPC     H8R      HAL2     0.900000E-01   1.00800           0
     16101 MEMB     122      POPC     H8S      HAL2     0.900000E-01   1.00800           0
     16102 MEMB     122      POPC     C29      CEL1    -0.150000       12.0110           0
     16103 MEMB     122      POPC     H91      HEL1     0.150000       1.00800           0
     16104 MEMB     122      POPC     C210     CEL1    -0.150000       12.0110           0
     16105 MEMB     122      POPC     H101     HEL1     0.150000       1.00800           0
     16106 MEMB     122      POPC     C211     CTL2    -0.180000       12.0110           0
     16107 MEMB     122      POPC     H11R     HAL2     0.900000E-01   1.00800           0
     16108 MEMB     122      POPC     H11S     HAL2     0.900000E-01   1.00800           0
     16109 MEMB     122      POPC     C212     CTL2    -0.180000       12.0110           0
     16110 MEMB     122      POPC     H12R     HAL2     0.900000E-01   1.00800           0
     16111 MEMB     122      POPC     H12S     HAL2     0.900000E-01   1.00800           0
     16112 MEMB     122      POPC     C213     CTL2    -0.180000       12.0110           0
     16113 MEMB     122      POPC     H13R     HAL2     0.900000E-01   1.00800           0
     16114 MEMB     122      POPC     H13S     HAL2     0.900000E-01   1.00800           0
     16115 MEMB     122      POPC     C214     CTL2    -0.180000       12.0110           0
     16116 MEMB     122      POPC     H14R     HAL2     0.900000E-01   1.00800           0
     16117 MEMB     122      POPC     H14S     HAL2     0.900000E-01   1.00800           0
     16118 MEMB     122      POPC     C215     CTL2    -0.180000       12.0110           0
     16119 MEMB     122      POPC     H15R     HAL2     0.900000E-01   1.00800           0
     16120 MEMB     122      POPC     H15S     HAL2     0.900000E-01   1.00800           0
     16121 MEMB     122      POPC     C216     CTL2    -0.180000       12.0110           0
     16122 MEMB     122      POPC     H16R     HAL2     0.900000E-01   1.00800           0
     16123 MEMB     122      POPC     H16S     HAL2     0.900000E-01   1.00800           0
     16124 MEMB     122      POPC     C217     CTL2    -0.180000       12.0110           0
     16125 MEMB     122      POPC     H17R     HAL2     0.900000E-01   1.00800           0
     16126 MEMB     122      POPC     H17S     HAL2     0.900000E-01   1.00800           0
     16127 MEMB     122      POPC     C218     CTL3    -0.270000       12.0110           0
     16128 MEMB     122      POPC     H18R     HAL3     0.900000E-01   1.00800           0
     16129 MEMB     122      POPC     H18S     HAL3     0.900000E-01   1.00800           0
     16130 MEMB     122      POPC     H18T     HAL3     0.900000E-01   1.00800           0
     16131 MEMB     122      POPC     C33      CTL2    -0.180000       12.0110           0
     16132 MEMB     122      POPC     H3X      HAL2     0.900000E-01   1.00800           0
     16133 MEMB     122      POPC     H3Y      HAL2     0.900000E-01   1.00800           0
     16134 MEMB     122      POPC     C34      CTL2    -0.180000       12.0110           0
     16135 MEMB     122      POPC     H4X      HAL2     0.900000E-01   1.00800           0
     16136 MEMB     122      POPC     H4Y      HAL2     0.900000E-01   1.00800           0
     16137 MEMB     122      POPC     C35      CTL2    -0.180000       12.0110           0
     16138 MEMB     122      POPC     H5X      HAL2     0.900000E-01   1.00800           0
     16139 MEMB     122      POPC     H5Y      HAL2     0.900000E-01   1.00800           0
     16140 MEMB     122      POPC     C36      CTL2    -0.180000       12.0110           0
     16141 MEMB     122      POPC     H6X      HAL2     0.900000E-01   1.00800           0
     16142 MEMB     122      POPC     H6Y      HAL2     0.900000E-01   1.00800           0
     16143 MEMB     122      POPC     C37      CTL2    -0.180000       12.0110           0
     16144 MEMB     122      POPC     H7X      HAL2     0.900000E-01   1.00800           0
     16145 MEMB     122      POPC     H7Y      HAL2     0.900000E-01   1.00800           0
     16146 MEMB     122      POPC     C38      CTL2    -0.180000       12.0110           0
     16147 MEMB     122      POPC     H8X      HAL2     0.900000E-01   1.00800           0
     16148 MEMB     122      POPC     H8Y      HAL2     0.900000E-01   1.00800           0
     16149 MEMB     122      POPC     C39      CTL2    -0.180000       12.0110           0
     16150 MEMB     122      POPC     H9X      HAL2     0.900000E-01   1.00800           0
     16151 MEMB     122      POPC     H9Y      HAL2     0.900000E-01   1.00800           0
     16152 MEMB     122      POPC     C310     CTL2    -0.180000       12.0110           0
     16153 MEMB     122      POPC     H10X     HAL2     0.900000E-01   1.00800           0
     16154 MEMB     122      POPC     H10Y     HAL2     0.900000E-01   1.00800           0
     16155 MEMB     122      POPC     C311     CTL2    -0.180000       12.0110           0
     16156 MEMB     122      POPC     H11X     HAL2     0.900000E-01   1.00800           0
     16157 MEMB     122      POPC     H11Y     HAL2     0.900000E-01   1.00800           0
     16158 MEMB     122      POPC     C312     CTL2    -0.180000       12.0110           0
     16159 MEMB     122      POPC     H12X     HAL2     0.900000E-01   1.00800           0
     16160 MEMB     122      POPC     H12Y     HAL2     0.900000E-01   1.00800           0
     16161 MEMB     122      POPC     C313     CTL2    -0.180000       12.0110           0
     16162 MEMB     122      POPC     H13X     HAL2     0.900000E-01   1.00800           0
     16163 MEMB     122      POPC     H13Y     HAL2     0.900000E-01   1.00800           0
     16164 MEMB     122      POPC     C314     CTL2    -0.180000       12.0110           0
     16165 MEMB     122      POPC     H14X     HAL2     0.900000E-01   1.00800           0
     16166 MEMB     122      POPC     H14Y     HAL2     0.900000E-01   1.00800           0
     16167 MEMB     122      POPC     C315     CTL2    -0.180000       12.0110           0
     16168 MEMB     122      POPC     H15X     HAL2     0.900000E-01   1.00800           0
     16169 MEMB     122      POPC     H15Y     HAL2     0.900000E-01   1.00800           0
     16170 MEMB     122      POPC     C316     CTL3    -0.270000       12.0110           0
     16171 MEMB     122      POPC     H16X     HAL3     0.900000E-01   1.00800           0
     16172 MEMB     122      POPC     H16Y     HAL3     0.900000E-01   1.00800           0
     16173 MEMB     122      POPC     H16Z     HAL3     0.900000E-01   1.00800           0
     16174 MEMB     123      POPC     N        NTL     -0.600000       14.0070           0
     16175 MEMB     123      POPC     C12      CTL2    -0.100000       12.0110           0
     16176 MEMB     123      POPC     H12A     HL       0.250000       1.00800           0
     16177 MEMB     123      POPC     H12B     HL       0.250000       1.00800           0
     16178 MEMB     123      POPC     C13      CTL5    -0.350000       12.0110           0
     16179 MEMB     123      POPC     H13A     HL       0.250000       1.00800           0
     16180 MEMB     123      POPC     H13B     HL       0.250000       1.00800           0
     16181 MEMB     123      POPC     H13C     HL       0.250000       1.00800           0
     16182 MEMB     123      POPC     C14      CTL5    -0.350000       12.0110           0
     16183 MEMB     123      POPC     H14A     HL       0.250000       1.00800           0
     16184 MEMB     123      POPC     H14B     HL       0.250000       1.00800           0
     16185 MEMB     123      POPC     H14C     HL       0.250000       1.00800           0
     16186 MEMB     123      POPC     C15      CTL5    -0.350000       12.0110           0
     16187 MEMB     123      POPC     H15A     HL       0.250000       1.00800           0
     16188 MEMB     123      POPC     H15B     HL       0.250000       1.00800           0
     16189 MEMB     123      POPC     H15C     HL       0.250000       1.00800           0
     16190 MEMB     123      POPC     C11      CTL2    -0.800000E-01   12.0110           0
     16191 MEMB     123      POPC     H11A     HAL2     0.900000E-01   1.00800           0
     16192 MEMB     123      POPC     H11B     HAL2     0.900000E-01   1.00800           0
     16193 MEMB     123      POPC     P        PL        1.50000       30.9740           0
     16194 MEMB     123      POPC     O13      O2L     -0.780000       15.9994           0
     16195 MEMB     123      POPC     O14      O2L     -0.780000       15.9994           0
     16196 MEMB     123      POPC     O12      OSLP    -0.570000       15.9994           0
     16197 MEMB     123      POPC     O11      OSLP    -0.570000       15.9994           0
     16198 MEMB     123      POPC     C1       CTL2    -0.800000E-01   12.0110           0
     16199 MEMB     123      POPC     HA       HAL2     0.900000E-01   1.00800           0
     16200 MEMB     123      POPC     HB       HAL2     0.900000E-01   1.00800           0
     16201 MEMB     123      POPC     C2       CTL1     0.170000       12.0110           0
     16202 MEMB     123      POPC     HS       HAL1     0.900000E-01   1.00800           0
     16203 MEMB     123      POPC     O21      OSL     -0.490000       15.9994           0
     16204 MEMB     123      POPC     C21      CL       0.900000       12.0110           0
     16205 MEMB     123      POPC     O22      OBL     -0.630000       15.9994           0
     16206 MEMB     123      POPC     C22      CTL2    -0.220000       12.0110           0
     16207 MEMB     123      POPC     H2R      HAL2     0.900000E-01   1.00800           0
     16208 MEMB     123      POPC     H2S      HAL2     0.900000E-01   1.00800           0
     16209 MEMB     123      POPC     C3       CTL2     0.800000E-01   12.0110           0
     16210 MEMB     123      POPC     HX       HAL2     0.900000E-01   1.00800           0
     16211 MEMB     123      POPC     HY       HAL2     0.900000E-01   1.00800           0
     16212 MEMB     123      POPC     O31      OSL     -0.490000       15.9994           0
     16213 MEMB     123      POPC     C31      CL       0.900000       12.0110           0
     16214 MEMB     123      POPC     O32      OBL     -0.630000       15.9994           0
     16215 MEMB     123      POPC     C32      CTL2    -0.220000       12.0110           0
     16216 MEMB     123      POPC     H2X      HAL2     0.900000E-01   1.00800           0
     16217 MEMB     123      POPC     H2Y      HAL2     0.900000E-01   1.00800           0
     16218 MEMB     123      POPC     C23      CTL2    -0.180000       12.0110           0
     16219 MEMB     123      POPC     H3R      HAL2     0.900000E-01   1.00800           0
     16220 MEMB     123      POPC     H3S      HAL2     0.900000E-01   1.00800           0
     16221 MEMB     123      POPC     C24      CTL2    -0.180000       12.0110           0
     16222 MEMB     123      POPC     H4R      HAL2     0.900000E-01   1.00800           0
     16223 MEMB     123      POPC     H4S      HAL2     0.900000E-01   1.00800           0
     16224 MEMB     123      POPC     C25      CTL2    -0.180000       12.0110           0
     16225 MEMB     123      POPC     H5R      HAL2     0.900000E-01   1.00800           0
     16226 MEMB     123      POPC     H5S      HAL2     0.900000E-01   1.00800           0
     16227 MEMB     123      POPC     C26      CTL2    -0.180000       12.0110           0
     16228 MEMB     123      POPC     H6R      HAL2     0.900000E-01   1.00800           0
     16229 MEMB     123      POPC     H6S      HAL2     0.900000E-01   1.00800           0
     16230 MEMB     123      POPC     C27      CTL2    -0.180000       12.0110           0
     16231 MEMB     123      POPC     H7R      HAL2     0.900000E-01   1.00800           0
     16232 MEMB     123      POPC     H7S      HAL2     0.900000E-01   1.00800           0
     16233 MEMB     123      POPC     C28      CTL2    -0.180000       12.0110           0
     16234 MEMB     123      POPC     H8R      HAL2     0.900000E-01   1.00800           0
     16235 MEMB     123      POPC     H8S      HAL2     0.900000E-01   1.00800           0
     16236 MEMB     123      POPC     C29      CEL1    -0.150000       12.0110           0
     16237 MEMB     123      POPC     H91      HEL1     0.150000       1.00800           0
     16238 MEMB     123      POPC     C210     CEL1    -0.150000       12.0110           0
     16239 MEMB     123      POPC     H101     HEL1     0.150000       1.00800           0
     16240 MEMB     123      POPC     C211     CTL2    -0.180000       12.0110           0
     16241 MEMB     123      POPC     H11R     HAL2     0.900000E-01   1.00800           0
     16242 MEMB     123      POPC     H11S     HAL2     0.900000E-01   1.00800           0
     16243 MEMB     123      POPC     C212     CTL2    -0.180000       12.0110           0
     16244 MEMB     123      POPC     H12R     HAL2     0.900000E-01   1.00800           0
     16245 MEMB     123      POPC     H12S     HAL2     0.900000E-01   1.00800           0
     16246 MEMB     123      POPC     C213     CTL2    -0.180000       12.0110           0
     16247 MEMB     123      POPC     H13R     HAL2     0.900000E-01   1.00800           0
     16248 MEMB     123      POPC     H13S     HAL2     0.900000E-01   1.00800           0
     16249 MEMB     123      POPC     C214     CTL2    -0.180000       12.0110           0
     16250 MEMB     123      POPC     H14R     HAL2     0.900000E-01   1.00800           0
     16251 MEMB     123      POPC     H14S     HAL2     0.900000E-01   1.00800           0
     16252 MEMB     123      POPC     C215     CTL2    -0.180000       12.0110           0
     16253 MEMB     123      POPC     H15R     HAL2     0.900000E-01   1.00800           0
     16254 MEMB     123      POPC     H15S     HAL2     0.900000E-01   1.00800           0
     16255 MEMB     123      POPC     C216     CTL2    -0.180000       12.0110           0
     16256 MEMB     123      POPC     H16R     HAL2     0.900000E-01   1.00800           0
     16257 MEMB     123      POPC     H16S     HAL2     0.900000E-01   1.00800           0
     16258 MEMB     123      POPC     C217     CTL2    -0.180000       12.0110           0
     16259 MEMB     123      POPC     H17R     HAL2     0.900000E-01   1.00800           0
     16260 MEMB     123      POPC     H17S     HAL2     0.900000E-01   1.00800           0
     16261 MEMB     123      POPC     C218     CTL3    -0.270000       12.0110           0
     16262 MEMB     123      POPC     H18R     HAL3     0.900000E-01   1.00800           0
     16263 MEMB     123      POPC     H18S     HAL3     0.900000E-01   1.00800           0
     16264 MEMB     123      POPC     H18T     HAL3     0.900000E-01   1.00800           0
     16265 MEMB     123      POPC     C33      CTL2    -0.180000       12.0110           0
     16266 MEMB     123      POPC     H3X      HAL2     0.900000E-01   1.00800           0
     16267 MEMB     123      POPC     H3Y      HAL2     0.900000E-01   1.00800           0
     16268 MEMB     123      POPC     C34      CTL2    -0.180000       12.0110           0
     16269 MEMB     123      POPC     H4X      HAL2     0.900000E-01   1.00800           0
     16270 MEMB     123      POPC     H4Y      HAL2     0.900000E-01   1.00800           0
     16271 MEMB     123      POPC     C35      CTL2    -0.180000       12.0110           0
     16272 MEMB     123      POPC     H5X      HAL2     0.900000E-01   1.00800           0
     16273 MEMB     123      POPC     H5Y      HAL2     0.900000E-01   1.00800           0
     16274 MEMB     123      POPC     C36      CTL2    -0.180000       12.0110           0
     16275 MEMB     123      POPC     H6X      HAL2     0.900000E-01   1.00800           0
     16276 MEMB     123      POPC     H6Y      HAL2     0.900000E-01   1.00800           0
     16277 MEMB     123      POPC     C37      CTL2    -0.180000       12.0110           0
     16278 MEMB     123      POPC     H7X      HAL2     0.900000E-01   1.00800           0
     16279 MEMB     123      POPC     H7Y      HAL2     0.900000E-01   1.00800           0
     16280 MEMB     123      POPC     C38      CTL2    -0.180000       12.0110           0
     16281 MEMB     123      POPC     H8X      HAL2     0.900000E-01   1.00800           0
     16282 MEMB     123      POPC     H8Y      HAL2     0.900000E-01   1.00800           0
     16283 MEMB     123      POPC     C39      CTL2    -0.180000       12.0110           0
     16284 MEMB     123      POPC     H9X      HAL2     0.900000E-01   1.00800           0
     16285 MEMB     123      POPC     H9Y      HAL2     0.900000E-01   1.00800           0
     16286 MEMB     123      POPC     C310     CTL2    -0.180000       12.0110           0
     16287 MEMB     123      POPC     H10X     HAL2     0.900000E-01   1.00800           0
     16288 MEMB     123      POPC     H10Y     HAL2     0.900000E-01   1.00800           0
     16289 MEMB     123      POPC     C311     CTL2    -0.180000       12.0110           0
     16290 MEMB     123      POPC     H11X     HAL2     0.900000E-01   1.00800           0
     16291 MEMB     123      POPC     H11Y     HAL2     0.900000E-01   1.00800           0
     16292 MEMB     123      POPC     C312     CTL2    -0.180000       12.0110           0
     16293 MEMB     123      POPC     H12X     HAL2     0.900000E-01   1.00800           0
     16294 MEMB     123      POPC     H12Y     HAL2     0.900000E-01   1.00800           0
     16295 MEMB     123      POPC     C313     CTL2    -0.180000       12.0110           0
     16296 MEMB     123      POPC     H13X     HAL2     0.900000E-01   1.00800           0
     16297 MEMB     123      POPC     H13Y     HAL2     0.900000E-01   1.00800           0
     16298 MEMB     123      POPC     C314     CTL2    -0.180000       12.0110           0
     16299 MEMB     123      POPC     H14X     HAL2     0.900000E-01   1.00800           0
     16300 MEMB     123      POPC     H14Y     HAL2     0.900000E-01   1.00800           0
     16301 MEMB     123      POPC     C315     CTL2    -0.180000       12.0110           0
     16302 MEMB     123      POPC     H15X     HAL2     0.900000E-01   1.00800           0
     16303 MEMB     123      POPC     H15Y     HAL2     0.900000E-01   1.00800           0
     16304 MEMB     123      POPC     C316     CTL3    -0.270000       12.0110           0
     16305 MEMB     123      POPC     H16X     HAL3     0.900000E-01   1.00800           0
     16306 MEMB     123      POPC     H16Y     HAL3     0.900000E-01   1.00800           0
     16307 MEMB     123      POPC     H16Z     HAL3     0.900000E-01   1.00800           0
     16308 MEMB     124      POPS     N        NH3L    -0.300000       14.0070           0
     16309 MEMB     124      POPS     HN1      HCL      0.330000       1.00800           0
     16310 MEMB     124      POPS     HN2      HCL      0.330000       1.00800           0
     16311 MEMB     124      POPS     HN3      HCL      0.330000       1.00800           0
     16312 MEMB     124      POPS     C12      CTL1     0.210000       12.0110           0
     16313 MEMB     124      POPS     H12A     HBL      0.100000       1.00800           0
     16314 MEMB     124      POPS     C13      CCL      0.340000       12.0110           0
     16315 MEMB     124      POPS     O13A     OCL     -0.670000       15.9994           0
     16316 MEMB     124      POPS     O13B     OCL     -0.670000       15.9994           0
     16317 MEMB     124      POPS     C11      CTL2    -0.800000E-01   12.0110           0
     16318 MEMB     124      POPS     H11A     HAL2     0.900000E-01   1.00800           0
     16319 MEMB     124      POPS     H11B     HAL2     0.900000E-01   1.00800           0
     16320 MEMB     124      POPS     P        PL        1.50000       30.9740           0
     16321 MEMB     124      POPS     O13      O2L     -0.780000       15.9994           0
     16322 MEMB     124      POPS     O14      O2L     -0.780000       15.9994           0
     16323 MEMB     124      POPS     O12      OSLP    -0.570000       15.9994           0
     16324 MEMB     124      POPS     O11      OSLP    -0.570000       15.9994           0
     16325 MEMB     124      POPS     C1       CTL2    -0.800000E-01   12.0110           0
     16326 MEMB     124      POPS     HA       HAL2     0.900000E-01   1.00800           0
     16327 MEMB     124      POPS     HB       HAL2     0.900000E-01   1.00800           0
     16328 MEMB     124      POPS     C2       CTL1     0.170000       12.0110           0
     16329 MEMB     124      POPS     HS       HAL1     0.900000E-01   1.00800           0
     16330 MEMB     124      POPS     O21      OSL     -0.490000       15.9994           0
     16331 MEMB     124      POPS     C21      CL       0.900000       12.0110           0
     16332 MEMB     124      POPS     O22      OBL     -0.630000       15.9994           0
     16333 MEMB     124      POPS     C22      CTL2    -0.220000       12.0110           0
     16334 MEMB     124      POPS     H2R      HAL2     0.900000E-01   1.00800           0
     16335 MEMB     124      POPS     H2S      HAL2     0.900000E-01   1.00800           0
     16336 MEMB     124      POPS     C3       CTL2     0.800000E-01   12.0110           0
     16337 MEMB     124      POPS     HX       HAL2     0.900000E-01   1.00800           0
     16338 MEMB     124      POPS     HY       HAL2     0.900000E-01   1.00800           0
     16339 MEMB     124      POPS     O31      OSL     -0.490000       15.9994           0
     16340 MEMB     124      POPS     C31      CL       0.900000       12.0110           0
     16341 MEMB     124      POPS     O32      OBL     -0.630000       15.9994           0
     16342 MEMB     124      POPS     C32      CTL2    -0.220000       12.0110           0
     16343 MEMB     124      POPS     H2X      HAL2     0.900000E-01   1.00800           0
     16344 MEMB     124      POPS     H2Y      HAL2     0.900000E-01   1.00800           0
     16345 MEMB     124      POPS     C23      CTL2    -0.180000       12.0110           0
     16346 MEMB     124      POPS     H3R      HAL2     0.900000E-01   1.00800           0
     16347 MEMB     124      POPS     H3S      HAL2     0.900000E-01   1.00800           0
     16348 MEMB     124      POPS     C24      CTL2    -0.180000       12.0110           0
     16349 MEMB     124      POPS     H4R      HAL2     0.900000E-01   1.00800           0
     16350 MEMB     124      POPS     H4S      HAL2     0.900000E-01   1.00800           0
     16351 MEMB     124      POPS     C25      CTL2    -0.180000       12.0110           0
     16352 MEMB     124      POPS     H5R      HAL2     0.900000E-01   1.00800           0
     16353 MEMB     124      POPS     H5S      HAL2     0.900000E-01   1.00800           0
     16354 MEMB     124      POPS     C26      CTL2    -0.180000       12.0110           0
     16355 MEMB     124      POPS     H6R      HAL2     0.900000E-01   1.00800           0
     16356 MEMB     124      POPS     H6S      HAL2     0.900000E-01   1.00800           0
     16357 MEMB     124      POPS     C27      CTL2    -0.180000       12.0110           0
     16358 MEMB     124      POPS     H7R      HAL2     0.900000E-01   1.00800           0
     16359 MEMB     124      POPS     H7S      HAL2     0.900000E-01   1.00800           0
     16360 MEMB     124      POPS     C28      CTL2    -0.180000       12.0110           0
     16361 MEMB     124      POPS     H8R      HAL2     0.900000E-01   1.00800           0
     16362 MEMB     124      POPS     H8S      HAL2     0.900000E-01   1.00800           0
     16363 MEMB     124      POPS     C29      CEL1    -0.150000       12.0110           0
     16364 MEMB     124      POPS     H91      HEL1     0.150000       1.00800           0
     16365 MEMB     124      POPS     C210     CEL1    -0.150000       12.0110           0
     16366 MEMB     124      POPS     H101     HEL1     0.150000       1.00800           0
     16367 MEMB     124      POPS     C211     CTL2    -0.180000       12.0110           0
     16368 MEMB     124      POPS     H11R     HAL2     0.900000E-01   1.00800           0
     16369 MEMB     124      POPS     H11S     HAL2     0.900000E-01   1.00800           0
     16370 MEMB     124      POPS     C212     CTL2    -0.180000       12.0110           0
     16371 MEMB     124      POPS     H12R     HAL2     0.900000E-01   1.00800           0
     16372 MEMB     124      POPS     H12S     HAL2     0.900000E-01   1.00800           0
     16373 MEMB     124      POPS     C213     CTL2    -0.180000       12.0110           0
     16374 MEMB     124      POPS     H13R     HAL2     0.900000E-01   1.00800           0
     16375 MEMB     124      POPS     H13S     HAL2     0.900000E-01   1.00800           0
     16376 MEMB     124      POPS     C214     CTL2    -0.180000       12.0110           0
     16377 MEMB     124      POPS     H14R     HAL2     0.900000E-01   1.00800           0
     16378 MEMB     124      POPS     H14S     HAL2     0.900000E-01   1.00800           0
     16379 MEMB     124      POPS     C215     CTL2    -0.180000       12.0110           0
     16380 MEMB     124      POPS     H15R     HAL2     0.900000E-01   1.00800           0
     16381 MEMB     124      POPS     H15S     HAL2     0.900000E-01   1.00800           0
     16382 MEMB     124      POPS     C216     CTL2    -0.180000       12.0110           0
     16383 MEMB     124      POPS     H16R     HAL2     0.900000E-01   1.00800           0
     16384 MEMB     124      POPS     H16S     HAL2     0.900000E-01   1.00800           0
     16385 MEMB     124      POPS     C217     CTL2    -0.180000       12.0110           0
     16386 MEMB     124      POPS     H17R     HAL2     0.900000E-01   1.00800           0
     16387 MEMB     124      POPS     H17S     HAL2     0.900000E-01   1.00800           0
     16388 MEMB     124      POPS     C218     CTL3    -0.270000       12.0110           0
     16389 MEMB     124      POPS     H18R     HAL3     0.900000E-01   1.00800           0
     16390 MEMB     124      POPS     H18S     HAL3     0.900000E-01   1.00800           0
     16391 MEMB     124      POPS     H18T     HAL3     0.900000E-01   1.00800           0
     16392 MEMB     124      POPS     C33      CTL2    -0.180000       12.0110           0
     16393 MEMB     124      POPS     H3X      HAL2     0.900000E-01   1.00800           0
     16394 MEMB     124      POPS     H3Y      HAL2     0.900000E-01   1.00800           0
     16395 MEMB     124      POPS     C34      CTL2    -0.180000       12.0110           0
     16396 MEMB     124      POPS     H4X      HAL2     0.900000E-01   1.00800           0
     16397 MEMB     124      POPS     H4Y      HAL2     0.900000E-01   1.00800           0
     16398 MEMB     124      POPS     C35      CTL2    -0.180000       12.0110           0
     16399 MEMB     124      POPS     H5X      HAL2     0.900000E-01   1.00800           0
     16400 MEMB     124      POPS     H5Y      HAL2     0.900000E-01   1.00800           0
     16401 MEMB     124      POPS     C36      CTL2    -0.180000       12.0110           0
     16402 MEMB     124      POPS     H6X      HAL2     0.900000E-01   1.00800           0
     16403 MEMB     124      POPS     H6Y      HAL2     0.900000E-01   1.00800           0
     16404 MEMB     124      POPS     C37      CTL2    -0.180000       12.0110           0
     16405 MEMB     124      POPS     H7X      HAL2     0.900000E-01   1.00800           0
     16406 MEMB     124      POPS     H7Y      HAL2     0.900000E-01   1.00800           0
     16407 MEMB     124      POPS     C38      CTL2    -0.180000       12.0110           0
     16408 MEMB     124      POPS     H8X      HAL2     0.900000E-01   1.00800           0
     16409 MEMB     124      POPS     H8Y      HAL2     0.900000E-01   1.00800           0
     16410 MEMB     124      POPS     C39      CTL2    -0.180000       12.0110           0
     16411 MEMB     124      POPS     H9X      HAL2     0.900000E-01   1.00800           0
     16412 MEMB     124      POPS     H9Y      HAL2     0.900000E-01   1.00800           0
     16413 MEMB     124      POPS     C310     CTL2    -0.180000       12.0110           0
     16414 MEMB     124      POPS     H10X     HAL2     0.900000E-01   1.00800           0
     16415 MEMB     124      POPS     H10Y     HAL2     0.900000E-01   1.00800           0
     16416 MEMB     124      POPS     C311     CTL2    -0.180000       12.0110           0
     16417 MEMB     124      POPS     H11X     HAL2     0.900000E-01   1.00800           0
     16418 MEMB     124      POPS     H11Y     HAL2     0.900000E-01   1.00800           0
     16419 MEMB     124      POPS     C312     CTL2    -0.180000       12.0110           0
     16420 MEMB     124      POPS     H12X     HAL2     0.900000E-01   1.00800           0
     16421 MEMB     124      POPS     H12Y     HAL2     0.900000E-01   1.00800           0
     16422 MEMB     124      POPS     C313     CTL2    -0.180000       12.0110           0
     16423 MEMB     124      POPS     H13X     HAL2     0.900000E-01   1.00800           0
     16424 MEMB     124      POPS     H13Y     HAL2     0.900000E-01   1.00800           0
     16425 MEMB     124      POPS     C314     CTL2    -0.180000       12.0110           0
     16426 MEMB     124      POPS     H14X     HAL2     0.900000E-01   1.00800           0
     16427 MEMB     124      POPS     H14Y     HAL2     0.900000E-01   1.00800           0
     16428 MEMB     124      POPS     C315     CTL2    -0.180000       12.0110           0
     16429 MEMB     124      POPS     H15X     HAL2     0.900000E-01   1.00800           0
     16430 MEMB     124      POPS     H15Y     HAL2     0.900000E-01   1.00800           0
     16431 MEMB     124      POPS     C316     CTL3    -0.270000       12.0110           0
     16432 MEMB     124      POPS     H16X     HAL3     0.900000E-01   1.00800           0
     16433 MEMB     124      POPS     H16Y     HAL3     0.900000E-01   1.00800           0
     16434 MEMB     124      POPS     H16Z     HAL3     0.900000E-01   1.00800           0
     16435 MEMB     125      POPC     N        NTL     -0.600000       14.0070           0
     16436 MEMB     125      POPC     C12      CTL2    -0.100000       12.0110           0
     16437 MEMB     125      POPC     H12A     HL       0.250000       1.00800           0
     16438 MEMB     125      POPC     H12B     HL       0.250000       1.00800           0
     16439 MEMB     125      POPC     C13      CTL5    -0.350000       12.0110           0
     16440 MEMB     125      POPC     H13A     HL       0.250000       1.00800           0
     16441 MEMB     125      POPC     H13B     HL       0.250000       1.00800           0
     16442 MEMB     125      POPC     H13C     HL       0.250000       1.00800           0
     16443 MEMB     125      POPC     C14      CTL5    -0.350000       12.0110           0
     16444 MEMB     125      POPC     H14A     HL       0.250000       1.00800           0
     16445 MEMB     125      POPC     H14B     HL       0.250000       1.00800           0
     16446 MEMB     125      POPC     H14C     HL       0.250000       1.00800           0
     16447 MEMB     125      POPC     C15      CTL5    -0.350000       12.0110           0
     16448 MEMB     125      POPC     H15A     HL       0.250000       1.00800           0
     16449 MEMB     125      POPC     H15B     HL       0.250000       1.00800           0
     16450 MEMB     125      POPC     H15C     HL       0.250000       1.00800           0
     16451 MEMB     125      POPC     C11      CTL2    -0.800000E-01   12.0110           0
     16452 MEMB     125      POPC     H11A     HAL2     0.900000E-01   1.00800           0
     16453 MEMB     125      POPC     H11B     HAL2     0.900000E-01   1.00800           0
     16454 MEMB     125      POPC     P        PL        1.50000       30.9740           0
     16455 MEMB     125      POPC     O13      O2L     -0.780000       15.9994           0
     16456 MEMB     125      POPC     O14      O2L     -0.780000       15.9994           0
     16457 MEMB     125      POPC     O12      OSLP    -0.570000       15.9994           0
     16458 MEMB     125      POPC     O11      OSLP    -0.570000       15.9994           0
     16459 MEMB     125      POPC     C1       CTL2    -0.800000E-01   12.0110           0
     16460 MEMB     125      POPC     HA       HAL2     0.900000E-01   1.00800           0
     16461 MEMB     125      POPC     HB       HAL2     0.900000E-01   1.00800           0
     16462 MEMB     125      POPC     C2       CTL1     0.170000       12.0110           0
     16463 MEMB     125      POPC     HS       HAL1     0.900000E-01   1.00800           0
     16464 MEMB     125      POPC     O21      OSL     -0.490000       15.9994           0
     16465 MEMB     125      POPC     C21      CL       0.900000       12.0110           0
     16466 MEMB     125      POPC     O22      OBL     -0.630000       15.9994           0
     16467 MEMB     125      POPC     C22      CTL2    -0.220000       12.0110           0
     16468 MEMB     125      POPC     H2R      HAL2     0.900000E-01   1.00800           0
     16469 MEMB     125      POPC     H2S      HAL2     0.900000E-01   1.00800           0
     16470 MEMB     125      POPC     C3       CTL2     0.800000E-01   12.0110           0
     16471 MEMB     125      POPC     HX       HAL2     0.900000E-01   1.00800           0
     16472 MEMB     125      POPC     HY       HAL2     0.900000E-01   1.00800           0
     16473 MEMB     125      POPC     O31      OSL     -0.490000       15.9994           0
     16474 MEMB     125      POPC     C31      CL       0.900000       12.0110           0
     16475 MEMB     125      POPC     O32      OBL     -0.630000       15.9994           0
     16476 MEMB     125      POPC     C32      CTL2    -0.220000       12.0110           0
     16477 MEMB     125      POPC     H2X      HAL2     0.900000E-01   1.00800           0
     16478 MEMB     125      POPC     H2Y      HAL2     0.900000E-01   1.00800           0
     16479 MEMB     125      POPC     C23      CTL2    -0.180000       12.0110           0
     16480 MEMB     125      POPC     H3R      HAL2     0.900000E-01   1.00800           0
     16481 MEMB     125      POPC     H3S      HAL2     0.900000E-01   1.00800           0
     16482 MEMB     125      POPC     C24      CTL2    -0.180000       12.0110           0
     16483 MEMB     125      POPC     H4R      HAL2     0.900000E-01   1.00800           0
     16484 MEMB     125      POPC     H4S      HAL2     0.900000E-01   1.00800           0
     16485 MEMB     125      POPC     C25      CTL2    -0.180000       12.0110           0
     16486 MEMB     125      POPC     H5R      HAL2     0.900000E-01   1.00800           0
     16487 MEMB     125      POPC     H5S      HAL2     0.900000E-01   1.00800           0
     16488 MEMB     125      POPC     C26      CTL2    -0.180000       12.0110           0
     16489 MEMB     125      POPC     H6R      HAL2     0.900000E-01   1.00800           0
     16490 MEMB     125      POPC     H6S      HAL2     0.900000E-01   1.00800           0
     16491 MEMB     125      POPC     C27      CTL2    -0.180000       12.0110           0
     16492 MEMB     125      POPC     H7R      HAL2     0.900000E-01   1.00800           0
     16493 MEMB     125      POPC     H7S      HAL2     0.900000E-01   1.00800           0
     16494 MEMB     125      POPC     C28      CTL2    -0.180000       12.0110           0
     16495 MEMB     125      POPC     H8R      HAL2     0.900000E-01   1.00800           0
     16496 MEMB     125      POPC     H8S      HAL2     0.900000E-01   1.00800           0
     16497 MEMB     125      POPC     C29      CEL1    -0.150000       12.0110           0
     16498 MEMB     125      POPC     H91      HEL1     0.150000       1.00800           0
     16499 MEMB     125      POPC     C210     CEL1    -0.150000       12.0110           0
     16500 MEMB     125      POPC     H101     HEL1     0.150000       1.00800           0
     16501 MEMB     125      POPC     C211     CTL2    -0.180000       12.0110           0
     16502 MEMB     125      POPC     H11R     HAL2     0.900000E-01   1.00800           0
     16503 MEMB     125      POPC     H11S     HAL2     0.900000E-01   1.00800           0
     16504 MEMB     125      POPC     C212     CTL2    -0.180000       12.0110           0
     16505 MEMB     125      POPC     H12R     HAL2     0.900000E-01   1.00800           0
     16506 MEMB     125      POPC     H12S     HAL2     0.900000E-01   1.00800           0
     16507 MEMB     125      POPC     C213     CTL2    -0.180000       12.0110           0
     16508 MEMB     125      POPC     H13R     HAL2     0.900000E-01   1.00800           0
     16509 MEMB     125      POPC     H13S     HAL2     0.900000E-01   1.00800           0
     16510 MEMB     125      POPC     C214     CTL2    -0.180000       12.0110           0
     16511 MEMB     125      POPC     H14R     HAL2     0.900000E-01   1.00800           0
     16512 MEMB     125      POPC     H14S     HAL2     0.900000E-01   1.00800           0
     16513 MEMB     125      POPC     C215     CTL2    -0.180000       12.0110           0
     16514 MEMB     125      POPC     H15R     HAL2     0.900000E-01   1.00800           0
     16515 MEMB     125      POPC     H15S     HAL2     0.900000E-01   1.00800           0
     16516 MEMB     125      POPC     C216     CTL2    -0.180000       12.0110           0
     16517 MEMB     125      POPC     H16R     HAL2     0.900000E-01   1.00800           0
     16518 MEMB     125      POPC     H16S     HAL2     0.900000E-01   1.00800           0
     16519 MEMB     125      POPC     C217     CTL2    -0.180000       12.0110           0
     16520 MEMB     125      POPC     H17R     HAL2     0.900000E-01   1.00800           0
     16521 MEMB     125      POPC     H17S     HAL2     0.900000E-01   1.00800           0
     16522 MEMB     125      POPC     C218     CTL3    -0.270000       12.0110           0
     16523 MEMB     125      POPC     H18R     HAL3     0.900000E-01   1.00800           0
     16524 MEMB     125      POPC     H18S     HAL3     0.900000E-01   1.00800           0
     16525 MEMB     125      POPC     H18T     HAL3     0.900000E-01   1.00800           0
     16526 MEMB     125      POPC     C33      CTL2    -0.180000       12.0110           0
     16527 MEMB     125      POPC     H3X      HAL2     0.900000E-01   1.00800           0
     16528 MEMB     125      POPC     H3Y      HAL2     0.900000E-01   1.00800           0
     16529 MEMB     125      POPC     C34      CTL2    -0.180000       12.0110           0
     16530 MEMB     125      POPC     H4X      HAL2     0.900000E-01   1.00800           0
     16531 MEMB     125      POPC     H4Y      HAL2     0.900000E-01   1.00800           0
     16532 MEMB     125      POPC     C35      CTL2    -0.180000       12.0110           0
     16533 MEMB     125      POPC     H5X      HAL2     0.900000E-01   1.00800           0
     16534 MEMB     125      POPC     H5Y      HAL2     0.900000E-01   1.00800           0
     16535 MEMB     125      POPC     C36      CTL2    -0.180000       12.0110           0
     16536 MEMB     125      POPC     H6X      HAL2     0.900000E-01   1.00800           0
     16537 MEMB     125      POPC     H6Y      HAL2     0.900000E-01   1.00800           0
     16538 MEMB     125      POPC     C37      CTL2    -0.180000       12.0110           0
     16539 MEMB     125      POPC     H7X      HAL2     0.900000E-01   1.00800           0
     16540 MEMB     125      POPC     H7Y      HAL2     0.900000E-01   1.00800           0
     16541 MEMB     125      POPC     C38      CTL2    -0.180000       12.0110           0
     16542 MEMB     125      POPC     H8X      HAL2     0.900000E-01   1.00800           0
     16543 MEMB     125      POPC     H8Y      HAL2     0.900000E-01   1.00800           0
     16544 MEMB     125      POPC     C39      CTL2    -0.180000       12.0110           0
     16545 MEMB     125      POPC     H9X      HAL2     0.900000E-01   1.00800           0
     16546 MEMB     125      POPC     H9Y      HAL2     0.900000E-01   1.00800           0
     16547 MEMB     125      POPC     C310     CTL2    -0.180000       12.0110           0
     16548 MEMB     125      POPC     H10X     HAL2     0.900000E-01   1.00800           0
     16549 MEMB     125      POPC     H10Y     HAL2     0.900000E-01   1.00800           0
     16550 MEMB     125      POPC     C311     CTL2    -0.180000       12.0110           0
     16551 MEMB     125      POPC     H11X     HAL2     0.900000E-01   1.00800           0
     16552 MEMB     125      POPC     H11Y     HAL2     0.900000E-01   1.00800           0
     16553 MEMB     125      POPC     C312     CTL2    -0.180000       12.0110           0
     16554 MEMB     125      POPC     H12X     HAL2     0.900000E-01   1.00800           0
     16555 MEMB     125      POPC     H12Y     HAL2     0.900000E-01   1.00800           0
     16556 MEMB     125      POPC     C313     CTL2    -0.180000       12.0110           0
     16557 MEMB     125      POPC     H13X     HAL2     0.900000E-01   1.00800           0
     16558 MEMB     125      POPC     H13Y     HAL2     0.900000E-01   1.00800           0
     16559 MEMB     125      POPC     C314     CTL2    -0.180000       12.0110           0
     16560 MEMB     125      POPC     H14X     HAL2     0.900000E-01   1.00800           0
     16561 MEMB     125      POPC     H14Y     HAL2     0.900000E-01   1.00800           0
     16562 MEMB     125      POPC     C315     CTL2    -0.180000       12.0110           0
     16563 MEMB     125      POPC     H15X     HAL2     0.900000E-01   1.00800           0
     16564 MEMB     125      POPC     H15Y     HAL2     0.900000E-01   1.00800           0
     16565 MEMB     125      POPC     C316     CTL3    -0.270000       12.0110           0
     16566 MEMB     125      POPC     H16X     HAL3     0.900000E-01   1.00800           0
     16567 MEMB     125      POPC     H16Y     HAL3     0.900000E-01   1.00800           0
     16568 MEMB     125      POPC     H16Z     HAL3     0.900000E-01   1.00800           0
     16569 MEMB     126      POPC     N        NTL     -0.600000       14.0070           0
     16570 MEMB     126      POPC     C12      CTL2    -0.100000       12.0110           0
     16571 MEMB     126      POPC     H12A     HL       0.250000       1.00800           0
     16572 MEMB     126      POPC     H12B     HL       0.250000       1.00800           0
     16573 MEMB     126      POPC     C13      CTL5    -0.350000       12.0110           0
     16574 MEMB     126      POPC     H13A     HL       0.250000       1.00800           0
     16575 MEMB     126      POPC     H13B     HL       0.250000       1.00800           0
     16576 MEMB     126      POPC     H13C     HL       0.250000       1.00800           0
     16577 MEMB     126      POPC     C14      CTL5    -0.350000       12.0110           0
     16578 MEMB     126      POPC     H14A     HL       0.250000       1.00800           0
     16579 MEMB     126      POPC     H14B     HL       0.250000       1.00800           0
     16580 MEMB     126      POPC     H14C     HL       0.250000       1.00800           0
     16581 MEMB     126      POPC     C15      CTL5    -0.350000       12.0110           0
     16582 MEMB     126      POPC     H15A     HL       0.250000       1.00800           0
     16583 MEMB     126      POPC     H15B     HL       0.250000       1.00800           0
     16584 MEMB     126      POPC     H15C     HL       0.250000       1.00800           0
     16585 MEMB     126      POPC     C11      CTL2    -0.800000E-01   12.0110           0
     16586 MEMB     126      POPC     H11A     HAL2     0.900000E-01   1.00800           0
     16587 MEMB     126      POPC     H11B     HAL2     0.900000E-01   1.00800           0
     16588 MEMB     126      POPC     P        PL        1.50000       30.9740           0
     16589 MEMB     126      POPC     O13      O2L     -0.780000       15.9994           0
     16590 MEMB     126      POPC     O14      O2L     -0.780000       15.9994           0
     16591 MEMB     126      POPC     O12      OSLP    -0.570000       15.9994           0
     16592 MEMB     126      POPC     O11      OSLP    -0.570000       15.9994           0
     16593 MEMB     126      POPC     C1       CTL2    -0.800000E-01   12.0110           0
     16594 MEMB     126      POPC     HA       HAL2     0.900000E-01   1.00800           0
     16595 MEMB     126      POPC     HB       HAL2     0.900000E-01   1.00800           0
     16596 MEMB     126      POPC     C2       CTL1     0.170000       12.0110           0
     16597 MEMB     126      POPC     HS       HAL1     0.900000E-01   1.00800           0
     16598 MEMB     126      POPC     O21      OSL     -0.490000       15.9994           0
     16599 MEMB     126      POPC     C21      CL       0.900000       12.0110           0
     16600 MEMB     126      POPC     O22      OBL     -0.630000       15.9994           0
     16601 MEMB     126      POPC     C22      CTL2    -0.220000       12.0110           0
     16602 MEMB     126      POPC     H2R      HAL2     0.900000E-01   1.00800           0
     16603 MEMB     126      POPC     H2S      HAL2     0.900000E-01   1.00800           0
     16604 MEMB     126      POPC     C3       CTL2     0.800000E-01   12.0110           0
     16605 MEMB     126      POPC     HX       HAL2     0.900000E-01   1.00800           0
     16606 MEMB     126      POPC     HY       HAL2     0.900000E-01   1.00800           0
     16607 MEMB     126      POPC     O31      OSL     -0.490000       15.9994           0
     16608 MEMB     126      POPC     C31      CL       0.900000       12.0110           0
     16609 MEMB     126      POPC     O32      OBL     -0.630000       15.9994           0
     16610 MEMB     126      POPC     C32      CTL2    -0.220000       12.0110           0
     16611 MEMB     126      POPC     H2X      HAL2     0.900000E-01   1.00800           0
     16612 MEMB     126      POPC     H2Y      HAL2     0.900000E-01   1.00800           0
     16613 MEMB     126      POPC     C23      CTL2    -0.180000       12.0110           0
     16614 MEMB     126      POPC     H3R      HAL2     0.900000E-01   1.00800           0
     16615 MEMB     126      POPC     H3S      HAL2     0.900000E-01   1.00800           0
     16616 MEMB     126      POPC     C24      CTL2    -0.180000       12.0110           0
     16617 MEMB     126      POPC     H4R      HAL2     0.900000E-01   1.00800           0
     16618 MEMB     126      POPC     H4S      HAL2     0.900000E-01   1.00800           0
     16619 MEMB     126      POPC     C25      CTL2    -0.180000       12.0110           0
     16620 MEMB     126      POPC     H5R      HAL2     0.900000E-01   1.00800           0
     16621 MEMB     126      POPC     H5S      HAL2     0.900000E-01   1.00800           0
     16622 MEMB     126      POPC     C26      CTL2    -0.180000       12.0110           0
     16623 MEMB     126      POPC     H6R      HAL2     0.900000E-01   1.00800           0
     16624 MEMB     126      POPC     H6S      HAL2     0.900000E-01   1.00800           0
     16625 MEMB     126      POPC     C27      CTL2    -0.180000       12.0110           0
     16626 MEMB     126      POPC     H7R      HAL2     0.900000E-01   1.00800           0
     16627 MEMB     126      POPC     H7S      HAL2     0.900000E-01   1.00800           0
     16628 MEMB     126      POPC     C28      CTL2    -0.180000       12.0110           0
     16629 MEMB     126      POPC     H8R      HAL2     0.900000E-01   1.00800           0
     16630 MEMB     126      POPC     H8S      HAL2     0.900000E-01   1.00800           0
     16631 MEMB     126      POPC     C29      CEL1    -0.150000       12.0110           0
     16632 MEMB     126      POPC     H91      HEL1     0.150000       1.00800           0
     16633 MEMB     126      POPC     C210     CEL1    -0.150000       12.0110           0
     16634 MEMB     126      POPC     H101     HEL1     0.150000       1.00800           0
     16635 MEMB     126      POPC     C211     CTL2    -0.180000       12.0110           0
     16636 MEMB     126      POPC     H11R     HAL2     0.900000E-01   1.00800           0
     16637 MEMB     126      POPC     H11S     HAL2     0.900000E-01   1.00800           0
     16638 MEMB     126      POPC     C212     CTL2    -0.180000       12.0110           0
     16639 MEMB     126      POPC     H12R     HAL2     0.900000E-01   1.00800           0
     16640 MEMB     126      POPC     H12S     HAL2     0.900000E-01   1.00800           0
     16641 MEMB     126      POPC     C213     CTL2    -0.180000       12.0110           0
     16642 MEMB     126      POPC     H13R     HAL2     0.900000E-01   1.00800           0
     16643 MEMB     126      POPC     H13S     HAL2     0.900000E-01   1.00800           0
     16644 MEMB     126      POPC     C214     CTL2    -0.180000       12.0110           0
     16645 MEMB     126      POPC     H14R     HAL2     0.900000E-01   1.00800           0
     16646 MEMB     126      POPC     H14S     HAL2     0.900000E-01   1.00800           0
     16647 MEMB     126      POPC     C215     CTL2    -0.180000       12.0110           0
     16648 MEMB     126      POPC     H15R     HAL2     0.900000E-01   1.00800           0
     16649 MEMB     126      POPC     H15S     HAL2     0.900000E-01   1.00800           0
     16650 MEMB     126      POPC     C216     CTL2    -0.180000       12.0110           0
     16651 MEMB     126      POPC     H16R     HAL2     0.900000E-01   1.00800           0
     16652 MEMB     126      POPC     H16S     HAL2     0.900000E-01   1.00800           0
     16653 MEMB     126      POPC     C217     CTL2    -0.180000       12.0110           0
     16654 MEMB     126      POPC     H17R     HAL2     0.900000E-01   1.00800           0
     16655 MEMB     126      POPC     H17S     HAL2     0.900000E-01   1.00800           0
     16656 MEMB     126      POPC     C218     CTL3    -0.270000       12.0110           0
     16657 MEMB     126      POPC     H18R     HAL3     0.900000E-01   1.00800           0
     16658 MEMB     126      POPC     H18S     HAL3     0.900000E-01   1.00800           0
     16659 MEMB     126      POPC     H18T     HAL3     0.900000E-01   1.00800           0
     16660 MEMB     126      POPC     C33      CTL2    -0.180000       12.0110           0
     16661 MEMB     126      POPC     H3X      HAL2     0.900000E-01   1.00800           0
     16662 MEMB     126      POPC     H3Y      HAL2     0.900000E-01   1.00800           0
     16663 MEMB     126      POPC     C34      CTL2    -0.180000       12.0110           0
     16664 MEMB     126      POPC     H4X      HAL2     0.900000E-01   1.00800           0
     16665 MEMB     126      POPC     H4Y      HAL2     0.900000E-01   1.00800           0
     16666 MEMB     126      POPC     C35      CTL2    -0.180000       12.0110           0
     16667 MEMB     126      POPC     H5X      HAL2     0.900000E-01   1.00800           0
     16668 MEMB     126      POPC     H5Y      HAL2     0.900000E-01   1.00800           0
     16669 MEMB     126      POPC     C36      CTL2    -0.180000       12.0110           0
     16670 MEMB     126      POPC     H6X      HAL2     0.900000E-01   1.00800           0
     16671 MEMB     126      POPC     H6Y      HAL2     0.900000E-01   1.00800           0
     16672 MEMB     126      POPC     C37      CTL2    -0.180000       12.0110           0
     16673 MEMB     126      POPC     H7X      HAL2     0.900000E-01   1.00800           0
     16674 MEMB     126      POPC     H7Y      HAL2     0.900000E-01   1.00800           0
     16675 MEMB     126      POPC     C38      CTL2    -0.180000       12.0110           0
     16676 MEMB     126      POPC     H8X      HAL2     0.900000E-01   1.00800           0
     16677 MEMB     126      POPC     H8Y      HAL2     0.900000E-01   1.00800           0
     16678 MEMB     126      POPC     C39      CTL2    -0.180000       12.0110           0
     16679 MEMB     126      POPC     H9X      HAL2     0.900000E-01   1.00800           0
     16680 MEMB     126      POPC     H9Y      HAL2     0.900000E-01   1.00800           0
     16681 MEMB     126      POPC     C310     CTL2    -0.180000       12.0110           0
     16682 MEMB     126      POPC     H10X     HAL2     0.900000E-01   1.00800           0
     16683 MEMB     126      POPC     H10Y     HAL2     0.900000E-01   1.00800           0
     16684 MEMB     126      POPC     C311     CTL2    -0.180000       12.0110           0
     16685 MEMB     126      POPC     H11X     HAL2     0.900000E-01   1.00800           0
     16686 MEMB     126      POPC     H11Y     HAL2     0.900000E-01   1.00800           0
     16687 MEMB     126      POPC     C312     CTL2    -0.180000       12.0110           0
     16688 MEMB     126      POPC     H12X     HAL2     0.900000E-01   1.00800           0
     16689 MEMB     126      POPC     H12Y     HAL2     0.900000E-01   1.00800           0
     16690 MEMB     126      POPC     C313     CTL2    -0.180000       12.0110           0
     16691 MEMB     126      POPC     H13X     HAL2     0.900000E-01   1.00800           0
     16692 MEMB     126      POPC     H13Y     HAL2     0.900000E-01   1.00800           0
     16693 MEMB     126      POPC     C314     CTL2    -0.180000       12.0110           0
     16694 MEMB     126      POPC     H14X     HAL2     0.900000E-01   1.00800           0
     16695 MEMB     126      POPC     H14Y     HAL2     0.900000E-01   1.00800           0
     16696 MEMB     126      POPC     C315     CTL2    -0.180000       12.0110           0
     16697 MEMB     126      POPC     H15X     HAL2     0.900000E-01   1.00800           0
     16698 MEMB     126      POPC     H15Y     HAL2     0.900000E-01   1.00800           0
     16699 MEMB     126      POPC     C316     CTL3    -0.270000       12.0110           0
     16700 MEMB     126      POPC     H16X     HAL3     0.900000E-01   1.00800           0
     16701 MEMB     126      POPC     H16Y     HAL3     0.900000E-01   1.00800           0
     16702 MEMB     126      POPC     H16Z     HAL3     0.900000E-01   1.00800           0
     16703 MEMB     127      POPS     N        NH3L    -0.300000       14.0070           0
     16704 MEMB     127      POPS     HN1      HCL      0.330000       1.00800           0
     16705 MEMB     127      POPS     HN2      HCL      0.330000       1.00800           0
     16706 MEMB     127      POPS     HN3      HCL      0.330000       1.00800           0
     16707 MEMB     127      POPS     C12      CTL1     0.210000       12.0110           0
     16708 MEMB     127      POPS     H12A     HBL      0.100000       1.00800           0
     16709 MEMB     127      POPS     C13      CCL      0.340000       12.0110           0
     16710 MEMB     127      POPS     O13A     OCL     -0.670000       15.9994           0
     16711 MEMB     127      POPS     O13B     OCL     -0.670000       15.9994           0
     16712 MEMB     127      POPS     C11      CTL2    -0.800000E-01   12.0110           0
     16713 MEMB     127      POPS     H11A     HAL2     0.900000E-01   1.00800           0
     16714 MEMB     127      POPS     H11B     HAL2     0.900000E-01   1.00800           0
     16715 MEMB     127      POPS     P        PL        1.50000       30.9740           0
     16716 MEMB     127      POPS     O13      O2L     -0.780000       15.9994           0
     16717 MEMB     127      POPS     O14      O2L     -0.780000       15.9994           0
     16718 MEMB     127      POPS     O12      OSLP    -0.570000       15.9994           0
     16719 MEMB     127      POPS     O11      OSLP    -0.570000       15.9994           0
     16720 MEMB     127      POPS     C1       CTL2    -0.800000E-01   12.0110           0
     16721 MEMB     127      POPS     HA       HAL2     0.900000E-01   1.00800           0
     16722 MEMB     127      POPS     HB       HAL2     0.900000E-01   1.00800           0
     16723 MEMB     127      POPS     C2       CTL1     0.170000       12.0110           0
     16724 MEMB     127      POPS     HS       HAL1     0.900000E-01   1.00800           0
     16725 MEMB     127      POPS     O21      OSL     -0.490000       15.9994           0
     16726 MEMB     127      POPS     C21      CL       0.900000       12.0110           0
     16727 MEMB     127      POPS     O22      OBL     -0.630000       15.9994           0
     16728 MEMB     127      POPS     C22      CTL2    -0.220000       12.0110           0
     16729 MEMB     127      POPS     H2R      HAL2     0.900000E-01   1.00800           0
     16730 MEMB     127      POPS     H2S      HAL2     0.900000E-01   1.00800           0
     16731 MEMB     127      POPS     C3       CTL2     0.800000E-01   12.0110           0
     16732 MEMB     127      POPS     HX       HAL2     0.900000E-01   1.00800           0
     16733 MEMB     127      POPS     HY       HAL2     0.900000E-01   1.00800           0
     16734 MEMB     127      POPS     O31      OSL     -0.490000       15.9994           0
     16735 MEMB     127      POPS     C31      CL       0.900000       12.0110           0
     16736 MEMB     127      POPS     O32      OBL     -0.630000       15.9994           0
     16737 MEMB     127      POPS     C32      CTL2    -0.220000       12.0110           0
     16738 MEMB     127      POPS     H2X      HAL2     0.900000E-01   1.00800           0
     16739 MEMB     127      POPS     H2Y      HAL2     0.900000E-01   1.00800           0
     16740 MEMB     127      POPS     C23      CTL2    -0.180000       12.0110           0
     16741 MEMB     127      POPS     H3R      HAL2     0.900000E-01   1.00800           0
     16742 MEMB     127      POPS     H3S      HAL2     0.900000E-01   1.00800           0
     16743 MEMB     127      POPS     C24      CTL2    -0.180000       12.0110           0
     16744 MEMB     127      POPS     H4R      HAL2     0.900000E-01   1.00800           0
     16745 MEMB     127      POPS     H4S      HAL2     0.900000E-01   1.00800           0
     16746 MEMB     127      POPS     C25      CTL2    -0.180000       12.0110           0
     16747 MEMB     127      POPS     H5R      HAL2     0.900000E-01   1.00800           0
     16748 MEMB     127      POPS     H5S      HAL2     0.900000E-01   1.00800           0
     16749 MEMB     127      POPS     C26      CTL2    -0.180000       12.0110           0
     16750 MEMB     127      POPS     H6R      HAL2     0.900000E-01   1.00800           0
     16751 MEMB     127      POPS     H6S      HAL2     0.900000E-01   1.00800           0
     16752 MEMB     127      POPS     C27      CTL2    -0.180000       12.0110           0
     16753 MEMB     127      POPS     H7R      HAL2     0.900000E-01   1.00800           0
     16754 MEMB     127      POPS     H7S      HAL2     0.900000E-01   1.00800           0
     16755 MEMB     127      POPS     C28      CTL2    -0.180000       12.0110           0
     16756 MEMB     127      POPS     H8R      HAL2     0.900000E-01   1.00800           0
     16757 MEMB     127      POPS     H8S      HAL2     0.900000E-01   1.00800           0
     16758 MEMB     127      POPS     C29      CEL1    -0.150000       12.0110           0
     16759 MEMB     127      POPS     H91      HEL1     0.150000       1.00800           0
     16760 MEMB     127      POPS     C210     CEL1    -0.150000       12.0110           0
     16761 MEMB     127      POPS     H101     HEL1     0.150000       1.00800           0
     16762 MEMB     127      POPS     C211     CTL2    -0.180000       12.0110           0
     16763 MEMB     127      POPS     H11R     HAL2     0.900000E-01   1.00800           0
     16764 MEMB     127      POPS     H11S     HAL2     0.900000E-01   1.00800           0
     16765 MEMB     127      POPS     C212     CTL2    -0.180000       12.0110           0
     16766 MEMB     127      POPS     H12R     HAL2     0.900000E-01   1.00800           0
     16767 MEMB     127      POPS     H12S     HAL2     0.900000E-01   1.00800           0
     16768 MEMB     127      POPS     C213     CTL2    -0.180000       12.0110           0
     16769 MEMB     127      POPS     H13R     HAL2     0.900000E-01   1.00800           0
     16770 MEMB     127      POPS     H13S     HAL2     0.900000E-01   1.00800           0
     16771 MEMB     127      POPS     C214     CTL2    -0.180000       12.0110           0
     16772 MEMB     127      POPS     H14R     HAL2     0.900000E-01   1.00800           0
     16773 MEMB     127      POPS     H14S     HAL2     0.900000E-01   1.00800           0
     16774 MEMB     127      POPS     C215     CTL2    -0.180000       12.0110           0
     16775 MEMB     127      POPS     H15R     HAL2     0.900000E-01   1.00800           0
     16776 MEMB     127      POPS     H15S     HAL2     0.900000E-01   1.00800           0
     16777 MEMB     127      POPS     C216     CTL2    -0.180000       12.0110           0
     16778 MEMB     127      POPS     H16R     HAL2     0.900000E-01   1.00800           0
     16779 MEMB     127      POPS     H16S     HAL2     0.900000E-01   1.00800           0
     16780 MEMB     127      POPS     C217     CTL2    -0.180000       12.0110           0
     16781 MEMB     127      POPS     H17R     HAL2     0.900000E-01   1.00800           0
     16782 MEMB     127      POPS     H17S     HAL2     0.900000E-01   1.00800           0
     16783 MEMB     127      POPS     C218     CTL3    -0.270000       12.0110           0
     16784 MEMB     127      POPS     H18R     HAL3     0.900000E-01   1.00800           0
     16785 MEMB     127      POPS     H18S     HAL3     0.900000E-01   1.00800           0
     16786 MEMB     127      POPS     H18T     HAL3     0.900000E-01   1.00800           0
     16787 MEMB     127      POPS     C33      CTL2    -0.180000       12.0110           0
     16788 MEMB     127      POPS     H3X      HAL2     0.900000E-01   1.00800           0
     16789 MEMB     127      POPS     H3Y      HAL2     0.900000E-01   1.00800           0
     16790 MEMB     127      POPS     C34      CTL2    -0.180000       12.0110           0
     16791 MEMB     127      POPS     H4X      HAL2     0.900000E-01   1.00800           0
     16792 MEMB     127      POPS     H4Y      HAL2     0.900000E-01   1.00800           0
     16793 MEMB     127      POPS     C35      CTL2    -0.180000       12.0110           0
     16794 MEMB     127      POPS     H5X      HAL2     0.900000E-01   1.00800           0
     16795 MEMB     127      POPS     H5Y      HAL2     0.900000E-01   1.00800           0
     16796 MEMB     127      POPS     C36      CTL2    -0.180000       12.0110           0
     16797 MEMB     127      POPS     H6X      HAL2     0.900000E-01   1.00800           0
     16798 MEMB     127      POPS     H6Y      HAL2     0.900000E-01   1.00800           0
     16799 MEMB     127      POPS     C37      CTL2    -0.180000       12.0110           0
     16800 MEMB     127      POPS     H7X      HAL2     0.900000E-01   1.00800           0
     16801 MEMB     127      POPS     H7Y      HAL2     0.900000E-01   1.00800           0
     16802 MEMB     127      POPS     C38      CTL2    -0.180000       12.0110           0
     16803 MEMB     127      POPS     H8X      HAL2     0.900000E-01   1.00800           0
     16804 MEMB     127      POPS     H8Y      HAL2     0.900000E-01   1.00800           0
     16805 MEMB     127      POPS     C39      CTL2    -0.180000       12.0110           0
     16806 MEMB     127      POPS     H9X      HAL2     0.900000E-01   1.00800           0
     16807 MEMB     127      POPS     H9Y      HAL2     0.900000E-01   1.00800           0
     16808 MEMB     127      POPS     C310     CTL2    -0.180000       12.0110           0
     16809 MEMB     127      POPS     H10X     HAL2     0.900000E-01   1.00800           0
     16810 MEMB     127      POPS     H10Y     HAL2     0.900000E-01   1.00800           0
     16811 MEMB     127      POPS     C311     CTL2    -0.180000       12.0110           0
     16812 MEMB     127      POPS     H11X     HAL2     0.900000E-01   1.00800           0
     16813 MEMB     127      POPS     H11Y     HAL2     0.900000E-01   1.00800           0
     16814 MEMB     127      POPS     C312     CTL2    -0.180000       12.0110           0
     16815 MEMB     127      POPS     H12X     HAL2     0.900000E-01   1.00800           0
     16816 MEMB     127      POPS     H12Y     HAL2     0.900000E-01   1.00800           0
     16817 MEMB     127      POPS     C313     CTL2    -0.180000       12.0110           0
     16818 MEMB     127      POPS     H13X     HAL2     0.900000E-01   1.00800           0
     16819 MEMB     127      POPS     H13Y     HAL2     0.900000E-01   1.00800           0
     16820 MEMB     127      POPS     C314     CTL2    -0.180000       12.0110           0
     16821 MEMB     127      POPS     H14X     HAL2     0.900000E-01   1.00800           0
     16822 MEMB     127      POPS     H14Y     HAL2     0.900000E-01   1.00800           0
     16823 MEMB     127      POPS     C315     CTL2    -0.180000       12.0110           0
     16824 MEMB     127      POPS     H15X     HAL2     0.900000E-01   1.00800           0
     16825 MEMB     127      POPS     H15Y     HAL2     0.900000E-01   1.00800           0
     16826 MEMB     127      POPS     C316     CTL3    -0.270000       12.0110           0
     16827 MEMB     127      POPS     H16X     HAL3     0.900000E-01   1.00800           0
     16828 MEMB     127      POPS     H16Y     HAL3     0.900000E-01   1.00800           0
     16829 MEMB     127      POPS     H16Z     HAL3     0.900000E-01   1.00800           0
     16830 MEMB     128      POPC     N        NTL     -0.600000       14.0070           0
     16831 MEMB     128      POPC     C12      CTL2    -0.100000       12.0110           0
     16832 MEMB     128      POPC     H12A     HL       0.250000       1.00800           0
     16833 MEMB     128      POPC     H12B     HL       0.250000       1.00800           0
     16834 MEMB     128      POPC     C13      CTL5    -0.350000       12.0110           0
     16835 MEMB     128      POPC     H13A     HL       0.250000       1.00800           0
     16836 MEMB     128      POPC     H13B     HL       0.250000       1.00800           0
     16837 MEMB     128      POPC     H13C     HL       0.250000       1.00800           0
     16838 MEMB     128      POPC     C14      CTL5    -0.350000       12.0110           0
     16839 MEMB     128      POPC     H14A     HL       0.250000       1.00800           0
     16840 MEMB     128      POPC     H14B     HL       0.250000       1.00800           0
     16841 MEMB     128      POPC     H14C     HL       0.250000       1.00800           0
     16842 MEMB     128      POPC     C15      CTL5    -0.350000       12.0110           0
     16843 MEMB     128      POPC     H15A     HL       0.250000       1.00800           0
     16844 MEMB     128      POPC     H15B     HL       0.250000       1.00800           0
     16845 MEMB     128      POPC     H15C     HL       0.250000       1.00800           0
     16846 MEMB     128      POPC     C11      CTL2    -0.800000E-01   12.0110           0
     16847 MEMB     128      POPC     H11A     HAL2     0.900000E-01   1.00800           0
     16848 MEMB     128      POPC     H11B     HAL2     0.900000E-01   1.00800           0
     16849 MEMB     128      POPC     P        PL        1.50000       30.9740           0
     16850 MEMB     128      POPC     O13      O2L     -0.780000       15.9994           0
     16851 MEMB     128      POPC     O14      O2L     -0.780000       15.9994           0
     16852 MEMB     128      POPC     O12      OSLP    -0.570000       15.9994           0
     16853 MEMB     128      POPC     O11      OSLP    -0.570000       15.9994           0
     16854 MEMB     128      POPC     C1       CTL2    -0.800000E-01   12.0110           0
     16855 MEMB     128      POPC     HA       HAL2     0.900000E-01   1.00800           0
     16856 MEMB     128      POPC     HB       HAL2     0.900000E-01   1.00800           0
     16857 MEMB     128      POPC     C2       CTL1     0.170000       12.0110           0
     16858 MEMB     128      POPC     HS       HAL1     0.900000E-01   1.00800           0
     16859 MEMB     128      POPC     O21      OSL     -0.490000       15.9994           0
     16860 MEMB     128      POPC     C21      CL       0.900000       12.0110           0
     16861 MEMB     128      POPC     O22      OBL     -0.630000       15.9994           0
     16862 MEMB     128      POPC     C22      CTL2    -0.220000       12.0110           0
     16863 MEMB     128      POPC     H2R      HAL2     0.900000E-01   1.00800           0
     16864 MEMB     128      POPC     H2S      HAL2     0.900000E-01   1.00800           0
     16865 MEMB     128      POPC     C3       CTL2     0.800000E-01   12.0110           0
     16866 MEMB     128      POPC     HX       HAL2     0.900000E-01   1.00800           0
     16867 MEMB     128      POPC     HY       HAL2     0.900000E-01   1.00800           0
     16868 MEMB     128      POPC     O31      OSL     -0.490000       15.9994           0
     16869 MEMB     128      POPC     C31      CL       0.900000       12.0110           0
     16870 MEMB     128      POPC     O32      OBL     -0.630000       15.9994           0
     16871 MEMB     128      POPC     C32      CTL2    -0.220000       12.0110           0
     16872 MEMB     128      POPC     H2X      HAL2     0.900000E-01   1.00800           0
     16873 MEMB     128      POPC     H2Y      HAL2     0.900000E-01   1.00800           0
     16874 MEMB     128      POPC     C23      CTL2    -0.180000       12.0110           0
     16875 MEMB     128      POPC     H3R      HAL2     0.900000E-01   1.00800           0
     16876 MEMB     128      POPC     H3S      HAL2     0.900000E-01   1.00800           0
     16877 MEMB     128      POPC     C24      CTL2    -0.180000       12.0110           0
     16878 MEMB     128      POPC     H4R      HAL2     0.900000E-01   1.00800           0
     16879 MEMB     128      POPC     H4S      HAL2     0.900000E-01   1.00800           0
     16880 MEMB     128      POPC     C25      CTL2    -0.180000       12.0110           0
     16881 MEMB     128      POPC     H5R      HAL2     0.900000E-01   1.00800           0
     16882 MEMB     128      POPC     H5S      HAL2     0.900000E-01   1.00800           0
     16883 MEMB     128      POPC     C26      CTL2    -0.180000       12.0110           0
     16884 MEMB     128      POPC     H6R      HAL2     0.900000E-01   1.00800           0
     16885 MEMB     128      POPC     H6S      HAL2     0.900000E-01   1.00800           0
     16886 MEMB     128      POPC     C27      CTL2    -0.180000       12.0110           0
     16887 MEMB     128      POPC     H7R      HAL2     0.900000E-01   1.00800           0
     16888 MEMB     128      POPC     H7S      HAL2     0.900000E-01   1.00800           0
     16889 MEMB     128      POPC     C28      CTL2    -0.180000       12.0110           0
     16890 MEMB     128      POPC     H8R      HAL2     0.900000E-01   1.00800           0
     16891 MEMB     128      POPC     H8S      HAL2     0.900000E-01   1.00800           0
     16892 MEMB     128      POPC     C29      CEL1    -0.150000       12.0110           0
     16893 MEMB     128      POPC     H91      HEL1     0.150000       1.00800           0
     16894 MEMB     128      POPC     C210     CEL1    -0.150000       12.0110           0
     16895 MEMB     128      POPC     H101     HEL1     0.150000       1.00800           0
     16896 MEMB     128      POPC     C211     CTL2    -0.180000       12.0110           0
     16897 MEMB     128      POPC     H11R     HAL2     0.900000E-01   1.00800           0
     16898 MEMB     128      POPC     H11S     HAL2     0.900000E-01   1.00800           0
     16899 MEMB     128      POPC     C212     CTL2    -0.180000       12.0110           0
     16900 MEMB     128      POPC     H12R     HAL2     0.900000E-01   1.00800           0
     16901 MEMB     128      POPC     H12S     HAL2     0.900000E-01   1.00800           0
     16902 MEMB     128      POPC     C213     CTL2    -0.180000       12.0110           0
     16903 MEMB     128      POPC     H13R     HAL2     0.900000E-01   1.00800           0
     16904 MEMB     128      POPC     H13S     HAL2     0.900000E-01   1.00800           0
     16905 MEMB     128      POPC     C214     CTL2    -0.180000       12.0110           0
     16906 MEMB     128      POPC     H14R     HAL2     0.900000E-01   1.00800           0
     16907 MEMB     128      POPC     H14S     HAL2     0.900000E-01   1.00800           0
     16908 MEMB     128      POPC     C215     CTL2    -0.180000       12.0110           0
     16909 MEMB     128      POPC     H15R     HAL2     0.900000E-01   1.00800           0
     16910 MEMB     128      POPC     H15S     HAL2     0.900000E-01   1.00800           0
     16911 MEMB     128      POPC     C216     CTL2    -0.180000       12.0110           0
     16912 MEMB     128      POPC     H16R     HAL2     0.900000E-01   1.00800           0
     16913 MEMB     128      POPC     H16S     HAL2     0.900000E-01   1.00800           0
     16914 MEMB     128      POPC     C217     CTL2    -0.180000       12.0110           0
     16915 MEMB     128      POPC     H17R     HAL2     0.900000E-01   1.00800           0
     16916 MEMB     128      POPC     H17S     HAL2     0.900000E-01   1.00800           0
     16917 MEMB     128      POPC     C218     CTL3    -0.270000       12.0110           0
     16918 MEMB     128      POPC     H18R     HAL3     0.900000E-01   1.00800           0
     16919 MEMB     128      POPC     H18S     HAL3     0.900000E-01   1.00800           0
     16920 MEMB     128      POPC     H18T     HAL3     0.900000E-01   1.00800           0
     16921 MEMB     128      POPC     C33      CTL2    -0.180000       12.0110           0
     16922 MEMB     128      POPC     H3X      HAL2     0.900000E-01   1.00800           0
     16923 MEMB     128      POPC     H3Y      HAL2     0.900000E-01   1.00800           0
     16924 MEMB     128      POPC     C34      CTL2    -0.180000       12.0110           0
     16925 MEMB     128      POPC     H4X      HAL2     0.900000E-01   1.00800           0
     16926 MEMB     128      POPC     H4Y      HAL2     0.900000E-01   1.00800           0
     16927 MEMB     128      POPC     C35      CTL2    -0.180000       12.0110           0
     16928 MEMB     128      POPC     H5X      HAL2     0.900000E-01   1.00800           0
     16929 MEMB     128      POPC     H5Y      HAL2     0.900000E-01   1.00800           0
     16930 MEMB     128      POPC     C36      CTL2    -0.180000       12.0110           0
     16931 MEMB     128      POPC     H6X      HAL2     0.900000E-01   1.00800           0
     16932 MEMB     128      POPC     H6Y      HAL2     0.900000E-01   1.00800           0
     16933 MEMB     128      POPC     C37      CTL2    -0.180000       12.0110           0
     16934 MEMB     128      POPC     H7X      HAL2     0.900000E-01   1.00800           0
     16935 MEMB     128      POPC     H7Y      HAL2     0.900000E-01   1.00800           0
     16936 MEMB     128      POPC     C38      CTL2    -0.180000       12.0110           0
     16937 MEMB     128      POPC     H8X      HAL2     0.900000E-01   1.00800           0
     16938 MEMB     128      POPC     H8Y      HAL2     0.900000E-01   1.00800           0
     16939 MEMB     128      POPC     C39      CTL2    -0.180000       12.0110           0
     16940 MEMB     128      POPC     H9X      HAL2     0.900000E-01   1.00800           0
     16941 MEMB     128      POPC     H9Y      HAL2     0.900000E-01   1.00800           0
     16942 MEMB     128      POPC     C310     CTL2    -0.180000       12.0110           0
     16943 MEMB     128      POPC     H10X     HAL2     0.900000E-01   1.00800           0
     16944 MEMB     128      POPC     H10Y     HAL2     0.900000E-01   1.00800           0
     16945 MEMB     128      POPC     C311     CTL2    -0.180000       12.0110           0
     16946 MEMB     128      POPC     H11X     HAL2     0.900000E-01   1.00800           0
     16947 MEMB     128      POPC     H11Y     HAL2     0.900000E-01   1.00800           0
     16948 MEMB     128      POPC     C312     CTL2    -0.180000       12.0110           0
     16949 MEMB     128      POPC     H12X     HAL2     0.900000E-01   1.00800           0
     16950 MEMB     128      POPC     H12Y     HAL2     0.900000E-01   1.00800           0
     16951 MEMB     128      POPC     C313     CTL2    -0.180000       12.0110           0
     16952 MEMB     128      POPC     H13X     HAL2     0.900000E-01   1.00800           0
     16953 MEMB     128      POPC     H13Y     HAL2     0.900000E-01   1.00800           0
     16954 MEMB     128      POPC     C314     CTL2    -0.180000       12.0110           0
     16955 MEMB     128      POPC     H14X     HAL2     0.900000E-01   1.00800           0
     16956 MEMB     128      POPC     H14Y     HAL2     0.900000E-01   1.00800           0
     16957 MEMB     128      POPC     C315     CTL2    -0.180000       12.0110           0
     16958 MEMB     128      POPC     H15X     HAL2     0.900000E-01   1.00800           0
     16959 MEMB     128      POPC     H15Y     HAL2     0.900000E-01   1.00800           0
     16960 MEMB     128      POPC     C316     CTL3    -0.270000       12.0110           0
     16961 MEMB     128      POPC     H16X     HAL3     0.900000E-01   1.00800           0
     16962 MEMB     128      POPC     H16Y     HAL3     0.900000E-01   1.00800           0
     16963 MEMB     128      POPC     H16Z     HAL3     0.900000E-01   1.00800           0
     16964 MEMB     129      POPC     N        NTL     -0.600000       14.0070           0
     16965 MEMB     129      POPC     C12      CTL2    -0.100000       12.0110           0
     16966 MEMB     129      POPC     H12A     HL       0.250000       1.00800           0
     16967 MEMB     129      POPC     H12B     HL       0.250000       1.00800           0
     16968 MEMB     129      POPC     C13      CTL5    -0.350000       12.0110           0
     16969 MEMB     129      POPC     H13A     HL       0.250000       1.00800           0
     16970 MEMB     129      POPC     H13B     HL       0.250000       1.00800           0
     16971 MEMB     129      POPC     H13C     HL       0.250000       1.00800           0
     16972 MEMB     129      POPC     C14      CTL5    -0.350000       12.0110           0
     16973 MEMB     129      POPC     H14A     HL       0.250000       1.00800           0
     16974 MEMB     129      POPC     H14B     HL       0.250000       1.00800           0
     16975 MEMB     129      POPC     H14C     HL       0.250000       1.00800           0
     16976 MEMB     129      POPC     C15      CTL5    -0.350000       12.0110           0
     16977 MEMB     129      POPC     H15A     HL       0.250000       1.00800           0
     16978 MEMB     129      POPC     H15B     HL       0.250000       1.00800           0
     16979 MEMB     129      POPC     H15C     HL       0.250000       1.00800           0
     16980 MEMB     129      POPC     C11      CTL2    -0.800000E-01   12.0110           0
     16981 MEMB     129      POPC     H11A     HAL2     0.900000E-01   1.00800           0
     16982 MEMB     129      POPC     H11B     HAL2     0.900000E-01   1.00800           0
     16983 MEMB     129      POPC     P        PL        1.50000       30.9740           0
     16984 MEMB     129      POPC     O13      O2L     -0.780000       15.9994           0
     16985 MEMB     129      POPC     O14      O2L     -0.780000       15.9994           0
     16986 MEMB     129      POPC     O12      OSLP    -0.570000       15.9994           0
     16987 MEMB     129      POPC     O11      OSLP    -0.570000       15.9994           0
     16988 MEMB     129      POPC     C1       CTL2    -0.800000E-01   12.0110           0
     16989 MEMB     129      POPC     HA       HAL2     0.900000E-01   1.00800           0
     16990 MEMB     129      POPC     HB       HAL2     0.900000E-01   1.00800           0
     16991 MEMB     129      POPC     C2       CTL1     0.170000       12.0110           0
     16992 MEMB     129      POPC     HS       HAL1     0.900000E-01   1.00800           0
     16993 MEMB     129      POPC     O21      OSL     -0.490000       15.9994           0
     16994 MEMB     129      POPC     C21      CL       0.900000       12.0110           0
     16995 MEMB     129      POPC     O22      OBL     -0.630000       15.9994           0
     16996 MEMB     129      POPC     C22      CTL2    -0.220000       12.0110           0
     16997 MEMB     129      POPC     H2R      HAL2     0.900000E-01   1.00800           0
     16998 MEMB     129      POPC     H2S      HAL2     0.900000E-01   1.00800           0
     16999 MEMB     129      POPC     C3       CTL2     0.800000E-01   12.0110           0
     17000 MEMB     129      POPC     HX       HAL2     0.900000E-01   1.00800           0
     17001 MEMB     129      POPC     HY       HAL2     0.900000E-01   1.00800           0
     17002 MEMB     129      POPC     O31      OSL     -0.490000       15.9994           0
     17003 MEMB     129      POPC     C31      CL       0.900000       12.0110           0
     17004 MEMB     129      POPC     O32      OBL     -0.630000       15.9994           0
     17005 MEMB     129      POPC     C32      CTL2    -0.220000       12.0110           0
     17006 MEMB     129      POPC     H2X      HAL2     0.900000E-01   1.00800           0
     17007 MEMB     129      POPC     H2Y      HAL2     0.900000E-01   1.00800           0
     17008 MEMB     129      POPC     C23      CTL2    -0.180000       12.0110           0
     17009 MEMB     129      POPC     H3R      HAL2     0.900000E-01   1.00800           0
     17010 MEMB     129      POPC     H3S      HAL2     0.900000E-01   1.00800           0
     17011 MEMB     129      POPC     C24      CTL2    -0.180000       12.0110           0
     17012 MEMB     129      POPC     H4R      HAL2     0.900000E-01   1.00800           0
     17013 MEMB     129      POPC     H4S      HAL2     0.900000E-01   1.00800           0
     17014 MEMB     129      POPC     C25      CTL2    -0.180000       12.0110           0
     17015 MEMB     129      POPC     H5R      HAL2     0.900000E-01   1.00800           0
     17016 MEMB     129      POPC     H5S      HAL2     0.900000E-01   1.00800           0
     17017 MEMB     129      POPC     C26      CTL2    -0.180000       12.0110           0
     17018 MEMB     129      POPC     H6R      HAL2     0.900000E-01   1.00800           0
     17019 MEMB     129      POPC     H6S      HAL2     0.900000E-01   1.00800           0
     17020 MEMB     129      POPC     C27      CTL2    -0.180000       12.0110           0
     17021 MEMB     129      POPC     H7R      HAL2     0.900000E-01   1.00800           0
     17022 MEMB     129      POPC     H7S      HAL2     0.900000E-01   1.00800           0
     17023 MEMB     129      POPC     C28      CTL2    -0.180000       12.0110           0
     17024 MEMB     129      POPC     H8R      HAL2     0.900000E-01   1.00800           0
     17025 MEMB     129      POPC     H8S      HAL2     0.900000E-01   1.00800           0
     17026 MEMB     129      POPC     C29      CEL1    -0.150000       12.0110           0
     17027 MEMB     129      POPC     H91      HEL1     0.150000       1.00800           0
     17028 MEMB     129      POPC     C210     CEL1    -0.150000       12.0110           0
     17029 MEMB     129      POPC     H101     HEL1     0.150000       1.00800           0
     17030 MEMB     129      POPC     C211     CTL2    -0.180000       12.0110           0
     17031 MEMB     129      POPC     H11R     HAL2     0.900000E-01   1.00800           0
     17032 MEMB     129      POPC     H11S     HAL2     0.900000E-01   1.00800           0
     17033 MEMB     129      POPC     C212     CTL2    -0.180000       12.0110           0
     17034 MEMB     129      POPC     H12R     HAL2     0.900000E-01   1.00800           0
     17035 MEMB     129      POPC     H12S     HAL2     0.900000E-01   1.00800           0
     17036 MEMB     129      POPC     C213     CTL2    -0.180000       12.0110           0
     17037 MEMB     129      POPC     H13R     HAL2     0.900000E-01   1.00800           0
     17038 MEMB     129      POPC     H13S     HAL2     0.900000E-01   1.00800           0
     17039 MEMB     129      POPC     C214     CTL2    -0.180000       12.0110           0
     17040 MEMB     129      POPC     H14R     HAL2     0.900000E-01   1.00800           0
     17041 MEMB     129      POPC     H14S     HAL2     0.900000E-01   1.00800           0
     17042 MEMB     129      POPC     C215     CTL2    -0.180000       12.0110           0
     17043 MEMB     129      POPC     H15R     HAL2     0.900000E-01   1.00800           0
     17044 MEMB     129      POPC     H15S     HAL2     0.900000E-01   1.00800           0
     17045 MEMB     129      POPC     C216     CTL2    -0.180000       12.0110           0
     17046 MEMB     129      POPC     H16R     HAL2     0.900000E-01   1.00800           0
     17047 MEMB     129      POPC     H16S     HAL2     0.900000E-01   1.00800           0
     17048 MEMB     129      POPC     C217     CTL2    -0.180000       12.0110           0
     17049 MEMB     129      POPC     H17R     HAL2     0.900000E-01   1.00800           0
     17050 MEMB     129      POPC     H17S     HAL2     0.900000E-01   1.00800           0
     17051 MEMB     129      POPC     C218     CTL3    -0.270000       12.0110           0
     17052 MEMB     129      POPC     H18R     HAL3     0.900000E-01   1.00800           0
     17053 MEMB     129      POPC     H18S     HAL3     0.900000E-01   1.00800           0
     17054 MEMB     129      POPC     H18T     HAL3     0.900000E-01   1.00800           0
     17055 MEMB     129      POPC     C33      CTL2    -0.180000       12.0110           0
     17056 MEMB     129      POPC     H3X      HAL2     0.900000E-01   1.00800           0
     17057 MEMB     129      POPC     H3Y      HAL2     0.900000E-01   1.00800           0
     17058 MEMB     129      POPC     C34      CTL2    -0.180000       12.0110           0
     17059 MEMB     129      POPC     H4X      HAL2     0.900000E-01   1.00800           0
     17060 MEMB     129      POPC     H4Y      HAL2     0.900000E-01   1.00800           0
     17061 MEMB     129      POPC     C35      CTL2    -0.180000       12.0110           0
     17062 MEMB     129      POPC     H5X      HAL2     0.900000E-01   1.00800           0
     17063 MEMB     129      POPC     H5Y      HAL2     0.900000E-01   1.00800           0
     17064 MEMB     129      POPC     C36      CTL2    -0.180000       12.0110           0
     17065 MEMB     129      POPC     H6X      HAL2     0.900000E-01   1.00800           0
     17066 MEMB     129      POPC     H6Y      HAL2     0.900000E-01   1.00800           0
     17067 MEMB     129      POPC     C37      CTL2    -0.180000       12.0110           0
     17068 MEMB     129      POPC     H7X      HAL2     0.900000E-01   1.00800           0
     17069 MEMB     129      POPC     H7Y      HAL2     0.900000E-01   1.00800           0
     17070 MEMB     129      POPC     C38      CTL2    -0.180000       12.0110           0
     17071 MEMB     129      POPC     H8X      HAL2     0.900000E-01   1.00800           0
     17072 MEMB     129      POPC     H8Y      HAL2     0.900000E-01   1.00800           0
     17073 MEMB     129      POPC     C39      CTL2    -0.180000       12.0110           0
     17074 MEMB     129      POPC     H9X      HAL2     0.900000E-01   1.00800           0
     17075 MEMB     129      POPC     H9Y      HAL2     0.900000E-01   1.00800           0
     17076 MEMB     129      POPC     C310     CTL2    -0.180000       12.0110           0
     17077 MEMB     129      POPC     H10X     HAL2     0.900000E-01   1.00800           0
     17078 MEMB     129      POPC     H10Y     HAL2     0.900000E-01   1.00800           0
     17079 MEMB     129      POPC     C311     CTL2    -0.180000       12.0110           0
     17080 MEMB     129      POPC     H11X     HAL2     0.900000E-01   1.00800           0
     17081 MEMB     129      POPC     H11Y     HAL2     0.900000E-01   1.00800           0
     17082 MEMB     129      POPC     C312     CTL2    -0.180000       12.0110           0
     17083 MEMB     129      POPC     H12X     HAL2     0.900000E-01   1.00800           0
     17084 MEMB     129      POPC     H12Y     HAL2     0.900000E-01   1.00800           0
     17085 MEMB     129      POPC     C313     CTL2    -0.180000       12.0110           0
     17086 MEMB     129      POPC     H13X     HAL2     0.900000E-01   1.00800           0
     17087 MEMB     129      POPC     H13Y     HAL2     0.900000E-01   1.00800           0
     17088 MEMB     129      POPC     C314     CTL2    -0.180000       12.0110           0
     17089 MEMB     129      POPC     H14X     HAL2     0.900000E-01   1.00800           0
     17090 MEMB     129      POPC     H14Y     HAL2     0.900000E-01   1.00800           0
     17091 MEMB     129      POPC     C315     CTL2    -0.180000       12.0110           0
     17092 MEMB     129      POPC     H15X     HAL2     0.900000E-01   1.00800           0
     17093 MEMB     129      POPC     H15Y     HAL2     0.900000E-01   1.00800           0
     17094 MEMB     129      POPC     C316     CTL3    -0.270000       12.0110           0
     17095 MEMB     129      POPC     H16X     HAL3     0.900000E-01   1.00800           0
     17096 MEMB     129      POPC     H16Y     HAL3     0.900000E-01   1.00800           0
     17097 MEMB     129      POPC     H16Z     HAL3     0.900000E-01   1.00800           0
     17098 MEMB     130      POPC     N        NTL     -0.600000       14.0070           0
     17099 MEMB     130      POPC     C12      CTL2    -0.100000       12.0110           0
     17100 MEMB     130      POPC     H12A     HL       0.250000       1.00800           0
     17101 MEMB     130      POPC     H12B     HL       0.250000       1.00800           0
     17102 MEMB     130      POPC     C13      CTL5    -0.350000       12.0110           0
     17103 MEMB     130      POPC     H13A     HL       0.250000       1.00800           0
     17104 MEMB     130      POPC     H13B     HL       0.250000       1.00800           0
     17105 MEMB     130      POPC     H13C     HL       0.250000       1.00800           0
     17106 MEMB     130      POPC     C14      CTL5    -0.350000       12.0110           0
     17107 MEMB     130      POPC     H14A     HL       0.250000       1.00800           0
     17108 MEMB     130      POPC     H14B     HL       0.250000       1.00800           0
     17109 MEMB     130      POPC     H14C     HL       0.250000       1.00800           0
     17110 MEMB     130      POPC     C15      CTL5    -0.350000       12.0110           0
     17111 MEMB     130      POPC     H15A     HL       0.250000       1.00800           0
     17112 MEMB     130      POPC     H15B     HL       0.250000       1.00800           0
     17113 MEMB     130      POPC     H15C     HL       0.250000       1.00800           0
     17114 MEMB     130      POPC     C11      CTL2    -0.800000E-01   12.0110           0
     17115 MEMB     130      POPC     H11A     HAL2     0.900000E-01   1.00800           0
     17116 MEMB     130      POPC     H11B     HAL2     0.900000E-01   1.00800           0
     17117 MEMB     130      POPC     P        PL        1.50000       30.9740           0
     17118 MEMB     130      POPC     O13      O2L     -0.780000       15.9994           0
     17119 MEMB     130      POPC     O14      O2L     -0.780000       15.9994           0
     17120 MEMB     130      POPC     O12      OSLP    -0.570000       15.9994           0
     17121 MEMB     130      POPC     O11      OSLP    -0.570000       15.9994           0
     17122 MEMB     130      POPC     C1       CTL2    -0.800000E-01   12.0110           0
     17123 MEMB     130      POPC     HA       HAL2     0.900000E-01   1.00800           0
     17124 MEMB     130      POPC     HB       HAL2     0.900000E-01   1.00800           0
     17125 MEMB     130      POPC     C2       CTL1     0.170000       12.0110           0
     17126 MEMB     130      POPC     HS       HAL1     0.900000E-01   1.00800           0
     17127 MEMB     130      POPC     O21      OSL     -0.490000       15.9994           0
     17128 MEMB     130      POPC     C21      CL       0.900000       12.0110           0
     17129 MEMB     130      POPC     O22      OBL     -0.630000       15.9994           0
     17130 MEMB     130      POPC     C22      CTL2    -0.220000       12.0110           0
     17131 MEMB     130      POPC     H2R      HAL2     0.900000E-01   1.00800           0
     17132 MEMB     130      POPC     H2S      HAL2     0.900000E-01   1.00800           0
     17133 MEMB     130      POPC     C3       CTL2     0.800000E-01   12.0110           0
     17134 MEMB     130      POPC     HX       HAL2     0.900000E-01   1.00800           0
     17135 MEMB     130      POPC     HY       HAL2     0.900000E-01   1.00800           0
     17136 MEMB     130      POPC     O31      OSL     -0.490000       15.9994           0
     17137 MEMB     130      POPC     C31      CL       0.900000       12.0110           0
     17138 MEMB     130      POPC     O32      OBL     -0.630000       15.9994           0
     17139 MEMB     130      POPC     C32      CTL2    -0.220000       12.0110           0
     17140 MEMB     130      POPC     H2X      HAL2     0.900000E-01   1.00800           0
     17141 MEMB     130      POPC     H2Y      HAL2     0.900000E-01   1.00800           0
     17142 MEMB     130      POPC     C23      CTL2    -0.180000       12.0110           0
     17143 MEMB     130      POPC     H3R      HAL2     0.900000E-01   1.00800           0
     17144 MEMB     130      POPC     H3S      HAL2     0.900000E-01   1.00800           0
     17145 MEMB     130      POPC     C24      CTL2    -0.180000       12.0110           0
     17146 MEMB     130      POPC     H4R      HAL2     0.900000E-01   1.00800           0
     17147 MEMB     130      POPC     H4S      HAL2     0.900000E-01   1.00800           0
     17148 MEMB     130      POPC     C25      CTL2    -0.180000       12.0110           0
     17149 MEMB     130      POPC     H5R      HAL2     0.900000E-01   1.00800           0
     17150 MEMB     130      POPC     H5S      HAL2     0.900000E-01   1.00800           0
     17151 MEMB     130      POPC     C26      CTL2    -0.180000       12.0110           0
     17152 MEMB     130      POPC     H6R      HAL2     0.900000E-01   1.00800           0
     17153 MEMB     130      POPC     H6S      HAL2     0.900000E-01   1.00800           0
     17154 MEMB     130      POPC     C27      CTL2    -0.180000       12.0110           0
     17155 MEMB     130      POPC     H7R      HAL2     0.900000E-01   1.00800           0
     17156 MEMB     130      POPC     H7S      HAL2     0.900000E-01   1.00800           0
     17157 MEMB     130      POPC     C28      CTL2    -0.180000       12.0110           0
     17158 MEMB     130      POPC     H8R      HAL2     0.900000E-01   1.00800           0
     17159 MEMB     130      POPC     H8S      HAL2     0.900000E-01   1.00800           0
     17160 MEMB     130      POPC     C29      CEL1    -0.150000       12.0110           0
     17161 MEMB     130      POPC     H91      HEL1     0.150000       1.00800           0
     17162 MEMB     130      POPC     C210     CEL1    -0.150000       12.0110           0
     17163 MEMB     130      POPC     H101     HEL1     0.150000       1.00800           0
     17164 MEMB     130      POPC     C211     CTL2    -0.180000       12.0110           0
     17165 MEMB     130      POPC     H11R     HAL2     0.900000E-01   1.00800           0
     17166 MEMB     130      POPC     H11S     HAL2     0.900000E-01   1.00800           0
     17167 MEMB     130      POPC     C212     CTL2    -0.180000       12.0110           0
     17168 MEMB     130      POPC     H12R     HAL2     0.900000E-01   1.00800           0
     17169 MEMB     130      POPC     H12S     HAL2     0.900000E-01   1.00800           0
     17170 MEMB     130      POPC     C213     CTL2    -0.180000       12.0110           0
     17171 MEMB     130      POPC     H13R     HAL2     0.900000E-01   1.00800           0
     17172 MEMB     130      POPC     H13S     HAL2     0.900000E-01   1.00800           0
     17173 MEMB     130      POPC     C214     CTL2    -0.180000       12.0110           0
     17174 MEMB     130      POPC     H14R     HAL2     0.900000E-01   1.00800           0
     17175 MEMB     130      POPC     H14S     HAL2     0.900000E-01   1.00800           0
     17176 MEMB     130      POPC     C215     CTL2    -0.180000       12.0110           0
     17177 MEMB     130      POPC     H15R     HAL2     0.900000E-01   1.00800           0
     17178 MEMB     130      POPC     H15S     HAL2     0.900000E-01   1.00800           0
     17179 MEMB     130      POPC     C216     CTL2    -0.180000       12.0110           0
     17180 MEMB     130      POPC     H16R     HAL2     0.900000E-01   1.00800           0
     17181 MEMB     130      POPC     H16S     HAL2     0.900000E-01   1.00800           0
     17182 MEMB     130      POPC     C217     CTL2    -0.180000       12.0110           0
     17183 MEMB     130      POPC     H17R     HAL2     0.900000E-01   1.00800           0
     17184 MEMB     130      POPC     H17S     HAL2     0.900000E-01   1.00800           0
     17185 MEMB     130      POPC     C218     CTL3    -0.270000       12.0110           0
     17186 MEMB     130      POPC     H18R     HAL3     0.900000E-01   1.00800           0
     17187 MEMB     130      POPC     H18S     HAL3     0.900000E-01   1.00800           0
     17188 MEMB     130      POPC     H18T     HAL3     0.900000E-01   1.00800           0
     17189 MEMB     130      POPC     C33      CTL2    -0.180000       12.0110           0
     17190 MEMB     130      POPC     H3X      HAL2     0.900000E-01   1.00800           0
     17191 MEMB     130      POPC     H3Y      HAL2     0.900000E-01   1.00800           0
     17192 MEMB     130      POPC     C34      CTL2    -0.180000       12.0110           0
     17193 MEMB     130      POPC     H4X      HAL2     0.900000E-01   1.00800           0
     17194 MEMB     130      POPC     H4Y      HAL2     0.900000E-01   1.00800           0
     17195 MEMB     130      POPC     C35      CTL2    -0.180000       12.0110           0
     17196 MEMB     130      POPC     H5X      HAL2     0.900000E-01   1.00800           0
     17197 MEMB     130      POPC     H5Y      HAL2     0.900000E-01   1.00800           0
     17198 MEMB     130      POPC     C36      CTL2    -0.180000       12.0110           0
     17199 MEMB     130      POPC     H6X      HAL2     0.900000E-01   1.00800           0
     17200 MEMB     130      POPC     H6Y      HAL2     0.900000E-01   1.00800           0
     17201 MEMB     130      POPC     C37      CTL2    -0.180000       12.0110           0
     17202 MEMB     130      POPC     H7X      HAL2     0.900000E-01   1.00800           0
     17203 MEMB     130      POPC     H7Y      HAL2     0.900000E-01   1.00800           0
     17204 MEMB     130      POPC     C38      CTL2    -0.180000       12.0110           0
     17205 MEMB     130      POPC     H8X      HAL2     0.900000E-01   1.00800           0
     17206 MEMB     130      POPC     H8Y      HAL2     0.900000E-01   1.00800           0
     17207 MEMB     130      POPC     C39      CTL2    -0.180000       12.0110           0
     17208 MEMB     130      POPC     H9X      HAL2     0.900000E-01   1.00800           0
     17209 MEMB     130      POPC     H9Y      HAL2     0.900000E-01   1.00800           0
     17210 MEMB     130      POPC     C310     CTL2    -0.180000       12.0110           0
     17211 MEMB     130      POPC     H10X     HAL2     0.900000E-01   1.00800           0
     17212 MEMB     130      POPC     H10Y     HAL2     0.900000E-01   1.00800           0
     17213 MEMB     130      POPC     C311     CTL2    -0.180000       12.0110           0
     17214 MEMB     130      POPC     H11X     HAL2     0.900000E-01   1.00800           0
     17215 MEMB     130      POPC     H11Y     HAL2     0.900000E-01   1.00800           0
     17216 MEMB     130      POPC     C312     CTL2    -0.180000       12.0110           0
     17217 MEMB     130      POPC     H12X     HAL2     0.900000E-01   1.00800           0
     17218 MEMB     130      POPC     H12Y     HAL2     0.900000E-01   1.00800           0
     17219 MEMB     130      POPC     C313     CTL2    -0.180000       12.0110           0
     17220 MEMB     130      POPC     H13X     HAL2     0.900000E-01   1.00800           0
     17221 MEMB     130      POPC     H13Y     HAL2     0.900000E-01   1.00800           0
     17222 MEMB     130      POPC     C314     CTL2    -0.180000       12.0110           0
     17223 MEMB     130      POPC     H14X     HAL2     0.900000E-01   1.00800           0
     17224 MEMB     130      POPC     H14Y     HAL2     0.900000E-01   1.00800           0
     17225 MEMB     130      POPC     C315     CTL2    -0.180000       12.0110           0
     17226 MEMB     130      POPC     H15X     HAL2     0.900000E-01   1.00800           0
     17227 MEMB     130      POPC     H15Y     HAL2     0.900000E-01   1.00800           0
     17228 MEMB     130      POPC     C316     CTL3    -0.270000       12.0110           0
     17229 MEMB     130      POPC     H16X     HAL3     0.900000E-01   1.00800           0
     17230 MEMB     130      POPC     H16Y     HAL3     0.900000E-01   1.00800           0
     17231 MEMB     130      POPC     H16Z     HAL3     0.900000E-01   1.00800           0
     17232 MEMB     131      POPS     N        NH3L    -0.300000       14.0070           0
     17233 MEMB     131      POPS     HN1      HCL      0.330000       1.00800           0
     17234 MEMB     131      POPS     HN2      HCL      0.330000       1.00800           0
     17235 MEMB     131      POPS     HN3      HCL      0.330000       1.00800           0
     17236 MEMB     131      POPS     C12      CTL1     0.210000       12.0110           0
     17237 MEMB     131      POPS     H12A     HBL      0.100000       1.00800           0
     17238 MEMB     131      POPS     C13      CCL      0.340000       12.0110           0
     17239 MEMB     131      POPS     O13A     OCL     -0.670000       15.9994           0
     17240 MEMB     131      POPS     O13B     OCL     -0.670000       15.9994           0
     17241 MEMB     131      POPS     C11      CTL2    -0.800000E-01   12.0110           0
     17242 MEMB     131      POPS     H11A     HAL2     0.900000E-01   1.00800           0
     17243 MEMB     131      POPS     H11B     HAL2     0.900000E-01   1.00800           0
     17244 MEMB     131      POPS     P        PL        1.50000       30.9740           0
     17245 MEMB     131      POPS     O13      O2L     -0.780000       15.9994           0
     17246 MEMB     131      POPS     O14      O2L     -0.780000       15.9994           0
     17247 MEMB     131      POPS     O12      OSLP    -0.570000       15.9994           0
     17248 MEMB     131      POPS     O11      OSLP    -0.570000       15.9994           0
     17249 MEMB     131      POPS     C1       CTL2    -0.800000E-01   12.0110           0
     17250 MEMB     131      POPS     HA       HAL2     0.900000E-01   1.00800           0
     17251 MEMB     131      POPS     HB       HAL2     0.900000E-01   1.00800           0
     17252 MEMB     131      POPS     C2       CTL1     0.170000       12.0110           0
     17253 MEMB     131      POPS     HS       HAL1     0.900000E-01   1.00800           0
     17254 MEMB     131      POPS     O21      OSL     -0.490000       15.9994           0
     17255 MEMB     131      POPS     C21      CL       0.900000       12.0110           0
     17256 MEMB     131      POPS     O22      OBL     -0.630000       15.9994           0
     17257 MEMB     131      POPS     C22      CTL2    -0.220000       12.0110           0
     17258 MEMB     131      POPS     H2R      HAL2     0.900000E-01   1.00800           0
     17259 MEMB     131      POPS     H2S      HAL2     0.900000E-01   1.00800           0
     17260 MEMB     131      POPS     C3       CTL2     0.800000E-01   12.0110           0
     17261 MEMB     131      POPS     HX       HAL2     0.900000E-01   1.00800           0
     17262 MEMB     131      POPS     HY       HAL2     0.900000E-01   1.00800           0
     17263 MEMB     131      POPS     O31      OSL     -0.490000       15.9994           0
     17264 MEMB     131      POPS     C31      CL       0.900000       12.0110           0
     17265 MEMB     131      POPS     O32      OBL     -0.630000       15.9994           0
     17266 MEMB     131      POPS     C32      CTL2    -0.220000       12.0110           0
     17267 MEMB     131      POPS     H2X      HAL2     0.900000E-01   1.00800           0
     17268 MEMB     131      POPS     H2Y      HAL2     0.900000E-01   1.00800           0
     17269 MEMB     131      POPS     C23      CTL2    -0.180000       12.0110           0
     17270 MEMB     131      POPS     H3R      HAL2     0.900000E-01   1.00800           0
     17271 MEMB     131      POPS     H3S      HAL2     0.900000E-01   1.00800           0
     17272 MEMB     131      POPS     C24      CTL2    -0.180000       12.0110           0
     17273 MEMB     131      POPS     H4R      HAL2     0.900000E-01   1.00800           0
     17274 MEMB     131      POPS     H4S      HAL2     0.900000E-01   1.00800           0
     17275 MEMB     131      POPS     C25      CTL2    -0.180000       12.0110           0
     17276 MEMB     131      POPS     H5R      HAL2     0.900000E-01   1.00800           0
     17277 MEMB     131      POPS     H5S      HAL2     0.900000E-01   1.00800           0
     17278 MEMB     131      POPS     C26      CTL2    -0.180000       12.0110           0
     17279 MEMB     131      POPS     H6R      HAL2     0.900000E-01   1.00800           0
     17280 MEMB     131      POPS     H6S      HAL2     0.900000E-01   1.00800           0
     17281 MEMB     131      POPS     C27      CTL2    -0.180000       12.0110           0
     17282 MEMB     131      POPS     H7R      HAL2     0.900000E-01   1.00800           0
     17283 MEMB     131      POPS     H7S      HAL2     0.900000E-01   1.00800           0
     17284 MEMB     131      POPS     C28      CTL2    -0.180000       12.0110           0
     17285 MEMB     131      POPS     H8R      HAL2     0.900000E-01   1.00800           0
     17286 MEMB     131      POPS     H8S      HAL2     0.900000E-01   1.00800           0
     17287 MEMB     131      POPS     C29      CEL1    -0.150000       12.0110           0
     17288 MEMB     131      POPS     H91      HEL1     0.150000       1.00800           0
     17289 MEMB     131      POPS     C210     CEL1    -0.150000       12.0110           0
     17290 MEMB     131      POPS     H101     HEL1     0.150000       1.00800           0
     17291 MEMB     131      POPS     C211     CTL2    -0.180000       12.0110           0
     17292 MEMB     131      POPS     H11R     HAL2     0.900000E-01   1.00800           0
     17293 MEMB     131      POPS     H11S     HAL2     0.900000E-01   1.00800           0
     17294 MEMB     131      POPS     C212     CTL2    -0.180000       12.0110           0
     17295 MEMB     131      POPS     H12R     HAL2     0.900000E-01   1.00800           0
     17296 MEMB     131      POPS     H12S     HAL2     0.900000E-01   1.00800           0
     17297 MEMB     131      POPS     C213     CTL2    -0.180000       12.0110           0
     17298 MEMB     131      POPS     H13R     HAL2     0.900000E-01   1.00800           0
     17299 MEMB     131      POPS     H13S     HAL2     0.900000E-01   1.00800           0
     17300 MEMB     131      POPS     C214     CTL2    -0.180000       12.0110           0
     17301 MEMB     131      POPS     H14R     HAL2     0.900000E-01   1.00800           0
     17302 MEMB     131      POPS     H14S     HAL2     0.900000E-01   1.00800           0
     17303 MEMB     131      POPS     C215     CTL2    -0.180000       12.0110           0
     17304 MEMB     131      POPS     H15R     HAL2     0.900000E-01   1.00800           0
     17305 MEMB     131      POPS     H15S     HAL2     0.900000E-01   1.00800           0
     17306 MEMB     131      POPS     C216     CTL2    -0.180000       12.0110           0
     17307 MEMB     131      POPS     H16R     HAL2     0.900000E-01   1.00800           0
     17308 MEMB     131      POPS     H16S     HAL2     0.900000E-01   1.00800           0
     17309 MEMB     131      POPS     C217     CTL2    -0.180000       12.0110           0
     17310 MEMB     131      POPS     H17R     HAL2     0.900000E-01   1.00800           0
     17311 MEMB     131      POPS     H17S     HAL2     0.900000E-01   1.00800           0
     17312 MEMB     131      POPS     C218     CTL3    -0.270000       12.0110           0
     17313 MEMB     131      POPS     H18R     HAL3     0.900000E-01   1.00800           0
     17314 MEMB     131      POPS     H18S     HAL3     0.900000E-01   1.00800           0
     17315 MEMB     131      POPS     H18T     HAL3     0.900000E-01   1.00800           0
     17316 MEMB     131      POPS     C33      CTL2    -0.180000       12.0110           0
     17317 MEMB     131      POPS     H3X      HAL2     0.900000E-01   1.00800           0
     17318 MEMB     131      POPS     H3Y      HAL2     0.900000E-01   1.00800           0
     17319 MEMB     131      POPS     C34      CTL2    -0.180000       12.0110           0
     17320 MEMB     131      POPS     H4X      HAL2     0.900000E-01   1.00800           0
     17321 MEMB     131      POPS     H4Y      HAL2     0.900000E-01   1.00800           0
     17322 MEMB     131      POPS     C35      CTL2    -0.180000       12.0110           0
     17323 MEMB     131      POPS     H5X      HAL2     0.900000E-01   1.00800           0
     17324 MEMB     131      POPS     H5Y      HAL2     0.900000E-01   1.00800           0
     17325 MEMB     131      POPS     C36      CTL2    -0.180000       12.0110           0
     17326 MEMB     131      POPS     H6X      HAL2     0.900000E-01   1.00800           0
     17327 MEMB     131      POPS     H6Y      HAL2     0.900000E-01   1.00800           0
     17328 MEMB     131      POPS     C37      CTL2    -0.180000       12.0110           0
     17329 MEMB     131      POPS     H7X      HAL2     0.900000E-01   1.00800           0
     17330 MEMB     131      POPS     H7Y      HAL2     0.900000E-01   1.00800           0
     17331 MEMB     131      POPS     C38      CTL2    -0.180000       12.0110           0
     17332 MEMB     131      POPS     H8X      HAL2     0.900000E-01   1.00800           0
     17333 MEMB     131      POPS     H8Y      HAL2     0.900000E-01   1.00800           0
     17334 MEMB     131      POPS     C39      CTL2    -0.180000       12.0110           0
     17335 MEMB     131      POPS     H9X      HAL2     0.900000E-01   1.00800           0
     17336 MEMB     131      POPS     H9Y      HAL2     0.900000E-01   1.00800           0
     17337 MEMB     131      POPS     C310     CTL2    -0.180000       12.0110           0
     17338 MEMB     131      POPS     H10X     HAL2     0.900000E-01   1.00800           0
     17339 MEMB     131      POPS     H10Y     HAL2     0.900000E-01   1.00800           0
     17340 MEMB     131      POPS     C311     CTL2    -0.180000       12.0110           0
     17341 MEMB     131      POPS     H11X     HAL2     0.900000E-01   1.00800           0
     17342 MEMB     131      POPS     H11Y     HAL2     0.900000E-01   1.00800           0
     17343 MEMB     131      POPS     C312     CTL2    -0.180000       12.0110           0
     17344 MEMB     131      POPS     H12X     HAL2     0.900000E-01   1.00800           0
     17345 MEMB     131      POPS     H12Y     HAL2     0.900000E-01   1.00800           0
     17346 MEMB     131      POPS     C313     CTL2    -0.180000       12.0110           0
     17347 MEMB     131      POPS     H13X     HAL2     0.900000E-01   1.00800           0
     17348 MEMB     131      POPS     H13Y     HAL2     0.900000E-01   1.00800           0
     17349 MEMB     131      POPS     C314     CTL2    -0.180000       12.0110           0
     17350 MEMB     131      POPS     H14X     HAL2     0.900000E-01   1.00800           0
     17351 MEMB     131      POPS     H14Y     HAL2     0.900000E-01   1.00800           0
     17352 MEMB     131      POPS     C315     CTL2    -0.180000       12.0110           0
     17353 MEMB     131      POPS     H15X     HAL2     0.900000E-01   1.00800           0
     17354 MEMB     131      POPS     H15Y     HAL2     0.900000E-01   1.00800           0
     17355 MEMB     131      POPS     C316     CTL3    -0.270000       12.0110           0
     17356 MEMB     131      POPS     H16X     HAL3     0.900000E-01   1.00800           0
     17357 MEMB     131      POPS     H16Y     HAL3     0.900000E-01   1.00800           0
     17358 MEMB     131      POPS     H16Z     HAL3     0.900000E-01   1.00800           0
     17359 MEMB     132      POPC     N        NTL     -0.600000       14.0070           0
     17360 MEMB     132      POPC     C12      CTL2    -0.100000       12.0110           0
     17361 MEMB     132      POPC     H12A     HL       0.250000       1.00800           0
     17362 MEMB     132      POPC     H12B     HL       0.250000       1.00800           0
     17363 MEMB     132      POPC     C13      CTL5    -0.350000       12.0110           0
     17364 MEMB     132      POPC     H13A     HL       0.250000       1.00800           0
     17365 MEMB     132      POPC     H13B     HL       0.250000       1.00800           0
     17366 MEMB     132      POPC     H13C     HL       0.250000       1.00800           0
     17367 MEMB     132      POPC     C14      CTL5    -0.350000       12.0110           0
     17368 MEMB     132      POPC     H14A     HL       0.250000       1.00800           0
     17369 MEMB     132      POPC     H14B     HL       0.250000       1.00800           0
     17370 MEMB     132      POPC     H14C     HL       0.250000       1.00800           0
     17371 MEMB     132      POPC     C15      CTL5    -0.350000       12.0110           0
     17372 MEMB     132      POPC     H15A     HL       0.250000       1.00800           0
     17373 MEMB     132      POPC     H15B     HL       0.250000       1.00800           0
     17374 MEMB     132      POPC     H15C     HL       0.250000       1.00800           0
     17375 MEMB     132      POPC     C11      CTL2    -0.800000E-01   12.0110           0
     17376 MEMB     132      POPC     H11A     HAL2     0.900000E-01   1.00800           0
     17377 MEMB     132      POPC     H11B     HAL2     0.900000E-01   1.00800           0
     17378 MEMB     132      POPC     P        PL        1.50000       30.9740           0
     17379 MEMB     132      POPC     O13      O2L     -0.780000       15.9994           0
     17380 MEMB     132      POPC     O14      O2L     -0.780000       15.9994           0
     17381 MEMB     132      POPC     O12      OSLP    -0.570000       15.9994           0
     17382 MEMB     132      POPC     O11      OSLP    -0.570000       15.9994           0
     17383 MEMB     132      POPC     C1       CTL2    -0.800000E-01   12.0110           0
     17384 MEMB     132      POPC     HA       HAL2     0.900000E-01   1.00800           0
     17385 MEMB     132      POPC     HB       HAL2     0.900000E-01   1.00800           0
     17386 MEMB     132      POPC     C2       CTL1     0.170000       12.0110           0
     17387 MEMB     132      POPC     HS       HAL1     0.900000E-01   1.00800           0
     17388 MEMB     132      POPC     O21      OSL     -0.490000       15.9994           0
     17389 MEMB     132      POPC     C21      CL       0.900000       12.0110           0
     17390 MEMB     132      POPC     O22      OBL     -0.630000       15.9994           0
     17391 MEMB     132      POPC     C22      CTL2    -0.220000       12.0110           0
     17392 MEMB     132      POPC     H2R      HAL2     0.900000E-01   1.00800           0
     17393 MEMB     132      POPC     H2S      HAL2     0.900000E-01   1.00800           0
     17394 MEMB     132      POPC     C3       CTL2     0.800000E-01   12.0110           0
     17395 MEMB     132      POPC     HX       HAL2     0.900000E-01   1.00800           0
     17396 MEMB     132      POPC     HY       HAL2     0.900000E-01   1.00800           0
     17397 MEMB     132      POPC     O31      OSL     -0.490000       15.9994           0
     17398 MEMB     132      POPC     C31      CL       0.900000       12.0110           0
     17399 MEMB     132      POPC     O32      OBL     -0.630000       15.9994           0
     17400 MEMB     132      POPC     C32      CTL2    -0.220000       12.0110           0
     17401 MEMB     132      POPC     H2X      HAL2     0.900000E-01   1.00800           0
     17402 MEMB     132      POPC     H2Y      HAL2     0.900000E-01   1.00800           0
     17403 MEMB     132      POPC     C23      CTL2    -0.180000       12.0110           0
     17404 MEMB     132      POPC     H3R      HAL2     0.900000E-01   1.00800           0
     17405 MEMB     132      POPC     H3S      HAL2     0.900000E-01   1.00800           0
     17406 MEMB     132      POPC     C24      CTL2    -0.180000       12.0110           0
     17407 MEMB     132      POPC     H4R      HAL2     0.900000E-01   1.00800           0
     17408 MEMB     132      POPC     H4S      HAL2     0.900000E-01   1.00800           0
     17409 MEMB     132      POPC     C25      CTL2    -0.180000       12.0110           0
     17410 MEMB     132      POPC     H5R      HAL2     0.900000E-01   1.00800           0
     17411 MEMB     132      POPC     H5S      HAL2     0.900000E-01   1.00800           0
     17412 MEMB     132      POPC     C26      CTL2    -0.180000       12.0110           0
     17413 MEMB     132      POPC     H6R      HAL2     0.900000E-01   1.00800           0
     17414 MEMB     132      POPC     H6S      HAL2     0.900000E-01   1.00800           0
     17415 MEMB     132      POPC     C27      CTL2    -0.180000       12.0110           0
     17416 MEMB     132      POPC     H7R      HAL2     0.900000E-01   1.00800           0
     17417 MEMB     132      POPC     H7S      HAL2     0.900000E-01   1.00800           0
     17418 MEMB     132      POPC     C28      CTL2    -0.180000       12.0110           0
     17419 MEMB     132      POPC     H8R      HAL2     0.900000E-01   1.00800           0
     17420 MEMB     132      POPC     H8S      HAL2     0.900000E-01   1.00800           0
     17421 MEMB     132      POPC     C29      CEL1    -0.150000       12.0110           0
     17422 MEMB     132      POPC     H91      HEL1     0.150000       1.00800           0
     17423 MEMB     132      POPC     C210     CEL1    -0.150000       12.0110           0
     17424 MEMB     132      POPC     H101     HEL1     0.150000       1.00800           0
     17425 MEMB     132      POPC     C211     CTL2    -0.180000       12.0110           0
     17426 MEMB     132      POPC     H11R     HAL2     0.900000E-01   1.00800           0
     17427 MEMB     132      POPC     H11S     HAL2     0.900000E-01   1.00800           0
     17428 MEMB     132      POPC     C212     CTL2    -0.180000       12.0110           0
     17429 MEMB     132      POPC     H12R     HAL2     0.900000E-01   1.00800           0
     17430 MEMB     132      POPC     H12S     HAL2     0.900000E-01   1.00800           0
     17431 MEMB     132      POPC     C213     CTL2    -0.180000       12.0110           0
     17432 MEMB     132      POPC     H13R     HAL2     0.900000E-01   1.00800           0
     17433 MEMB     132      POPC     H13S     HAL2     0.900000E-01   1.00800           0
     17434 MEMB     132      POPC     C214     CTL2    -0.180000       12.0110           0
     17435 MEMB     132      POPC     H14R     HAL2     0.900000E-01   1.00800           0
     17436 MEMB     132      POPC     H14S     HAL2     0.900000E-01   1.00800           0
     17437 MEMB     132      POPC     C215     CTL2    -0.180000       12.0110           0
     17438 MEMB     132      POPC     H15R     HAL2     0.900000E-01   1.00800           0
     17439 MEMB     132      POPC     H15S     HAL2     0.900000E-01   1.00800           0
     17440 MEMB     132      POPC     C216     CTL2    -0.180000       12.0110           0
     17441 MEMB     132      POPC     H16R     HAL2     0.900000E-01   1.00800           0
     17442 MEMB     132      POPC     H16S     HAL2     0.900000E-01   1.00800           0
     17443 MEMB     132      POPC     C217     CTL2    -0.180000       12.0110           0
     17444 MEMB     132      POPC     H17R     HAL2     0.900000E-01   1.00800           0
     17445 MEMB     132      POPC     H17S     HAL2     0.900000E-01   1.00800           0
     17446 MEMB     132      POPC     C218     CTL3    -0.270000       12.0110           0
     17447 MEMB     132      POPC     H18R     HAL3     0.900000E-01   1.00800           0
     17448 MEMB     132      POPC     H18S     HAL3     0.900000E-01   1.00800           0
     17449 MEMB     132      POPC     H18T     HAL3     0.900000E-01   1.00800           0
     17450 MEMB     132      POPC     C33      CTL2    -0.180000       12.0110           0
     17451 MEMB     132      POPC     H3X      HAL2     0.900000E-01   1.00800           0
     17452 MEMB     132      POPC     H3Y      HAL2     0.900000E-01   1.00800           0
     17453 MEMB     132      POPC     C34      CTL2    -0.180000       12.0110           0
     17454 MEMB     132      POPC     H4X      HAL2     0.900000E-01   1.00800           0
     17455 MEMB     132      POPC     H4Y      HAL2     0.900000E-01   1.00800           0
     17456 MEMB     132      POPC     C35      CTL2    -0.180000       12.0110           0
     17457 MEMB     132      POPC     H5X      HAL2     0.900000E-01   1.00800           0
     17458 MEMB     132      POPC     H5Y      HAL2     0.900000E-01   1.00800           0
     17459 MEMB     132      POPC     C36      CTL2    -0.180000       12.0110           0
     17460 MEMB     132      POPC     H6X      HAL2     0.900000E-01   1.00800           0
     17461 MEMB     132      POPC     H6Y      HAL2     0.900000E-01   1.00800           0
     17462 MEMB     132      POPC     C37      CTL2    -0.180000       12.0110           0
     17463 MEMB     132      POPC     H7X      HAL2     0.900000E-01   1.00800           0
     17464 MEMB     132      POPC     H7Y      HAL2     0.900000E-01   1.00800           0
     17465 MEMB     132      POPC     C38      CTL2    -0.180000       12.0110           0
     17466 MEMB     132      POPC     H8X      HAL2     0.900000E-01   1.00800           0
     17467 MEMB     132      POPC     H8Y      HAL2     0.900000E-01   1.00800           0
     17468 MEMB     132      POPC     C39      CTL2    -0.180000       12.0110           0
     17469 MEMB     132      POPC     H9X      HAL2     0.900000E-01   1.00800           0
     17470 MEMB     132      POPC     H9Y      HAL2     0.900000E-01   1.00800           0
     17471 MEMB     132      POPC     C310     CTL2    -0.180000       12.0110           0
     17472 MEMB     132      POPC     H10X     HAL2     0.900000E-01   1.00800           0
     17473 MEMB     132      POPC     H10Y     HAL2     0.900000E-01   1.00800           0
     17474 MEMB     132      POPC     C311     CTL2    -0.180000       12.0110           0
     17475 MEMB     132      POPC     H11X     HAL2     0.900000E-01   1.00800           0
     17476 MEMB     132      POPC     H11Y     HAL2     0.900000E-01   1.00800           0
     17477 MEMB     132      POPC     C312     CTL2    -0.180000       12.0110           0
     17478 MEMB     132      POPC     H12X     HAL2     0.900000E-01   1.00800           0
     17479 MEMB     132      POPC     H12Y     HAL2     0.900000E-01   1.00800           0
     17480 MEMB     132      POPC     C313     CTL2    -0.180000       12.0110           0
     17481 MEMB     132      POPC     H13X     HAL2     0.900000E-01   1.00800           0
     17482 MEMB     132      POPC     H13Y     HAL2     0.900000E-01   1.00800           0
     17483 MEMB     132      POPC     C314     CTL2    -0.180000       12.0110           0
     17484 MEMB     132      POPC     H14X     HAL2     0.900000E-01   1.00800           0
     17485 MEMB     132      POPC     H14Y     HAL2     0.900000E-01   1.00800           0
     17486 MEMB     132      POPC     C315     CTL2    -0.180000       12.0110           0
     17487 MEMB     132      POPC     H15X     HAL2     0.900000E-01   1.00800           0
     17488 MEMB     132      POPC     H15Y     HAL2     0.900000E-01   1.00800           0
     17489 MEMB     132      POPC     C316     CTL3    -0.270000       12.0110           0
     17490 MEMB     132      POPC     H16X     HAL3     0.900000E-01   1.00800           0
     17491 MEMB     132      POPC     H16Y     HAL3     0.900000E-01   1.00800           0
     17492 MEMB     132      POPC     H16Z     HAL3     0.900000E-01   1.00800           0
     17493 MEMB     133      POPS     N        NH3L    -0.300000       14.0070           0
     17494 MEMB     133      POPS     HN1      HCL      0.330000       1.00800           0
     17495 MEMB     133      POPS     HN2      HCL      0.330000       1.00800           0
     17496 MEMB     133      POPS     HN3      HCL      0.330000       1.00800           0
     17497 MEMB     133      POPS     C12      CTL1     0.210000       12.0110           0
     17498 MEMB     133      POPS     H12A     HBL      0.100000       1.00800           0
     17499 MEMB     133      POPS     C13      CCL      0.340000       12.0110           0
     17500 MEMB     133      POPS     O13A     OCL     -0.670000       15.9994           0
     17501 MEMB     133      POPS     O13B     OCL     -0.670000       15.9994           0
     17502 MEMB     133      POPS     C11      CTL2    -0.800000E-01   12.0110           0
     17503 MEMB     133      POPS     H11A     HAL2     0.900000E-01   1.00800           0
     17504 MEMB     133      POPS     H11B     HAL2     0.900000E-01   1.00800           0
     17505 MEMB     133      POPS     P        PL        1.50000       30.9740           0
     17506 MEMB     133      POPS     O13      O2L     -0.780000       15.9994           0
     17507 MEMB     133      POPS     O14      O2L     -0.780000       15.9994           0
     17508 MEMB     133      POPS     O12      OSLP    -0.570000       15.9994           0
     17509 MEMB     133      POPS     O11      OSLP    -0.570000       15.9994           0
     17510 MEMB     133      POPS     C1       CTL2    -0.800000E-01   12.0110           0
     17511 MEMB     133      POPS     HA       HAL2     0.900000E-01   1.00800           0
     17512 MEMB     133      POPS     HB       HAL2     0.900000E-01   1.00800           0
     17513 MEMB     133      POPS     C2       CTL1     0.170000       12.0110           0
     17514 MEMB     133      POPS     HS       HAL1     0.900000E-01   1.00800           0
     17515 MEMB     133      POPS     O21      OSL     -0.490000       15.9994           0
     17516 MEMB     133      POPS     C21      CL       0.900000       12.0110           0
     17517 MEMB     133      POPS     O22      OBL     -0.630000       15.9994           0
     17518 MEMB     133      POPS     C22      CTL2    -0.220000       12.0110           0
     17519 MEMB     133      POPS     H2R      HAL2     0.900000E-01   1.00800           0
     17520 MEMB     133      POPS     H2S      HAL2     0.900000E-01   1.00800           0
     17521 MEMB     133      POPS     C3       CTL2     0.800000E-01   12.0110           0
     17522 MEMB     133      POPS     HX       HAL2     0.900000E-01   1.00800           0
     17523 MEMB     133      POPS     HY       HAL2     0.900000E-01   1.00800           0
     17524 MEMB     133      POPS     O31      OSL     -0.490000       15.9994           0
     17525 MEMB     133      POPS     C31      CL       0.900000       12.0110           0
     17526 MEMB     133      POPS     O32      OBL     -0.630000       15.9994           0
     17527 MEMB     133      POPS     C32      CTL2    -0.220000       12.0110           0
     17528 MEMB     133      POPS     H2X      HAL2     0.900000E-01   1.00800           0
     17529 MEMB     133      POPS     H2Y      HAL2     0.900000E-01   1.00800           0
     17530 MEMB     133      POPS     C23      CTL2    -0.180000       12.0110           0
     17531 MEMB     133      POPS     H3R      HAL2     0.900000E-01   1.00800           0
     17532 MEMB     133      POPS     H3S      HAL2     0.900000E-01   1.00800           0
     17533 MEMB     133      POPS     C24      CTL2    -0.180000       12.0110           0
     17534 MEMB     133      POPS     H4R      HAL2     0.900000E-01   1.00800           0
     17535 MEMB     133      POPS     H4S      HAL2     0.900000E-01   1.00800           0
     17536 MEMB     133      POPS     C25      CTL2    -0.180000       12.0110           0
     17537 MEMB     133      POPS     H5R      HAL2     0.900000E-01   1.00800           0
     17538 MEMB     133      POPS     H5S      HAL2     0.900000E-01   1.00800           0
     17539 MEMB     133      POPS     C26      CTL2    -0.180000       12.0110           0
     17540 MEMB     133      POPS     H6R      HAL2     0.900000E-01   1.00800           0
     17541 MEMB     133      POPS     H6S      HAL2     0.900000E-01   1.00800           0
     17542 MEMB     133      POPS     C27      CTL2    -0.180000       12.0110           0
     17543 MEMB     133      POPS     H7R      HAL2     0.900000E-01   1.00800           0
     17544 MEMB     133      POPS     H7S      HAL2     0.900000E-01   1.00800           0
     17545 MEMB     133      POPS     C28      CTL2    -0.180000       12.0110           0
     17546 MEMB     133      POPS     H8R      HAL2     0.900000E-01   1.00800           0
     17547 MEMB     133      POPS     H8S      HAL2     0.900000E-01   1.00800           0
     17548 MEMB     133      POPS     C29      CEL1    -0.150000       12.0110           0
     17549 MEMB     133      POPS     H91      HEL1     0.150000       1.00800           0
     17550 MEMB     133      POPS     C210     CEL1    -0.150000       12.0110           0
     17551 MEMB     133      POPS     H101     HEL1     0.150000       1.00800           0
     17552 MEMB     133      POPS     C211     CTL2    -0.180000       12.0110           0
     17553 MEMB     133      POPS     H11R     HAL2     0.900000E-01   1.00800           0
     17554 MEMB     133      POPS     H11S     HAL2     0.900000E-01   1.00800           0
     17555 MEMB     133      POPS     C212     CTL2    -0.180000       12.0110           0
     17556 MEMB     133      POPS     H12R     HAL2     0.900000E-01   1.00800           0
     17557 MEMB     133      POPS     H12S     HAL2     0.900000E-01   1.00800           0
     17558 MEMB     133      POPS     C213     CTL2    -0.180000       12.0110           0
     17559 MEMB     133      POPS     H13R     HAL2     0.900000E-01   1.00800           0
     17560 MEMB     133      POPS     H13S     HAL2     0.900000E-01   1.00800           0
     17561 MEMB     133      POPS     C214     CTL2    -0.180000       12.0110           0
     17562 MEMB     133      POPS     H14R     HAL2     0.900000E-01   1.00800           0
     17563 MEMB     133      POPS     H14S     HAL2     0.900000E-01   1.00800           0
     17564 MEMB     133      POPS     C215     CTL2    -0.180000       12.0110           0
     17565 MEMB     133      POPS     H15R     HAL2     0.900000E-01   1.00800           0
     17566 MEMB     133      POPS     H15S     HAL2     0.900000E-01   1.00800           0
     17567 MEMB     133      POPS     C216     CTL2    -0.180000       12.0110           0
     17568 MEMB     133      POPS     H16R     HAL2     0.900000E-01   1.00800           0
     17569 MEMB     133      POPS     H16S     HAL2     0.900000E-01   1.00800           0
     17570 MEMB     133      POPS     C217     CTL2    -0.180000       12.0110           0
     17571 MEMB     133      POPS     H17R     HAL2     0.900000E-01   1.00800           0
     17572 MEMB     133      POPS     H17S     HAL2     0.900000E-01   1.00800           0
     17573 MEMB     133      POPS     C218     CTL3    -0.270000       12.0110           0
     17574 MEMB     133      POPS     H18R     HAL3     0.900000E-01   1.00800           0
     17575 MEMB     133      POPS     H18S     HAL3     0.900000E-01   1.00800           0
     17576 MEMB     133      POPS     H18T     HAL3     0.900000E-01   1.00800           0
     17577 MEMB     133      POPS     C33      CTL2    -0.180000       12.0110           0
     17578 MEMB     133      POPS     H3X      HAL2     0.900000E-01   1.00800           0
     17579 MEMB     133      POPS     H3Y      HAL2     0.900000E-01   1.00800           0
     17580 MEMB     133      POPS     C34      CTL2    -0.180000       12.0110           0
     17581 MEMB     133      POPS     H4X      HAL2     0.900000E-01   1.00800           0
     17582 MEMB     133      POPS     H4Y      HAL2     0.900000E-01   1.00800           0
     17583 MEMB     133      POPS     C35      CTL2    -0.180000       12.0110           0
     17584 MEMB     133      POPS     H5X      HAL2     0.900000E-01   1.00800           0
     17585 MEMB     133      POPS     H5Y      HAL2     0.900000E-01   1.00800           0
     17586 MEMB     133      POPS     C36      CTL2    -0.180000       12.0110           0
     17587 MEMB     133      POPS     H6X      HAL2     0.900000E-01   1.00800           0
     17588 MEMB     133      POPS     H6Y      HAL2     0.900000E-01   1.00800           0
     17589 MEMB     133      POPS     C37      CTL2    -0.180000       12.0110           0
     17590 MEMB     133      POPS     H7X      HAL2     0.900000E-01   1.00800           0
     17591 MEMB     133      POPS     H7Y      HAL2     0.900000E-01   1.00800           0
     17592 MEMB     133      POPS     C38      CTL2    -0.180000       12.0110           0
     17593 MEMB     133      POPS     H8X      HAL2     0.900000E-01   1.00800           0
     17594 MEMB     133      POPS     H8Y      HAL2     0.900000E-01   1.00800           0
     17595 MEMB     133      POPS     C39      CTL2    -0.180000       12.0110           0
     17596 MEMB     133      POPS     H9X      HAL2     0.900000E-01   1.00800           0
     17597 MEMB     133      POPS     H9Y      HAL2     0.900000E-01   1.00800           0
     17598 MEMB     133      POPS     C310     CTL2    -0.180000       12.0110           0
     17599 MEMB     133      POPS     H10X     HAL2     0.900000E-01   1.00800           0
     17600 MEMB     133      POPS     H10Y     HAL2     0.900000E-01   1.00800           0
     17601 MEMB     133      POPS     C311     CTL2    -0.180000       12.0110           0
     17602 MEMB     133      POPS     H11X     HAL2     0.900000E-01   1.00800           0
     17603 MEMB     133      POPS     H11Y     HAL2     0.900000E-01   1.00800           0
     17604 MEMB     133      POPS     C312     CTL2    -0.180000       12.0110           0
     17605 MEMB     133      POPS     H12X     HAL2     0.900000E-01   1.00800           0
     17606 MEMB     133      POPS     H12Y     HAL2     0.900000E-01   1.00800           0
     17607 MEMB     133      POPS     C313     CTL2    -0.180000       12.0110           0
     17608 MEMB     133      POPS     H13X     HAL2     0.900000E-01   1.00800           0
     17609 MEMB     133      POPS     H13Y     HAL2     0.900000E-01   1.00800           0
     17610 MEMB     133      POPS     C314     CTL2    -0.180000       12.0110           0
     17611 MEMB     133      POPS     H14X     HAL2     0.900000E-01   1.00800           0
     17612 MEMB     133      POPS     H14Y     HAL2     0.900000E-01   1.00800           0
     17613 MEMB     133      POPS     C315     CTL2    -0.180000       12.0110           0
     17614 MEMB     133      POPS     H15X     HAL2     0.900000E-01   1.00800           0
     17615 MEMB     133      POPS     H15Y     HAL2     0.900000E-01   1.00800           0
     17616 MEMB     133      POPS     C316     CTL3    -0.270000       12.0110           0
     17617 MEMB     133      POPS     H16X     HAL3     0.900000E-01   1.00800           0
     17618 MEMB     133      POPS     H16Y     HAL3     0.900000E-01   1.00800           0
     17619 MEMB     133      POPS     H16Z     HAL3     0.900000E-01   1.00800           0
     17620 MEMB     134      POPC     N        NTL     -0.600000       14.0070           0
     17621 MEMB     134      POPC     C12      CTL2    -0.100000       12.0110           0
     17622 MEMB     134      POPC     H12A     HL       0.250000       1.00800           0
     17623 MEMB     134      POPC     H12B     HL       0.250000       1.00800           0
     17624 MEMB     134      POPC     C13      CTL5    -0.350000       12.0110           0
     17625 MEMB     134      POPC     H13A     HL       0.250000       1.00800           0
     17626 MEMB     134      POPC     H13B     HL       0.250000       1.00800           0
     17627 MEMB     134      POPC     H13C     HL       0.250000       1.00800           0
     17628 MEMB     134      POPC     C14      CTL5    -0.350000       12.0110           0
     17629 MEMB     134      POPC     H14A     HL       0.250000       1.00800           0
     17630 MEMB     134      POPC     H14B     HL       0.250000       1.00800           0
     17631 MEMB     134      POPC     H14C     HL       0.250000       1.00800           0
     17632 MEMB     134      POPC     C15      CTL5    -0.350000       12.0110           0
     17633 MEMB     134      POPC     H15A     HL       0.250000       1.00800           0
     17634 MEMB     134      POPC     H15B     HL       0.250000       1.00800           0
     17635 MEMB     134      POPC     H15C     HL       0.250000       1.00800           0
     17636 MEMB     134      POPC     C11      CTL2    -0.800000E-01   12.0110           0
     17637 MEMB     134      POPC     H11A     HAL2     0.900000E-01   1.00800           0
     17638 MEMB     134      POPC     H11B     HAL2     0.900000E-01   1.00800           0
     17639 MEMB     134      POPC     P        PL        1.50000       30.9740           0
     17640 MEMB     134      POPC     O13      O2L     -0.780000       15.9994           0
     17641 MEMB     134      POPC     O14      O2L     -0.780000       15.9994           0
     17642 MEMB     134      POPC     O12      OSLP    -0.570000       15.9994           0
     17643 MEMB     134      POPC     O11      OSLP    -0.570000       15.9994           0
     17644 MEMB     134      POPC     C1       CTL2    -0.800000E-01   12.0110           0
     17645 MEMB     134      POPC     HA       HAL2     0.900000E-01   1.00800           0
     17646 MEMB     134      POPC     HB       HAL2     0.900000E-01   1.00800           0
     17647 MEMB     134      POPC     C2       CTL1     0.170000       12.0110           0
     17648 MEMB     134      POPC     HS       HAL1     0.900000E-01   1.00800           0
     17649 MEMB     134      POPC     O21      OSL     -0.490000       15.9994           0
     17650 MEMB     134      POPC     C21      CL       0.900000       12.0110           0
     17651 MEMB     134      POPC     O22      OBL     -0.630000       15.9994           0
     17652 MEMB     134      POPC     C22      CTL2    -0.220000       12.0110           0
     17653 MEMB     134      POPC     H2R      HAL2     0.900000E-01   1.00800           0
     17654 MEMB     134      POPC     H2S      HAL2     0.900000E-01   1.00800           0
     17655 MEMB     134      POPC     C3       CTL2     0.800000E-01   12.0110           0
     17656 MEMB     134      POPC     HX       HAL2     0.900000E-01   1.00800           0
     17657 MEMB     134      POPC     HY       HAL2     0.900000E-01   1.00800           0
     17658 MEMB     134      POPC     O31      OSL     -0.490000       15.9994           0
     17659 MEMB     134      POPC     C31      CL       0.900000       12.0110           0
     17660 MEMB     134      POPC     O32      OBL     -0.630000       15.9994           0
     17661 MEMB     134      POPC     C32      CTL2    -0.220000       12.0110           0
     17662 MEMB     134      POPC     H2X      HAL2     0.900000E-01   1.00800           0
     17663 MEMB     134      POPC     H2Y      HAL2     0.900000E-01   1.00800           0
     17664 MEMB     134      POPC     C23      CTL2    -0.180000       12.0110           0
     17665 MEMB     134      POPC     H3R      HAL2     0.900000E-01   1.00800           0
     17666 MEMB     134      POPC     H3S      HAL2     0.900000E-01   1.00800           0
     17667 MEMB     134      POPC     C24      CTL2    -0.180000       12.0110           0
     17668 MEMB     134      POPC     H4R      HAL2     0.900000E-01   1.00800           0
     17669 MEMB     134      POPC     H4S      HAL2     0.900000E-01   1.00800           0
     17670 MEMB     134      POPC     C25      CTL2    -0.180000       12.0110           0
     17671 MEMB     134      POPC     H5R      HAL2     0.900000E-01   1.00800           0
     17672 MEMB     134      POPC     H5S      HAL2     0.900000E-01   1.00800           0
     17673 MEMB     134      POPC     C26      CTL2    -0.180000       12.0110           0
     17674 MEMB     134      POPC     H6R      HAL2     0.900000E-01   1.00800           0
     17675 MEMB     134      POPC     H6S      HAL2     0.900000E-01   1.00800           0
     17676 MEMB     134      POPC     C27      CTL2    -0.180000       12.0110           0
     17677 MEMB     134      POPC     H7R      HAL2     0.900000E-01   1.00800           0
     17678 MEMB     134      POPC     H7S      HAL2     0.900000E-01   1.00800           0
     17679 MEMB     134      POPC     C28      CTL2    -0.180000       12.0110           0
     17680 MEMB     134      POPC     H8R      HAL2     0.900000E-01   1.00800           0
     17681 MEMB     134      POPC     H8S      HAL2     0.900000E-01   1.00800           0
     17682 MEMB     134      POPC     C29      CEL1    -0.150000       12.0110           0
     17683 MEMB     134      POPC     H91      HEL1     0.150000       1.00800           0
     17684 MEMB     134      POPC     C210     CEL1    -0.150000       12.0110           0
     17685 MEMB     134      POPC     H101     HEL1     0.150000       1.00800           0
     17686 MEMB     134      POPC     C211     CTL2    -0.180000       12.0110           0
     17687 MEMB     134      POPC     H11R     HAL2     0.900000E-01   1.00800           0
     17688 MEMB     134      POPC     H11S     HAL2     0.900000E-01   1.00800           0
     17689 MEMB     134      POPC     C212     CTL2    -0.180000       12.0110           0
     17690 MEMB     134      POPC     H12R     HAL2     0.900000E-01   1.00800           0
     17691 MEMB     134      POPC     H12S     HAL2     0.900000E-01   1.00800           0
     17692 MEMB     134      POPC     C213     CTL2    -0.180000       12.0110           0
     17693 MEMB     134      POPC     H13R     HAL2     0.900000E-01   1.00800           0
     17694 MEMB     134      POPC     H13S     HAL2     0.900000E-01   1.00800           0
     17695 MEMB     134      POPC     C214     CTL2    -0.180000       12.0110           0
     17696 MEMB     134      POPC     H14R     HAL2     0.900000E-01   1.00800           0
     17697 MEMB     134      POPC     H14S     HAL2     0.900000E-01   1.00800           0
     17698 MEMB     134      POPC     C215     CTL2    -0.180000       12.0110           0
     17699 MEMB     134      POPC     H15R     HAL2     0.900000E-01   1.00800           0
     17700 MEMB     134      POPC     H15S     HAL2     0.900000E-01   1.00800           0
     17701 MEMB     134      POPC     C216     CTL2    -0.180000       12.0110           0
     17702 MEMB     134      POPC     H16R     HAL2     0.900000E-01   1.00800           0
     17703 MEMB     134      POPC     H16S     HAL2     0.900000E-01   1.00800           0
     17704 MEMB     134      POPC     C217     CTL2    -0.180000       12.0110           0
     17705 MEMB     134      POPC     H17R     HAL2     0.900000E-01   1.00800           0
     17706 MEMB     134      POPC     H17S     HAL2     0.900000E-01   1.00800           0
     17707 MEMB     134      POPC     C218     CTL3    -0.270000       12.0110           0
     17708 MEMB     134      POPC     H18R     HAL3     0.900000E-01   1.00800           0
     17709 MEMB     134      POPC     H18S     HAL3     0.900000E-01   1.00800           0
     17710 MEMB     134      POPC     H18T     HAL3     0.900000E-01   1.00800           0
     17711 MEMB     134      POPC     C33      CTL2    -0.180000       12.0110           0
     17712 MEMB     134      POPC     H3X      HAL2     0.900000E-01   1.00800           0
     17713 MEMB     134      POPC     H3Y      HAL2     0.900000E-01   1.00800           0
     17714 MEMB     134      POPC     C34      CTL2    -0.180000       12.0110           0
     17715 MEMB     134      POPC     H4X      HAL2     0.900000E-01   1.00800           0
     17716 MEMB     134      POPC     H4Y      HAL2     0.900000E-01   1.00800           0
     17717 MEMB     134      POPC     C35      CTL2    -0.180000       12.0110           0
     17718 MEMB     134      POPC     H5X      HAL2     0.900000E-01   1.00800           0
     17719 MEMB     134      POPC     H5Y      HAL2     0.900000E-01   1.00800           0
     17720 MEMB     134      POPC     C36      CTL2    -0.180000       12.0110           0
     17721 MEMB     134      POPC     H6X      HAL2     0.900000E-01   1.00800           0
     17722 MEMB     134      POPC     H6Y      HAL2     0.900000E-01   1.00800           0
     17723 MEMB     134      POPC     C37      CTL2    -0.180000       12.0110           0
     17724 MEMB     134      POPC     H7X      HAL2     0.900000E-01   1.00800           0
     17725 MEMB     134      POPC     H7Y      HAL2     0.900000E-01   1.00800           0
     17726 MEMB     134      POPC     C38      CTL2    -0.180000       12.0110           0
     17727 MEMB     134      POPC     H8X      HAL2     0.900000E-01   1.00800           0
     17728 MEMB     134      POPC     H8Y      HAL2     0.900000E-01   1.00800           0
     17729 MEMB     134      POPC     C39      CTL2    -0.180000       12.0110           0
     17730 MEMB     134      POPC     H9X      HAL2     0.900000E-01   1.00800           0
     17731 MEMB     134      POPC     H9Y      HAL2     0.900000E-01   1.00800           0
     17732 MEMB     134      POPC     C310     CTL2    -0.180000       12.0110           0
     17733 MEMB     134      POPC     H10X     HAL2     0.900000E-01   1.00800           0
     17734 MEMB     134      POPC     H10Y     HAL2     0.900000E-01   1.00800           0
     17735 MEMB     134      POPC     C311     CTL2    -0.180000       12.0110           0
     17736 MEMB     134      POPC     H11X     HAL2     0.900000E-01   1.00800           0
     17737 MEMB     134      POPC     H11Y     HAL2     0.900000E-01   1.00800           0
     17738 MEMB     134      POPC     C312     CTL2    -0.180000       12.0110           0
     17739 MEMB     134      POPC     H12X     HAL2     0.900000E-01   1.00800           0
     17740 MEMB     134      POPC     H12Y     HAL2     0.900000E-01   1.00800           0
     17741 MEMB     134      POPC     C313     CTL2    -0.180000       12.0110           0
     17742 MEMB     134      POPC     H13X     HAL2     0.900000E-01   1.00800           0
     17743 MEMB     134      POPC     H13Y     HAL2     0.900000E-01   1.00800           0
     17744 MEMB     134      POPC     C314     CTL2    -0.180000       12.0110           0
     17745 MEMB     134      POPC     H14X     HAL2     0.900000E-01   1.00800           0
     17746 MEMB     134      POPC     H14Y     HAL2     0.900000E-01   1.00800           0
     17747 MEMB     134      POPC     C315     CTL2    -0.180000       12.0110           0
     17748 MEMB     134      POPC     H15X     HAL2     0.900000E-01   1.00800           0
     17749 MEMB     134      POPC     H15Y     HAL2     0.900000E-01   1.00800           0
     17750 MEMB     134      POPC     C316     CTL3    -0.270000       12.0110           0
     17751 MEMB     134      POPC     H16X     HAL3     0.900000E-01   1.00800           0
     17752 MEMB     134      POPC     H16Y     HAL3     0.900000E-01   1.00800           0
     17753 MEMB     134      POPC     H16Z     HAL3     0.900000E-01   1.00800           0
     17754 MEMB     135      POPC     N        NTL     -0.600000       14.0070           0
     17755 MEMB     135      POPC     C12      CTL2    -0.100000       12.0110           0
     17756 MEMB     135      POPC     H12A     HL       0.250000       1.00800           0
     17757 MEMB     135      POPC     H12B     HL       0.250000       1.00800           0
     17758 MEMB     135      POPC     C13      CTL5    -0.350000       12.0110           0
     17759 MEMB     135      POPC     H13A     HL       0.250000       1.00800           0
     17760 MEMB     135      POPC     H13B     HL       0.250000       1.00800           0
     17761 MEMB     135      POPC     H13C     HL       0.250000       1.00800           0
     17762 MEMB     135      POPC     C14      CTL5    -0.350000       12.0110           0
     17763 MEMB     135      POPC     H14A     HL       0.250000       1.00800           0
     17764 MEMB     135      POPC     H14B     HL       0.250000       1.00800           0
     17765 MEMB     135      POPC     H14C     HL       0.250000       1.00800           0
     17766 MEMB     135      POPC     C15      CTL5    -0.350000       12.0110           0
     17767 MEMB     135      POPC     H15A     HL       0.250000       1.00800           0
     17768 MEMB     135      POPC     H15B     HL       0.250000       1.00800           0
     17769 MEMB     135      POPC     H15C     HL       0.250000       1.00800           0
     17770 MEMB     135      POPC     C11      CTL2    -0.800000E-01   12.0110           0
     17771 MEMB     135      POPC     H11A     HAL2     0.900000E-01   1.00800           0
     17772 MEMB     135      POPC     H11B     HAL2     0.900000E-01   1.00800           0
     17773 MEMB     135      POPC     P        PL        1.50000       30.9740           0
     17774 MEMB     135      POPC     O13      O2L     -0.780000       15.9994           0
     17775 MEMB     135      POPC     O14      O2L     -0.780000       15.9994           0
     17776 MEMB     135      POPC     O12      OSLP    -0.570000       15.9994           0
     17777 MEMB     135      POPC     O11      OSLP    -0.570000       15.9994           0
     17778 MEMB     135      POPC     C1       CTL2    -0.800000E-01   12.0110           0
     17779 MEMB     135      POPC     HA       HAL2     0.900000E-01   1.00800           0
     17780 MEMB     135      POPC     HB       HAL2     0.900000E-01   1.00800           0
     17781 MEMB     135      POPC     C2       CTL1     0.170000       12.0110           0
     17782 MEMB     135      POPC     HS       HAL1     0.900000E-01   1.00800           0
     17783 MEMB     135      POPC     O21      OSL     -0.490000       15.9994           0
     17784 MEMB     135      POPC     C21      CL       0.900000       12.0110           0
     17785 MEMB     135      POPC     O22      OBL     -0.630000       15.9994           0
     17786 MEMB     135      POPC     C22      CTL2    -0.220000       12.0110           0
     17787 MEMB     135      POPC     H2R      HAL2     0.900000E-01   1.00800           0
     17788 MEMB     135      POPC     H2S      HAL2     0.900000E-01   1.00800           0
     17789 MEMB     135      POPC     C3       CTL2     0.800000E-01   12.0110           0
     17790 MEMB     135      POPC     HX       HAL2     0.900000E-01   1.00800           0
     17791 MEMB     135      POPC     HY       HAL2     0.900000E-01   1.00800           0
     17792 MEMB     135      POPC     O31      OSL     -0.490000       15.9994           0
     17793 MEMB     135      POPC     C31      CL       0.900000       12.0110           0
     17794 MEMB     135      POPC     O32      OBL     -0.630000       15.9994           0
     17795 MEMB     135      POPC     C32      CTL2    -0.220000       12.0110           0
     17796 MEMB     135      POPC     H2X      HAL2     0.900000E-01   1.00800           0
     17797 MEMB     135      POPC     H2Y      HAL2     0.900000E-01   1.00800           0
     17798 MEMB     135      POPC     C23      CTL2    -0.180000       12.0110           0
     17799 MEMB     135      POPC     H3R      HAL2     0.900000E-01   1.00800           0
     17800 MEMB     135      POPC     H3S      HAL2     0.900000E-01   1.00800           0
     17801 MEMB     135      POPC     C24      CTL2    -0.180000       12.0110           0
     17802 MEMB     135      POPC     H4R      HAL2     0.900000E-01   1.00800           0
     17803 MEMB     135      POPC     H4S      HAL2     0.900000E-01   1.00800           0
     17804 MEMB     135      POPC     C25      CTL2    -0.180000       12.0110           0
     17805 MEMB     135      POPC     H5R      HAL2     0.900000E-01   1.00800           0
     17806 MEMB     135      POPC     H5S      HAL2     0.900000E-01   1.00800           0
     17807 MEMB     135      POPC     C26      CTL2    -0.180000       12.0110           0
     17808 MEMB     135      POPC     H6R      HAL2     0.900000E-01   1.00800           0
     17809 MEMB     135      POPC     H6S      HAL2     0.900000E-01   1.00800           0
     17810 MEMB     135      POPC     C27      CTL2    -0.180000       12.0110           0
     17811 MEMB     135      POPC     H7R      HAL2     0.900000E-01   1.00800           0
     17812 MEMB     135      POPC     H7S      HAL2     0.900000E-01   1.00800           0
     17813 MEMB     135      POPC     C28      CTL2    -0.180000       12.0110           0
     17814 MEMB     135      POPC     H8R      HAL2     0.900000E-01   1.00800           0
     17815 MEMB     135      POPC     H8S      HAL2     0.900000E-01   1.00800           0
     17816 MEMB     135      POPC     C29      CEL1    -0.150000       12.0110           0
     17817 MEMB     135      POPC     H91      HEL1     0.150000       1.00800           0
     17818 MEMB     135      POPC     C210     CEL1    -0.150000       12.0110           0
     17819 MEMB     135      POPC     H101     HEL1     0.150000       1.00800           0
     17820 MEMB     135      POPC     C211     CTL2    -0.180000       12.0110           0
     17821 MEMB     135      POPC     H11R     HAL2     0.900000E-01   1.00800           0
     17822 MEMB     135      POPC     H11S     HAL2     0.900000E-01   1.00800           0
     17823 MEMB     135      POPC     C212     CTL2    -0.180000       12.0110           0
     17824 MEMB     135      POPC     H12R     HAL2     0.900000E-01   1.00800           0
     17825 MEMB     135      POPC     H12S     HAL2     0.900000E-01   1.00800           0
     17826 MEMB     135      POPC     C213     CTL2    -0.180000       12.0110           0
     17827 MEMB     135      POPC     H13R     HAL2     0.900000E-01   1.00800           0
     17828 MEMB     135      POPC     H13S     HAL2     0.900000E-01   1.00800           0
     17829 MEMB     135      POPC     C214     CTL2    -0.180000       12.0110           0
     17830 MEMB     135      POPC     H14R     HAL2     0.900000E-01   1.00800           0
     17831 MEMB     135      POPC     H14S     HAL2     0.900000E-01   1.00800           0
     17832 MEMB     135      POPC     C215     CTL2    -0.180000       12.0110           0
     17833 MEMB     135      POPC     H15R     HAL2     0.900000E-01   1.00800           0
     17834 MEMB     135      POPC     H15S     HAL2     0.900000E-01   1.00800           0
     17835 MEMB     135      POPC     C216     CTL2    -0.180000       12.0110           0
     17836 MEMB     135      POPC     H16R     HAL2     0.900000E-01   1.00800           0
     17837 MEMB     135      POPC     H16S     HAL2     0.900000E-01   1.00800           0
     17838 MEMB     135      POPC     C217     CTL2    -0.180000       12.0110           0
     17839 MEMB     135      POPC     H17R     HAL2     0.900000E-01   1.00800           0
     17840 MEMB     135      POPC     H17S     HAL2     0.900000E-01   1.00800           0
     17841 MEMB     135      POPC     C218     CTL3    -0.270000       12.0110           0
     17842 MEMB     135      POPC     H18R     HAL3     0.900000E-01   1.00800           0
     17843 MEMB     135      POPC     H18S     HAL3     0.900000E-01   1.00800           0
     17844 MEMB     135      POPC     H18T     HAL3     0.900000E-01   1.00800           0
     17845 MEMB     135      POPC     C33      CTL2    -0.180000       12.0110           0
     17846 MEMB     135      POPC     H3X      HAL2     0.900000E-01   1.00800           0
     17847 MEMB     135      POPC     H3Y      HAL2     0.900000E-01   1.00800           0
     17848 MEMB     135      POPC     C34      CTL2    -0.180000       12.0110           0
     17849 MEMB     135      POPC     H4X      HAL2     0.900000E-01   1.00800           0
     17850 MEMB     135      POPC     H4Y      HAL2     0.900000E-01   1.00800           0
     17851 MEMB     135      POPC     C35      CTL2    -0.180000       12.0110           0
     17852 MEMB     135      POPC     H5X      HAL2     0.900000E-01   1.00800           0
     17853 MEMB     135      POPC     H5Y      HAL2     0.900000E-01   1.00800           0
     17854 MEMB     135      POPC     C36      CTL2    -0.180000       12.0110           0
     17855 MEMB     135      POPC     H6X      HAL2     0.900000E-01   1.00800           0
     17856 MEMB     135      POPC     H6Y      HAL2     0.900000E-01   1.00800           0
     17857 MEMB     135      POPC     C37      CTL2    -0.180000       12.0110           0
     17858 MEMB     135      POPC     H7X      HAL2     0.900000E-01   1.00800           0
     17859 MEMB     135      POPC     H7Y      HAL2     0.900000E-01   1.00800           0
     17860 MEMB     135      POPC     C38      CTL2    -0.180000       12.0110           0
     17861 MEMB     135      POPC     H8X      HAL2     0.900000E-01   1.00800           0
     17862 MEMB     135      POPC     H8Y      HAL2     0.900000E-01   1.00800           0
     17863 MEMB     135      POPC     C39      CTL2    -0.180000       12.0110           0
     17864 MEMB     135      POPC     H9X      HAL2     0.900000E-01   1.00800           0
     17865 MEMB     135      POPC     H9Y      HAL2     0.900000E-01   1.00800           0
     17866 MEMB     135      POPC     C310     CTL2    -0.180000       12.0110           0
     17867 MEMB     135      POPC     H10X     HAL2     0.900000E-01   1.00800           0
     17868 MEMB     135      POPC     H10Y     HAL2     0.900000E-01   1.00800           0
     17869 MEMB     135      POPC     C311     CTL2    -0.180000       12.0110           0
     17870 MEMB     135      POPC     H11X     HAL2     0.900000E-01   1.00800           0
     17871 MEMB     135      POPC     H11Y     HAL2     0.900000E-01   1.00800           0
     17872 MEMB     135      POPC     C312     CTL2    -0.180000       12.0110           0
     17873 MEMB     135      POPC     H12X     HAL2     0.900000E-01   1.00800           0
     17874 MEMB     135      POPC     H12Y     HAL2     0.900000E-01   1.00800           0
     17875 MEMB     135      POPC     C313     CTL2    -0.180000       12.0110           0
     17876 MEMB     135      POPC     H13X     HAL2     0.900000E-01   1.00800           0
     17877 MEMB     135      POPC     H13Y     HAL2     0.900000E-01   1.00800           0
     17878 MEMB     135      POPC     C314     CTL2    -0.180000       12.0110           0
     17879 MEMB     135      POPC     H14X     HAL2     0.900000E-01   1.00800           0
     17880 MEMB     135      POPC     H14Y     HAL2     0.900000E-01   1.00800           0
     17881 MEMB     135      POPC     C315     CTL2    -0.180000       12.0110           0
     17882 MEMB     135      POPC     H15X     HAL2     0.900000E-01   1.00800           0
     17883 MEMB     135      POPC     H15Y     HAL2     0.900000E-01   1.00800           0
     17884 MEMB     135      POPC     C316     CTL3    -0.270000       12.0110           0
     17885 MEMB     135      POPC     H16X     HAL3     0.900000E-01   1.00800           0
     17886 MEMB     135      POPC     H16Y     HAL3     0.900000E-01   1.00800           0
     17887 MEMB     135      POPC     H16Z     HAL3     0.900000E-01   1.00800           0
     17888 MEMB     136      POPC     N        NTL     -0.600000       14.0070           0
     17889 MEMB     136      POPC     C12      CTL2    -0.100000       12.0110           0
     17890 MEMB     136      POPC     H12A     HL       0.250000       1.00800           0
     17891 MEMB     136      POPC     H12B     HL       0.250000       1.00800           0
     17892 MEMB     136      POPC     C13      CTL5    -0.350000       12.0110           0
     17893 MEMB     136      POPC     H13A     HL       0.250000       1.00800           0
     17894 MEMB     136      POPC     H13B     HL       0.250000       1.00800           0
     17895 MEMB     136      POPC     H13C     HL       0.250000       1.00800           0
     17896 MEMB     136      POPC     C14      CTL5    -0.350000       12.0110           0
     17897 MEMB     136      POPC     H14A     HL       0.250000       1.00800           0
     17898 MEMB     136      POPC     H14B     HL       0.250000       1.00800           0
     17899 MEMB     136      POPC     H14C     HL       0.250000       1.00800           0
     17900 MEMB     136      POPC     C15      CTL5    -0.350000       12.0110           0
     17901 MEMB     136      POPC     H15A     HL       0.250000       1.00800           0
     17902 MEMB     136      POPC     H15B     HL       0.250000       1.00800           0
     17903 MEMB     136      POPC     H15C     HL       0.250000       1.00800           0
     17904 MEMB     136      POPC     C11      CTL2    -0.800000E-01   12.0110           0
     17905 MEMB     136      POPC     H11A     HAL2     0.900000E-01   1.00800           0
     17906 MEMB     136      POPC     H11B     HAL2     0.900000E-01   1.00800           0
     17907 MEMB     136      POPC     P        PL        1.50000       30.9740           0
     17908 MEMB     136      POPC     O13      O2L     -0.780000       15.9994           0
     17909 MEMB     136      POPC     O14      O2L     -0.780000       15.9994           0
     17910 MEMB     136      POPC     O12      OSLP    -0.570000       15.9994           0
     17911 MEMB     136      POPC     O11      OSLP    -0.570000       15.9994           0
     17912 MEMB     136      POPC     C1       CTL2    -0.800000E-01   12.0110           0
     17913 MEMB     136      POPC     HA       HAL2     0.900000E-01   1.00800           0
     17914 MEMB     136      POPC     HB       HAL2     0.900000E-01   1.00800           0
     17915 MEMB     136      POPC     C2       CTL1     0.170000       12.0110           0
     17916 MEMB     136      POPC     HS       HAL1     0.900000E-01   1.00800           0
     17917 MEMB     136      POPC     O21      OSL     -0.490000       15.9994           0
     17918 MEMB     136      POPC     C21      CL       0.900000       12.0110           0
     17919 MEMB     136      POPC     O22      OBL     -0.630000       15.9994           0
     17920 MEMB     136      POPC     C22      CTL2    -0.220000       12.0110           0
     17921 MEMB     136      POPC     H2R      HAL2     0.900000E-01   1.00800           0
     17922 MEMB     136      POPC     H2S      HAL2     0.900000E-01   1.00800           0
     17923 MEMB     136      POPC     C3       CTL2     0.800000E-01   12.0110           0
     17924 MEMB     136      POPC     HX       HAL2     0.900000E-01   1.00800           0
     17925 MEMB     136      POPC     HY       HAL2     0.900000E-01   1.00800           0
     17926 MEMB     136      POPC     O31      OSL     -0.490000       15.9994           0
     17927 MEMB     136      POPC     C31      CL       0.900000       12.0110           0
     17928 MEMB     136      POPC     O32      OBL     -0.630000       15.9994           0
     17929 MEMB     136      POPC     C32      CTL2    -0.220000       12.0110           0
     17930 MEMB     136      POPC     H2X      HAL2     0.900000E-01   1.00800           0
     17931 MEMB     136      POPC     H2Y      HAL2     0.900000E-01   1.00800           0
     17932 MEMB     136      POPC     C23      CTL2    -0.180000       12.0110           0
     17933 MEMB     136      POPC     H3R      HAL2     0.900000E-01   1.00800           0
     17934 MEMB     136      POPC     H3S      HAL2     0.900000E-01   1.00800           0
     17935 MEMB     136      POPC     C24      CTL2    -0.180000       12.0110           0
     17936 MEMB     136      POPC     H4R      HAL2     0.900000E-01   1.00800           0
     17937 MEMB     136      POPC     H4S      HAL2     0.900000E-01   1.00800           0
     17938 MEMB     136      POPC     C25      CTL2    -0.180000       12.0110           0
     17939 MEMB     136      POPC     H5R      HAL2     0.900000E-01   1.00800           0
     17940 MEMB     136      POPC     H5S      HAL2     0.900000E-01   1.00800           0
     17941 MEMB     136      POPC     C26      CTL2    -0.180000       12.0110           0
     17942 MEMB     136      POPC     H6R      HAL2     0.900000E-01   1.00800           0
     17943 MEMB     136      POPC     H6S      HAL2     0.900000E-01   1.00800           0
     17944 MEMB     136      POPC     C27      CTL2    -0.180000       12.0110           0
     17945 MEMB     136      POPC     H7R      HAL2     0.900000E-01   1.00800           0
     17946 MEMB     136      POPC     H7S      HAL2     0.900000E-01   1.00800           0
     17947 MEMB     136      POPC     C28      CTL2    -0.180000       12.0110           0
     17948 MEMB     136      POPC     H8R      HAL2     0.900000E-01   1.00800           0
     17949 MEMB     136      POPC     H8S      HAL2     0.900000E-01   1.00800           0
     17950 MEMB     136      POPC     C29      CEL1    -0.150000       12.0110           0
     17951 MEMB     136      POPC     H91      HEL1     0.150000       1.00800           0
     17952 MEMB     136      POPC     C210     CEL1    -0.150000       12.0110           0
     17953 MEMB     136      POPC     H101     HEL1     0.150000       1.00800           0
     17954 MEMB     136      POPC     C211     CTL2    -0.180000       12.0110           0
     17955 MEMB     136      POPC     H11R     HAL2     0.900000E-01   1.00800           0
     17956 MEMB     136      POPC     H11S     HAL2     0.900000E-01   1.00800           0
     17957 MEMB     136      POPC     C212     CTL2    -0.180000       12.0110           0
     17958 MEMB     136      POPC     H12R     HAL2     0.900000E-01   1.00800           0
     17959 MEMB     136      POPC     H12S     HAL2     0.900000E-01   1.00800           0
     17960 MEMB     136      POPC     C213     CTL2    -0.180000       12.0110           0
     17961 MEMB     136      POPC     H13R     HAL2     0.900000E-01   1.00800           0
     17962 MEMB     136      POPC     H13S     HAL2     0.900000E-01   1.00800           0
     17963 MEMB     136      POPC     C214     CTL2    -0.180000       12.0110           0
     17964 MEMB     136      POPC     H14R     HAL2     0.900000E-01   1.00800           0
     17965 MEMB     136      POPC     H14S     HAL2     0.900000E-01   1.00800           0
     17966 MEMB     136      POPC     C215     CTL2    -0.180000       12.0110           0
     17967 MEMB     136      POPC     H15R     HAL2     0.900000E-01   1.00800           0
     17968 MEMB     136      POPC     H15S     HAL2     0.900000E-01   1.00800           0
     17969 MEMB     136      POPC     C216     CTL2    -0.180000       12.0110           0
     17970 MEMB     136      POPC     H16R     HAL2     0.900000E-01   1.00800           0
     17971 MEMB     136      POPC     H16S     HAL2     0.900000E-01   1.00800           0
     17972 MEMB     136      POPC     C217     CTL2    -0.180000       12.0110           0
     17973 MEMB     136      POPC     H17R     HAL2     0.900000E-01   1.00800           0
     17974 MEMB     136      POPC     H17S     HAL2     0.900000E-01   1.00800           0
     17975 MEMB     136      POPC     C218     CTL3    -0.270000       12.0110           0
     17976 MEMB     136      POPC     H18R     HAL3     0.900000E-01   1.00800           0
     17977 MEMB     136      POPC     H18S     HAL3     0.900000E-01   1.00800           0
     17978 MEMB     136      POPC     H18T     HAL3     0.900000E-01   1.00800           0
     17979 MEMB     136      POPC     C33      CTL2    -0.180000       12.0110           0
     17980 MEMB     136      POPC     H3X      HAL2     0.900000E-01   1.00800           0
     17981 MEMB     136      POPC     H3Y      HAL2     0.900000E-01   1.00800           0
     17982 MEMB     136      POPC     C34      CTL2    -0.180000       12.0110           0
     17983 MEMB     136      POPC     H4X      HAL2     0.900000E-01   1.00800           0
     17984 MEMB     136      POPC     H4Y      HAL2     0.900000E-01   1.00800           0
     17985 MEMB     136      POPC     C35      CTL2    -0.180000       12.0110           0
     17986 MEMB     136      POPC     H5X      HAL2     0.900000E-01   1.00800           0
     17987 MEMB     136      POPC     H5Y      HAL2     0.900000E-01   1.00800           0
     17988 MEMB     136      POPC     C36      CTL2    -0.180000       12.0110           0
     17989 MEMB     136      POPC     H6X      HAL2     0.900000E-01   1.00800           0
     17990 MEMB     136      POPC     H6Y      HAL2     0.900000E-01   1.00800           0
     17991 MEMB     136      POPC     C37      CTL2    -0.180000       12.0110           0
     17992 MEMB     136      POPC     H7X      HAL2     0.900000E-01   1.00800           0
     17993 MEMB     136      POPC     H7Y      HAL2     0.900000E-01   1.00800           0
     17994 MEMB     136      POPC     C38      CTL2    -0.180000       12.0110           0
     17995 MEMB     136      POPC     H8X      HAL2     0.900000E-01   1.00800           0
     17996 MEMB     136      POPC     H8Y      HAL2     0.900000E-01   1.00800           0
     17997 MEMB     136      POPC     C39      CTL2    -0.180000       12.0110           0
     17998 MEMB     136      POPC     H9X      HAL2     0.900000E-01   1.00800           0
     17999 MEMB     136      POPC     H9Y      HAL2     0.900000E-01   1.00800           0
     18000 MEMB     136      POPC     C310     CTL2    -0.180000       12.0110           0
     18001 MEMB     136      POPC     H10X     HAL2     0.900000E-01   1.00800           0
     18002 MEMB     136      POPC     H10Y     HAL2     0.900000E-01   1.00800           0
     18003 MEMB     136      POPC     C311     CTL2    -0.180000       12.0110           0
     18004 MEMB     136      POPC     H11X     HAL2     0.900000E-01   1.00800           0
     18005 MEMB     136      POPC     H11Y     HAL2     0.900000E-01   1.00800           0
     18006 MEMB     136      POPC     C312     CTL2    -0.180000       12.0110           0
     18007 MEMB     136      POPC     H12X     HAL2     0.900000E-01   1.00800           0
     18008 MEMB     136      POPC     H12Y     HAL2     0.900000E-01   1.00800           0
     18009 MEMB     136      POPC     C313     CTL2    -0.180000       12.0110           0
     18010 MEMB     136      POPC     H13X     HAL2     0.900000E-01   1.00800           0
     18011 MEMB     136      POPC     H13Y     HAL2     0.900000E-01   1.00800           0
     18012 MEMB     136      POPC     C314     CTL2    -0.180000       12.0110           0
     18013 MEMB     136      POPC     H14X     HAL2     0.900000E-01   1.00800           0
     18014 MEMB     136      POPC     H14Y     HAL2     0.900000E-01   1.00800           0
     18015 MEMB     136      POPC     C315     CTL2    -0.180000       12.0110           0
     18016 MEMB     136      POPC     H15X     HAL2     0.900000E-01   1.00800           0
     18017 MEMB     136      POPC     H15Y     HAL2     0.900000E-01   1.00800           0
     18018 MEMB     136      POPC     C316     CTL3    -0.270000       12.0110           0
     18019 MEMB     136      POPC     H16X     HAL3     0.900000E-01   1.00800           0
     18020 MEMB     136      POPC     H16Y     HAL3     0.900000E-01   1.00800           0
     18021 MEMB     136      POPC     H16Z     HAL3     0.900000E-01   1.00800           0
     18022 MEMB     137      POPC     N        NTL     -0.600000       14.0070           0
     18023 MEMB     137      POPC     C12      CTL2    -0.100000       12.0110           0
     18024 MEMB     137      POPC     H12A     HL       0.250000       1.00800           0
     18025 MEMB     137      POPC     H12B     HL       0.250000       1.00800           0
     18026 MEMB     137      POPC     C13      CTL5    -0.350000       12.0110           0
     18027 MEMB     137      POPC     H13A     HL       0.250000       1.00800           0
     18028 MEMB     137      POPC     H13B     HL       0.250000       1.00800           0
     18029 MEMB     137      POPC     H13C     HL       0.250000       1.00800           0
     18030 MEMB     137      POPC     C14      CTL5    -0.350000       12.0110           0
     18031 MEMB     137      POPC     H14A     HL       0.250000       1.00800           0
     18032 MEMB     137      POPC     H14B     HL       0.250000       1.00800           0
     18033 MEMB     137      POPC     H14C     HL       0.250000       1.00800           0
     18034 MEMB     137      POPC     C15      CTL5    -0.350000       12.0110           0
     18035 MEMB     137      POPC     H15A     HL       0.250000       1.00800           0
     18036 MEMB     137      POPC     H15B     HL       0.250000       1.00800           0
     18037 MEMB     137      POPC     H15C     HL       0.250000       1.00800           0
     18038 MEMB     137      POPC     C11      CTL2    -0.800000E-01   12.0110           0
     18039 MEMB     137      POPC     H11A     HAL2     0.900000E-01   1.00800           0
     18040 MEMB     137      POPC     H11B     HAL2     0.900000E-01   1.00800           0
     18041 MEMB     137      POPC     P        PL        1.50000       30.9740           0
     18042 MEMB     137      POPC     O13      O2L     -0.780000       15.9994           0
     18043 MEMB     137      POPC     O14      O2L     -0.780000       15.9994           0
     18044 MEMB     137      POPC     O12      OSLP    -0.570000       15.9994           0
     18045 MEMB     137      POPC     O11      OSLP    -0.570000       15.9994           0
     18046 MEMB     137      POPC     C1       CTL2    -0.800000E-01   12.0110           0
     18047 MEMB     137      POPC     HA       HAL2     0.900000E-01   1.00800           0
     18048 MEMB     137      POPC     HB       HAL2     0.900000E-01   1.00800           0
     18049 MEMB     137      POPC     C2       CTL1     0.170000       12.0110           0
     18050 MEMB     137      POPC     HS       HAL1     0.900000E-01   1.00800           0
     18051 MEMB     137      POPC     O21      OSL     -0.490000       15.9994           0
     18052 MEMB     137      POPC     C21      CL       0.900000       12.0110           0
     18053 MEMB     137      POPC     O22      OBL     -0.630000       15.9994           0
     18054 MEMB     137      POPC     C22      CTL2    -0.220000       12.0110           0
     18055 MEMB     137      POPC     H2R      HAL2     0.900000E-01   1.00800           0
     18056 MEMB     137      POPC     H2S      HAL2     0.900000E-01   1.00800           0
     18057 MEMB     137      POPC     C3       CTL2     0.800000E-01   12.0110           0
     18058 MEMB     137      POPC     HX       HAL2     0.900000E-01   1.00800           0
     18059 MEMB     137      POPC     HY       HAL2     0.900000E-01   1.00800           0
     18060 MEMB     137      POPC     O31      OSL     -0.490000       15.9994           0
     18061 MEMB     137      POPC     C31      CL       0.900000       12.0110           0
     18062 MEMB     137      POPC     O32      OBL     -0.630000       15.9994           0
     18063 MEMB     137      POPC     C32      CTL2    -0.220000       12.0110           0
     18064 MEMB     137      POPC     H2X      HAL2     0.900000E-01   1.00800           0
     18065 MEMB     137      POPC     H2Y      HAL2     0.900000E-01   1.00800           0
     18066 MEMB     137      POPC     C23      CTL2    -0.180000       12.0110           0
     18067 MEMB     137      POPC     H3R      HAL2     0.900000E-01   1.00800           0
     18068 MEMB     137      POPC     H3S      HAL2     0.900000E-01   1.00800           0
     18069 MEMB     137      POPC     C24      CTL2    -0.180000       12.0110           0
     18070 MEMB     137      POPC     H4R      HAL2     0.900000E-01   1.00800           0
     18071 MEMB     137      POPC     H4S      HAL2     0.900000E-01   1.00800           0
     18072 MEMB     137      POPC     C25      CTL2    -0.180000       12.0110           0
     18073 MEMB     137      POPC     H5R      HAL2     0.900000E-01   1.00800           0
     18074 MEMB     137      POPC     H5S      HAL2     0.900000E-01   1.00800           0
     18075 MEMB     137      POPC     C26      CTL2    -0.180000       12.0110           0
     18076 MEMB     137      POPC     H6R      HAL2     0.900000E-01   1.00800           0
     18077 MEMB     137      POPC     H6S      HAL2     0.900000E-01   1.00800           0
     18078 MEMB     137      POPC     C27      CTL2    -0.180000       12.0110           0
     18079 MEMB     137      POPC     H7R      HAL2     0.900000E-01   1.00800           0
     18080 MEMB     137      POPC     H7S      HAL2     0.900000E-01   1.00800           0
     18081 MEMB     137      POPC     C28      CTL2    -0.180000       12.0110           0
     18082 MEMB     137      POPC     H8R      HAL2     0.900000E-01   1.00800           0
     18083 MEMB     137      POPC     H8S      HAL2     0.900000E-01   1.00800           0
     18084 MEMB     137      POPC     C29      CEL1    -0.150000       12.0110           0
     18085 MEMB     137      POPC     H91      HEL1     0.150000       1.00800           0
     18086 MEMB     137      POPC     C210     CEL1    -0.150000       12.0110           0
     18087 MEMB     137      POPC     H101     HEL1     0.150000       1.00800           0
     18088 MEMB     137      POPC     C211     CTL2    -0.180000       12.0110           0
     18089 MEMB     137      POPC     H11R     HAL2     0.900000E-01   1.00800           0
     18090 MEMB     137      POPC     H11S     HAL2     0.900000E-01   1.00800           0
     18091 MEMB     137      POPC     C212     CTL2    -0.180000       12.0110           0
     18092 MEMB     137      POPC     H12R     HAL2     0.900000E-01   1.00800           0
     18093 MEMB     137      POPC     H12S     HAL2     0.900000E-01   1.00800           0
     18094 MEMB     137      POPC     C213     CTL2    -0.180000       12.0110           0
     18095 MEMB     137      POPC     H13R     HAL2     0.900000E-01   1.00800           0
     18096 MEMB     137      POPC     H13S     HAL2     0.900000E-01   1.00800           0
     18097 MEMB     137      POPC     C214     CTL2    -0.180000       12.0110           0
     18098 MEMB     137      POPC     H14R     HAL2     0.900000E-01   1.00800           0
     18099 MEMB     137      POPC     H14S     HAL2     0.900000E-01   1.00800           0
     18100 MEMB     137      POPC     C215     CTL2    -0.180000       12.0110           0
     18101 MEMB     137      POPC     H15R     HAL2     0.900000E-01   1.00800           0
     18102 MEMB     137      POPC     H15S     HAL2     0.900000E-01   1.00800           0
     18103 MEMB     137      POPC     C216     CTL2    -0.180000       12.0110           0
     18104 MEMB     137      POPC     H16R     HAL2     0.900000E-01   1.00800           0
     18105 MEMB     137      POPC     H16S     HAL2     0.900000E-01   1.00800           0
     18106 MEMB     137      POPC     C217     CTL2    -0.180000       12.0110           0
     18107 MEMB     137      POPC     H17R     HAL2     0.900000E-01   1.00800           0
     18108 MEMB     137      POPC     H17S     HAL2     0.900000E-01   1.00800           0
     18109 MEMB     137      POPC     C218     CTL3    -0.270000       12.0110           0
     18110 MEMB     137      POPC     H18R     HAL3     0.900000E-01   1.00800           0
     18111 MEMB     137      POPC     H18S     HAL3     0.900000E-01   1.00800           0
     18112 MEMB     137      POPC     H18T     HAL3     0.900000E-01   1.00800           0
     18113 MEMB     137      POPC     C33      CTL2    -0.180000       12.0110           0
     18114 MEMB     137      POPC     H3X      HAL2     0.900000E-01   1.00800           0
     18115 MEMB     137      POPC     H3Y      HAL2     0.900000E-01   1.00800           0
     18116 MEMB     137      POPC     C34      CTL2    -0.180000       12.0110           0
     18117 MEMB     137      POPC     H4X      HAL2     0.900000E-01   1.00800           0
     18118 MEMB     137      POPC     H4Y      HAL2     0.900000E-01   1.00800           0
     18119 MEMB     137      POPC     C35      CTL2    -0.180000       12.0110           0
     18120 MEMB     137      POPC     H5X      HAL2     0.900000E-01   1.00800           0
     18121 MEMB     137      POPC     H5Y      HAL2     0.900000E-01   1.00800           0
     18122 MEMB     137      POPC     C36      CTL2    -0.180000       12.0110           0
     18123 MEMB     137      POPC     H6X      HAL2     0.900000E-01   1.00800           0
     18124 MEMB     137      POPC     H6Y      HAL2     0.900000E-01   1.00800           0
     18125 MEMB     137      POPC     C37      CTL2    -0.180000       12.0110           0
     18126 MEMB     137      POPC     H7X      HAL2     0.900000E-01   1.00800           0
     18127 MEMB     137      POPC     H7Y      HAL2     0.900000E-01   1.00800           0
     18128 MEMB     137      POPC     C38      CTL2    -0.180000       12.0110           0
     18129 MEMB     137      POPC     H8X      HAL2     0.900000E-01   1.00800           0
     18130 MEMB     137      POPC     H8Y      HAL2     0.900000E-01   1.00800           0
     18131 MEMB     137      POPC     C39      CTL2    -0.180000       12.0110           0
     18132 MEMB     137      POPC     H9X      HAL2     0.900000E-01   1.00800           0
     18133 MEMB     137      POPC     H9Y      HAL2     0.900000E-01   1.00800           0
     18134 MEMB     137      POPC     C310     CTL2    -0.180000       12.0110           0
     18135 MEMB     137      POPC     H10X     HAL2     0.900000E-01   1.00800           0
     18136 MEMB     137      POPC     H10Y     HAL2     0.900000E-01   1.00800           0
     18137 MEMB     137      POPC     C311     CTL2    -0.180000       12.0110           0
     18138 MEMB     137      POPC     H11X     HAL2     0.900000E-01   1.00800           0
     18139 MEMB     137      POPC     H11Y     HAL2     0.900000E-01   1.00800           0
     18140 MEMB     137      POPC     C312     CTL2    -0.180000       12.0110           0
     18141 MEMB     137      POPC     H12X     HAL2     0.900000E-01   1.00800           0
     18142 MEMB     137      POPC     H12Y     HAL2     0.900000E-01   1.00800           0
     18143 MEMB     137      POPC     C313     CTL2    -0.180000       12.0110           0
     18144 MEMB     137      POPC     H13X     HAL2     0.900000E-01   1.00800           0
     18145 MEMB     137      POPC     H13Y     HAL2     0.900000E-01   1.00800           0
     18146 MEMB     137      POPC     C314     CTL2    -0.180000       12.0110           0
     18147 MEMB     137      POPC     H14X     HAL2     0.900000E-01   1.00800           0
     18148 MEMB     137      POPC     H14Y     HAL2     0.900000E-01   1.00800           0
     18149 MEMB     137      POPC     C315     CTL2    -0.180000       12.0110           0
     18150 MEMB     137      POPC     H15X     HAL2     0.900000E-01   1.00800           0
     18151 MEMB     137      POPC     H15Y     HAL2     0.900000E-01   1.00800           0
     18152 MEMB     137      POPC     C316     CTL3    -0.270000       12.0110           0
     18153 MEMB     137      POPC     H16X     HAL3     0.900000E-01   1.00800           0
     18154 MEMB     137      POPC     H16Y     HAL3     0.900000E-01   1.00800           0
     18155 MEMB     137      POPC     H16Z     HAL3     0.900000E-01   1.00800           0
     18156 MEMB     138      POPC     N        NTL     -0.600000       14.0070           0
     18157 MEMB     138      POPC     C12      CTL2    -0.100000       12.0110           0
     18158 MEMB     138      POPC     H12A     HL       0.250000       1.00800           0
     18159 MEMB     138      POPC     H12B     HL       0.250000       1.00800           0
     18160 MEMB     138      POPC     C13      CTL5    -0.350000       12.0110           0
     18161 MEMB     138      POPC     H13A     HL       0.250000       1.00800           0
     18162 MEMB     138      POPC     H13B     HL       0.250000       1.00800           0
     18163 MEMB     138      POPC     H13C     HL       0.250000       1.00800           0
     18164 MEMB     138      POPC     C14      CTL5    -0.350000       12.0110           0
     18165 MEMB     138      POPC     H14A     HL       0.250000       1.00800           0
     18166 MEMB     138      POPC     H14B     HL       0.250000       1.00800           0
     18167 MEMB     138      POPC     H14C     HL       0.250000       1.00800           0
     18168 MEMB     138      POPC     C15      CTL5    -0.350000       12.0110           0
     18169 MEMB     138      POPC     H15A     HL       0.250000       1.00800           0
     18170 MEMB     138      POPC     H15B     HL       0.250000       1.00800           0
     18171 MEMB     138      POPC     H15C     HL       0.250000       1.00800           0
     18172 MEMB     138      POPC     C11      CTL2    -0.800000E-01   12.0110           0
     18173 MEMB     138      POPC     H11A     HAL2     0.900000E-01   1.00800           0
     18174 MEMB     138      POPC     H11B     HAL2     0.900000E-01   1.00800           0
     18175 MEMB     138      POPC     P        PL        1.50000       30.9740           0
     18176 MEMB     138      POPC     O13      O2L     -0.780000       15.9994           0
     18177 MEMB     138      POPC     O14      O2L     -0.780000       15.9994           0
     18178 MEMB     138      POPC     O12      OSLP    -0.570000       15.9994           0
     18179 MEMB     138      POPC     O11      OSLP    -0.570000       15.9994           0
     18180 MEMB     138      POPC     C1       CTL2    -0.800000E-01   12.0110           0
     18181 MEMB     138      POPC     HA       HAL2     0.900000E-01   1.00800           0
     18182 MEMB     138      POPC     HB       HAL2     0.900000E-01   1.00800           0
     18183 MEMB     138      POPC     C2       CTL1     0.170000       12.0110           0
     18184 MEMB     138      POPC     HS       HAL1     0.900000E-01   1.00800           0
     18185 MEMB     138      POPC     O21      OSL     -0.490000       15.9994           0
     18186 MEMB     138      POPC     C21      CL       0.900000       12.0110           0
     18187 MEMB     138      POPC     O22      OBL     -0.630000       15.9994           0
     18188 MEMB     138      POPC     C22      CTL2    -0.220000       12.0110           0
     18189 MEMB     138      POPC     H2R      HAL2     0.900000E-01   1.00800           0
     18190 MEMB     138      POPC     H2S      HAL2     0.900000E-01   1.00800           0
     18191 MEMB     138      POPC     C3       CTL2     0.800000E-01   12.0110           0
     18192 MEMB     138      POPC     HX       HAL2     0.900000E-01   1.00800           0
     18193 MEMB     138      POPC     HY       HAL2     0.900000E-01   1.00800           0
     18194 MEMB     138      POPC     O31      OSL     -0.490000       15.9994           0
     18195 MEMB     138      POPC     C31      CL       0.900000       12.0110           0
     18196 MEMB     138      POPC     O32      OBL     -0.630000       15.9994           0
     18197 MEMB     138      POPC     C32      CTL2    -0.220000       12.0110           0
     18198 MEMB     138      POPC     H2X      HAL2     0.900000E-01   1.00800           0
     18199 MEMB     138      POPC     H2Y      HAL2     0.900000E-01   1.00800           0
     18200 MEMB     138      POPC     C23      CTL2    -0.180000       12.0110           0
     18201 MEMB     138      POPC     H3R      HAL2     0.900000E-01   1.00800           0
     18202 MEMB     138      POPC     H3S      HAL2     0.900000E-01   1.00800           0
     18203 MEMB     138      POPC     C24      CTL2    -0.180000       12.0110           0
     18204 MEMB     138      POPC     H4R      HAL2     0.900000E-01   1.00800           0
     18205 MEMB     138      POPC     H4S      HAL2     0.900000E-01   1.00800           0
     18206 MEMB     138      POPC     C25      CTL2    -0.180000       12.0110           0
     18207 MEMB     138      POPC     H5R      HAL2     0.900000E-01   1.00800           0
     18208 MEMB     138      POPC     H5S      HAL2     0.900000E-01   1.00800           0
     18209 MEMB     138      POPC     C26      CTL2    -0.180000       12.0110           0
     18210 MEMB     138      POPC     H6R      HAL2     0.900000E-01   1.00800           0
     18211 MEMB     138      POPC     H6S      HAL2     0.900000E-01   1.00800           0
     18212 MEMB     138      POPC     C27      CTL2    -0.180000       12.0110           0
     18213 MEMB     138      POPC     H7R      HAL2     0.900000E-01   1.00800           0
     18214 MEMB     138      POPC     H7S      HAL2     0.900000E-01   1.00800           0
     18215 MEMB     138      POPC     C28      CTL2    -0.180000       12.0110           0
     18216 MEMB     138      POPC     H8R      HAL2     0.900000E-01   1.00800           0
     18217 MEMB     138      POPC     H8S      HAL2     0.900000E-01   1.00800           0
     18218 MEMB     138      POPC     C29      CEL1    -0.150000       12.0110           0
     18219 MEMB     138      POPC     H91      HEL1     0.150000       1.00800           0
     18220 MEMB     138      POPC     C210     CEL1    -0.150000       12.0110           0
     18221 MEMB     138      POPC     H101     HEL1     0.150000       1.00800           0
     18222 MEMB     138      POPC     C211     CTL2    -0.180000       12.0110           0
     18223 MEMB     138      POPC     H11R     HAL2     0.900000E-01   1.00800           0
     18224 MEMB     138      POPC     H11S     HAL2     0.900000E-01   1.00800           0
     18225 MEMB     138      POPC     C212     CTL2    -0.180000       12.0110           0
     18226 MEMB     138      POPC     H12R     HAL2     0.900000E-01   1.00800           0
     18227 MEMB     138      POPC     H12S     HAL2     0.900000E-01   1.00800           0
     18228 MEMB     138      POPC     C213     CTL2    -0.180000       12.0110           0
     18229 MEMB     138      POPC     H13R     HAL2     0.900000E-01   1.00800           0
     18230 MEMB     138      POPC     H13S     HAL2     0.900000E-01   1.00800           0
     18231 MEMB     138      POPC     C214     CTL2    -0.180000       12.0110           0
     18232 MEMB     138      POPC     H14R     HAL2     0.900000E-01   1.00800           0
     18233 MEMB     138      POPC     H14S     HAL2     0.900000E-01   1.00800           0
     18234 MEMB     138      POPC     C215     CTL2    -0.180000       12.0110           0
     18235 MEMB     138      POPC     H15R     HAL2     0.900000E-01   1.00800           0
     18236 MEMB     138      POPC     H15S     HAL2     0.900000E-01   1.00800           0
     18237 MEMB     138      POPC     C216     CTL2    -0.180000       12.0110           0
     18238 MEMB     138      POPC     H16R     HAL2     0.900000E-01   1.00800           0
     18239 MEMB     138      POPC     H16S     HAL2     0.900000E-01   1.00800           0
     18240 MEMB     138      POPC     C217     CTL2    -0.180000       12.0110           0
     18241 MEMB     138      POPC     H17R     HAL2     0.900000E-01   1.00800           0
     18242 MEMB     138      POPC     H17S     HAL2     0.900000E-01   1.00800           0
     18243 MEMB     138      POPC     C218     CTL3    -0.270000       12.0110           0
     18244 MEMB     138      POPC     H18R     HAL3     0.900000E-01   1.00800           0
     18245 MEMB     138      POPC     H18S     HAL3     0.900000E-01   1.00800           0
     18246 MEMB     138      POPC     H18T     HAL3     0.900000E-01   1.00800           0
     18247 MEMB     138      POPC     C33      CTL2    -0.180000       12.0110           0
     18248 MEMB     138      POPC     H3X      HAL2     0.900000E-01   1.00800           0
     18249 MEMB     138      POPC     H3Y      HAL2     0.900000E-01   1.00800           0
     18250 MEMB     138      POPC     C34      CTL2    -0.180000       12.0110           0
     18251 MEMB     138      POPC     H4X      HAL2     0.900000E-01   1.00800           0
     18252 MEMB     138      POPC     H4Y      HAL2     0.900000E-01   1.00800           0
     18253 MEMB     138      POPC     C35      CTL2    -0.180000       12.0110           0
     18254 MEMB     138      POPC     H5X      HAL2     0.900000E-01   1.00800           0
     18255 MEMB     138      POPC     H5Y      HAL2     0.900000E-01   1.00800           0
     18256 MEMB     138      POPC     C36      CTL2    -0.180000       12.0110           0
     18257 MEMB     138      POPC     H6X      HAL2     0.900000E-01   1.00800           0
     18258 MEMB     138      POPC     H6Y      HAL2     0.900000E-01   1.00800           0
     18259 MEMB     138      POPC     C37      CTL2    -0.180000       12.0110           0
     18260 MEMB     138      POPC     H7X      HAL2     0.900000E-01   1.00800           0
     18261 MEMB     138      POPC     H7Y      HAL2     0.900000E-01   1.00800           0
     18262 MEMB     138      POPC     C38      CTL2    -0.180000       12.0110           0
     18263 MEMB     138      POPC     H8X      HAL2     0.900000E-01   1.00800           0
     18264 MEMB     138      POPC     H8Y      HAL2     0.900000E-01   1.00800           0
     18265 MEMB     138      POPC     C39      CTL2    -0.180000       12.0110           0
     18266 MEMB     138      POPC     H9X      HAL2     0.900000E-01   1.00800           0
     18267 MEMB     138      POPC     H9Y      HAL2     0.900000E-01   1.00800           0
     18268 MEMB     138      POPC     C310     CTL2    -0.180000       12.0110           0
     18269 MEMB     138      POPC     H10X     HAL2     0.900000E-01   1.00800           0
     18270 MEMB     138      POPC     H10Y     HAL2     0.900000E-01   1.00800           0
     18271 MEMB     138      POPC     C311     CTL2    -0.180000       12.0110           0
     18272 MEMB     138      POPC     H11X     HAL2     0.900000E-01   1.00800           0
     18273 MEMB     138      POPC     H11Y     HAL2     0.900000E-01   1.00800           0
     18274 MEMB     138      POPC     C312     CTL2    -0.180000       12.0110           0
     18275 MEMB     138      POPC     H12X     HAL2     0.900000E-01   1.00800           0
     18276 MEMB     138      POPC     H12Y     HAL2     0.900000E-01   1.00800           0
     18277 MEMB     138      POPC     C313     CTL2    -0.180000       12.0110           0
     18278 MEMB     138      POPC     H13X     HAL2     0.900000E-01   1.00800           0
     18279 MEMB     138      POPC     H13Y     HAL2     0.900000E-01   1.00800           0
     18280 MEMB     138      POPC     C314     CTL2    -0.180000       12.0110           0
     18281 MEMB     138      POPC     H14X     HAL2     0.900000E-01   1.00800           0
     18282 MEMB     138      POPC     H14Y     HAL2     0.900000E-01   1.00800           0
     18283 MEMB     138      POPC     C315     CTL2    -0.180000       12.0110           0
     18284 MEMB     138      POPC     H15X     HAL2     0.900000E-01   1.00800           0
     18285 MEMB     138      POPC     H15Y     HAL2     0.900000E-01   1.00800           0
     18286 MEMB     138      POPC     C316     CTL3    -0.270000       12.0110           0
     18287 MEMB     138      POPC     H16X     HAL3     0.900000E-01   1.00800           0
     18288 MEMB     138      POPC     H16Y     HAL3     0.900000E-01   1.00800           0
     18289 MEMB     138      POPC     H16Z     HAL3     0.900000E-01   1.00800           0
     18290 MEMB     139      POPS     N        NH3L    -0.300000       14.0070           0
     18291 MEMB     139      POPS     HN1      HCL      0.330000       1.00800           0
     18292 MEMB     139      POPS     HN2      HCL      0.330000       1.00800           0
     18293 MEMB     139      POPS     HN3      HCL      0.330000       1.00800           0
     18294 MEMB     139      POPS     C12      CTL1     0.210000       12.0110           0
     18295 MEMB     139      POPS     H12A     HBL      0.100000       1.00800           0
     18296 MEMB     139      POPS     C13      CCL      0.340000       12.0110           0
     18297 MEMB     139      POPS     O13A     OCL     -0.670000       15.9994           0
     18298 MEMB     139      POPS     O13B     OCL     -0.670000       15.9994           0
     18299 MEMB     139      POPS     C11      CTL2    -0.800000E-01   12.0110           0
     18300 MEMB     139      POPS     H11A     HAL2     0.900000E-01   1.00800           0
     18301 MEMB     139      POPS     H11B     HAL2     0.900000E-01   1.00800           0
     18302 MEMB     139      POPS     P        PL        1.50000       30.9740           0
     18303 MEMB     139      POPS     O13      O2L     -0.780000       15.9994           0
     18304 MEMB     139      POPS     O14      O2L     -0.780000       15.9994           0
     18305 MEMB     139      POPS     O12      OSLP    -0.570000       15.9994           0
     18306 MEMB     139      POPS     O11      OSLP    -0.570000       15.9994           0
     18307 MEMB     139      POPS     C1       CTL2    -0.800000E-01   12.0110           0
     18308 MEMB     139      POPS     HA       HAL2     0.900000E-01   1.00800           0
     18309 MEMB     139      POPS     HB       HAL2     0.900000E-01   1.00800           0
     18310 MEMB     139      POPS     C2       CTL1     0.170000       12.0110           0
     18311 MEMB     139      POPS     HS       HAL1     0.900000E-01   1.00800           0
     18312 MEMB     139      POPS     O21      OSL     -0.490000       15.9994           0
     18313 MEMB     139      POPS     C21      CL       0.900000       12.0110           0
     18314 MEMB     139      POPS     O22      OBL     -0.630000       15.9994           0
     18315 MEMB     139      POPS     C22      CTL2    -0.220000       12.0110           0
     18316 MEMB     139      POPS     H2R      HAL2     0.900000E-01   1.00800           0
     18317 MEMB     139      POPS     H2S      HAL2     0.900000E-01   1.00800           0
     18318 MEMB     139      POPS     C3       CTL2     0.800000E-01   12.0110           0
     18319 MEMB     139      POPS     HX       HAL2     0.900000E-01   1.00800           0
     18320 MEMB     139      POPS     HY       HAL2     0.900000E-01   1.00800           0
     18321 MEMB     139      POPS     O31      OSL     -0.490000       15.9994           0
     18322 MEMB     139      POPS     C31      CL       0.900000       12.0110           0
     18323 MEMB     139      POPS     O32      OBL     -0.630000       15.9994           0
     18324 MEMB     139      POPS     C32      CTL2    -0.220000       12.0110           0
     18325 MEMB     139      POPS     H2X      HAL2     0.900000E-01   1.00800           0
     18326 MEMB     139      POPS     H2Y      HAL2     0.900000E-01   1.00800           0
     18327 MEMB     139      POPS     C23      CTL2    -0.180000       12.0110           0
     18328 MEMB     139      POPS     H3R      HAL2     0.900000E-01   1.00800           0
     18329 MEMB     139      POPS     H3S      HAL2     0.900000E-01   1.00800           0
     18330 MEMB     139      POPS     C24      CTL2    -0.180000       12.0110           0
     18331 MEMB     139      POPS     H4R      HAL2     0.900000E-01   1.00800           0
     18332 MEMB     139      POPS     H4S      HAL2     0.900000E-01   1.00800           0
     18333 MEMB     139      POPS     C25      CTL2    -0.180000       12.0110           0
     18334 MEMB     139      POPS     H5R      HAL2     0.900000E-01   1.00800           0
     18335 MEMB     139      POPS     H5S      HAL2     0.900000E-01   1.00800           0
     18336 MEMB     139      POPS     C26      CTL2    -0.180000       12.0110           0
     18337 MEMB     139      POPS     H6R      HAL2     0.900000E-01   1.00800           0
     18338 MEMB     139      POPS     H6S      HAL2     0.900000E-01   1.00800           0
     18339 MEMB     139      POPS     C27      CTL2    -0.180000       12.0110           0
     18340 MEMB     139      POPS     H7R      HAL2     0.900000E-01   1.00800           0
     18341 MEMB     139      POPS     H7S      HAL2     0.900000E-01   1.00800           0
     18342 MEMB     139      POPS     C28      CTL2    -0.180000       12.0110           0
     18343 MEMB     139      POPS     H8R      HAL2     0.900000E-01   1.00800           0
     18344 MEMB     139      POPS     H8S      HAL2     0.900000E-01   1.00800           0
     18345 MEMB     139      POPS     C29      CEL1    -0.150000       12.0110           0
     18346 MEMB     139      POPS     H91      HEL1     0.150000       1.00800           0
     18347 MEMB     139      POPS     C210     CEL1    -0.150000       12.0110           0
     18348 MEMB     139      POPS     H101     HEL1     0.150000       1.00800           0
     18349 MEMB     139      POPS     C211     CTL2    -0.180000       12.0110           0
     18350 MEMB     139      POPS     H11R     HAL2     0.900000E-01   1.00800           0
     18351 MEMB     139      POPS     H11S     HAL2     0.900000E-01   1.00800           0
     18352 MEMB     139      POPS     C212     CTL2    -0.180000       12.0110           0
     18353 MEMB     139      POPS     H12R     HAL2     0.900000E-01   1.00800           0
     18354 MEMB     139      POPS     H12S     HAL2     0.900000E-01   1.00800           0
     18355 MEMB     139      POPS     C213     CTL2    -0.180000       12.0110           0
     18356 MEMB     139      POPS     H13R     HAL2     0.900000E-01   1.00800           0
     18357 MEMB     139      POPS     H13S     HAL2     0.900000E-01   1.00800           0
     18358 MEMB     139      POPS     C214     CTL2    -0.180000       12.0110           0
     18359 MEMB     139      POPS     H14R     HAL2     0.900000E-01   1.00800           0
     18360 MEMB     139      POPS     H14S     HAL2     0.900000E-01   1.00800           0
     18361 MEMB     139      POPS     C215     CTL2    -0.180000       12.0110           0
     18362 MEMB     139      POPS     H15R     HAL2     0.900000E-01   1.00800           0
     18363 MEMB     139      POPS     H15S     HAL2     0.900000E-01   1.00800           0
     18364 MEMB     139      POPS     C216     CTL2    -0.180000       12.0110           0
     18365 MEMB     139      POPS     H16R     HAL2     0.900000E-01   1.00800           0
     18366 MEMB     139      POPS     H16S     HAL2     0.900000E-01   1.00800           0
     18367 MEMB     139      POPS     C217     CTL2    -0.180000       12.0110           0
     18368 MEMB     139      POPS     H17R     HAL2     0.900000E-01   1.00800           0
     18369 MEMB     139      POPS     H17S     HAL2     0.900000E-01   1.00800           0
     18370 MEMB     139      POPS     C218     CTL3    -0.270000       12.0110           0
     18371 MEMB     139      POPS     H18R     HAL3     0.900000E-01   1.00800           0
     18372 MEMB     139      POPS     H18S     HAL3     0.900000E-01   1.00800           0
     18373 MEMB     139      POPS     H18T     HAL3     0.900000E-01   1.00800           0
     18374 MEMB     139      POPS     C33      CTL2    -0.180000       12.0110           0
     18375 MEMB     139      POPS     H3X      HAL2     0.900000E-01   1.00800           0
     18376 MEMB     139      POPS     H3Y      HAL2     0.900000E-01   1.00800           0
     18377 MEMB     139      POPS     C34      CTL2    -0.180000       12.0110           0
     18378 MEMB     139      POPS     H4X      HAL2     0.900000E-01   1.00800           0
     18379 MEMB     139      POPS     H4Y      HAL2     0.900000E-01   1.00800           0
     18380 MEMB     139      POPS     C35      CTL2    -0.180000       12.0110           0
     18381 MEMB     139      POPS     H5X      HAL2     0.900000E-01   1.00800           0
     18382 MEMB     139      POPS     H5Y      HAL2     0.900000E-01   1.00800           0
     18383 MEMB     139      POPS     C36      CTL2    -0.180000       12.0110           0
     18384 MEMB     139      POPS     H6X      HAL2     0.900000E-01   1.00800           0
     18385 MEMB     139      POPS     H6Y      HAL2     0.900000E-01   1.00800           0
     18386 MEMB     139      POPS     C37      CTL2    -0.180000       12.0110           0
     18387 MEMB     139      POPS     H7X      HAL2     0.900000E-01   1.00800           0
     18388 MEMB     139      POPS     H7Y      HAL2     0.900000E-01   1.00800           0
     18389 MEMB     139      POPS     C38      CTL2    -0.180000       12.0110           0
     18390 MEMB     139      POPS     H8X      HAL2     0.900000E-01   1.00800           0
     18391 MEMB     139      POPS     H8Y      HAL2     0.900000E-01   1.00800           0
     18392 MEMB     139      POPS     C39      CTL2    -0.180000       12.0110           0
     18393 MEMB     139      POPS     H9X      HAL2     0.900000E-01   1.00800           0
     18394 MEMB     139      POPS     H9Y      HAL2     0.900000E-01   1.00800           0
     18395 MEMB     139      POPS     C310     CTL2    -0.180000       12.0110           0
     18396 MEMB     139      POPS     H10X     HAL2     0.900000E-01   1.00800           0
     18397 MEMB     139      POPS     H10Y     HAL2     0.900000E-01   1.00800           0
     18398 MEMB     139      POPS     C311     CTL2    -0.180000       12.0110           0
     18399 MEMB     139      POPS     H11X     HAL2     0.900000E-01   1.00800           0
     18400 MEMB     139      POPS     H11Y     HAL2     0.900000E-01   1.00800           0
     18401 MEMB     139      POPS     C312     CTL2    -0.180000       12.0110           0
     18402 MEMB     139      POPS     H12X     HAL2     0.900000E-01   1.00800           0
     18403 MEMB     139      POPS     H12Y     HAL2     0.900000E-01   1.00800           0
     18404 MEMB     139      POPS     C313     CTL2    -0.180000       12.0110           0
     18405 MEMB     139      POPS     H13X     HAL2     0.900000E-01   1.00800           0
     18406 MEMB     139      POPS     H13Y     HAL2     0.900000E-01   1.00800           0
     18407 MEMB     139      POPS     C314     CTL2    -0.180000       12.0110           0
     18408 MEMB     139      POPS     H14X     HAL2     0.900000E-01   1.00800           0
     18409 MEMB     139      POPS     H14Y     HAL2     0.900000E-01   1.00800           0
     18410 MEMB     139      POPS     C315     CTL2    -0.180000       12.0110           0
     18411 MEMB     139      POPS     H15X     HAL2     0.900000E-01   1.00800           0
     18412 MEMB     139      POPS     H15Y     HAL2     0.900000E-01   1.00800           0
     18413 MEMB     139      POPS     C316     CTL3    -0.270000       12.0110           0
     18414 MEMB     139      POPS     H16X     HAL3     0.900000E-01   1.00800           0
     18415 MEMB     139      POPS     H16Y     HAL3     0.900000E-01   1.00800           0
     18416 MEMB     139      POPS     H16Z     HAL3     0.900000E-01   1.00800           0
     18417 MEMB     140      POPS     N        NH3L    -0.300000       14.0070           0
     18418 MEMB     140      POPS     HN1      HCL      0.330000       1.00800           0
     18419 MEMB     140      POPS     HN2      HCL      0.330000       1.00800           0
     18420 MEMB     140      POPS     HN3      HCL      0.330000       1.00800           0
     18421 MEMB     140      POPS     C12      CTL1     0.210000       12.0110           0
     18422 MEMB     140      POPS     H12A     HBL      0.100000       1.00800           0
     18423 MEMB     140      POPS     C13      CCL      0.340000       12.0110           0
     18424 MEMB     140      POPS     O13A     OCL     -0.670000       15.9994           0
     18425 MEMB     140      POPS     O13B     OCL     -0.670000       15.9994           0
     18426 MEMB     140      POPS     C11      CTL2    -0.800000E-01   12.0110           0
     18427 MEMB     140      POPS     H11A     HAL2     0.900000E-01   1.00800           0
     18428 MEMB     140      POPS     H11B     HAL2     0.900000E-01   1.00800           0
     18429 MEMB     140      POPS     P        PL        1.50000       30.9740           0
     18430 MEMB     140      POPS     O13      O2L     -0.780000       15.9994           0
     18431 MEMB     140      POPS     O14      O2L     -0.780000       15.9994           0
     18432 MEMB     140      POPS     O12      OSLP    -0.570000       15.9994           0
     18433 MEMB     140      POPS     O11      OSLP    -0.570000       15.9994           0
     18434 MEMB     140      POPS     C1       CTL2    -0.800000E-01   12.0110           0
     18435 MEMB     140      POPS     HA       HAL2     0.900000E-01   1.00800           0
     18436 MEMB     140      POPS     HB       HAL2     0.900000E-01   1.00800           0
     18437 MEMB     140      POPS     C2       CTL1     0.170000       12.0110           0
     18438 MEMB     140      POPS     HS       HAL1     0.900000E-01   1.00800           0
     18439 MEMB     140      POPS     O21      OSL     -0.490000       15.9994           0
     18440 MEMB     140      POPS     C21      CL       0.900000       12.0110           0
     18441 MEMB     140      POPS     O22      OBL     -0.630000       15.9994           0
     18442 MEMB     140      POPS     C22      CTL2    -0.220000       12.0110           0
     18443 MEMB     140      POPS     H2R      HAL2     0.900000E-01   1.00800           0
     18444 MEMB     140      POPS     H2S      HAL2     0.900000E-01   1.00800           0
     18445 MEMB     140      POPS     C3       CTL2     0.800000E-01   12.0110           0
     18446 MEMB     140      POPS     HX       HAL2     0.900000E-01   1.00800           0
     18447 MEMB     140      POPS     HY       HAL2     0.900000E-01   1.00800           0
     18448 MEMB     140      POPS     O31      OSL     -0.490000       15.9994           0
     18449 MEMB     140      POPS     C31      CL       0.900000       12.0110           0
     18450 MEMB     140      POPS     O32      OBL     -0.630000       15.9994           0
     18451 MEMB     140      POPS     C32      CTL2    -0.220000       12.0110           0
     18452 MEMB     140      POPS     H2X      HAL2     0.900000E-01   1.00800           0
     18453 MEMB     140      POPS     H2Y      HAL2     0.900000E-01   1.00800           0
     18454 MEMB     140      POPS     C23      CTL2    -0.180000       12.0110           0
     18455 MEMB     140      POPS     H3R      HAL2     0.900000E-01   1.00800           0
     18456 MEMB     140      POPS     H3S      HAL2     0.900000E-01   1.00800           0
     18457 MEMB     140      POPS     C24      CTL2    -0.180000       12.0110           0
     18458 MEMB     140      POPS     H4R      HAL2     0.900000E-01   1.00800           0
     18459 MEMB     140      POPS     H4S      HAL2     0.900000E-01   1.00800           0
     18460 MEMB     140      POPS     C25      CTL2    -0.180000       12.0110           0
     18461 MEMB     140      POPS     H5R      HAL2     0.900000E-01   1.00800           0
     18462 MEMB     140      POPS     H5S      HAL2     0.900000E-01   1.00800           0
     18463 MEMB     140      POPS     C26      CTL2    -0.180000       12.0110           0
     18464 MEMB     140      POPS     H6R      HAL2     0.900000E-01   1.00800           0
     18465 MEMB     140      POPS     H6S      HAL2     0.900000E-01   1.00800           0
     18466 MEMB     140      POPS     C27      CTL2    -0.180000       12.0110           0
     18467 MEMB     140      POPS     H7R      HAL2     0.900000E-01   1.00800           0
     18468 MEMB     140      POPS     H7S      HAL2     0.900000E-01   1.00800           0
     18469 MEMB     140      POPS     C28      CTL2    -0.180000       12.0110           0
     18470 MEMB     140      POPS     H8R      HAL2     0.900000E-01   1.00800           0
     18471 MEMB     140      POPS     H8S      HAL2     0.900000E-01   1.00800           0
     18472 MEMB     140      POPS     C29      CEL1    -0.150000       12.0110           0
     18473 MEMB     140      POPS     H91      HEL1     0.150000       1.00800           0
     18474 MEMB     140      POPS     C210     CEL1    -0.150000       12.0110           0
     18475 MEMB     140      POPS     H101     HEL1     0.150000       1.00800           0
     18476 MEMB     140      POPS     C211     CTL2    -0.180000       12.0110           0
     18477 MEMB     140      POPS     H11R     HAL2     0.900000E-01   1.00800           0
     18478 MEMB     140      POPS     H11S     HAL2     0.900000E-01   1.00800           0
     18479 MEMB     140      POPS     C212     CTL2    -0.180000       12.0110           0
     18480 MEMB     140      POPS     H12R     HAL2     0.900000E-01   1.00800           0
     18481 MEMB     140      POPS     H12S     HAL2     0.900000E-01   1.00800           0
     18482 MEMB     140      POPS     C213     CTL2    -0.180000       12.0110           0
     18483 MEMB     140      POPS     H13R     HAL2     0.900000E-01   1.00800           0
     18484 MEMB     140      POPS     H13S     HAL2     0.900000E-01   1.00800           0
     18485 MEMB     140      POPS     C214     CTL2    -0.180000       12.0110           0
     18486 MEMB     140      POPS     H14R     HAL2     0.900000E-01   1.00800           0
     18487 MEMB     140      POPS     H14S     HAL2     0.900000E-01   1.00800           0
     18488 MEMB     140      POPS     C215     CTL2    -0.180000       12.0110           0
     18489 MEMB     140      POPS     H15R     HAL2     0.900000E-01   1.00800           0
     18490 MEMB     140      POPS     H15S     HAL2     0.900000E-01   1.00800           0
     18491 MEMB     140      POPS     C216     CTL2    -0.180000       12.0110           0
     18492 MEMB     140      POPS     H16R     HAL2     0.900000E-01   1.00800           0
     18493 MEMB     140      POPS     H16S     HAL2     0.900000E-01   1.00800           0
     18494 MEMB     140      POPS     C217     CTL2    -0.180000       12.0110           0
     18495 MEMB     140      POPS     H17R     HAL2     0.900000E-01   1.00800           0
     18496 MEMB     140      POPS     H17S     HAL2     0.900000E-01   1.00800           0
     18497 MEMB     140      POPS     C218     CTL3    -0.270000       12.0110           0
     18498 MEMB     140      POPS     H18R     HAL3     0.900000E-01   1.00800           0
     18499 MEMB     140      POPS     H18S     HAL3     0.900000E-01   1.00800           0
     18500 MEMB     140      POPS     H18T     HAL3     0.900000E-01   1.00800           0
     18501 MEMB     140      POPS     C33      CTL2    -0.180000       12.0110           0
     18502 MEMB     140      POPS     H3X      HAL2     0.900000E-01   1.00800           0
     18503 MEMB     140      POPS     H3Y      HAL2     0.900000E-01   1.00800           0
     18504 MEMB     140      POPS     C34      CTL2    -0.180000       12.0110           0
     18505 MEMB     140      POPS     H4X      HAL2     0.900000E-01   1.00800           0
     18506 MEMB     140      POPS     H4Y      HAL2     0.900000E-01   1.00800           0
     18507 MEMB     140      POPS     C35      CTL2    -0.180000       12.0110           0
     18508 MEMB     140      POPS     H5X      HAL2     0.900000E-01   1.00800           0
     18509 MEMB     140      POPS     H5Y      HAL2     0.900000E-01   1.00800           0
     18510 MEMB     140      POPS     C36      CTL2    -0.180000       12.0110           0
     18511 MEMB     140      POPS     H6X      HAL2     0.900000E-01   1.00800           0
     18512 MEMB     140      POPS     H6Y      HAL2     0.900000E-01   1.00800           0
     18513 MEMB     140      POPS     C37      CTL2    -0.180000       12.0110           0
     18514 MEMB     140      POPS     H7X      HAL2     0.900000E-01   1.00800           0
     18515 MEMB     140      POPS     H7Y      HAL2     0.900000E-01   1.00800           0
     18516 MEMB     140      POPS     C38      CTL2    -0.180000       12.0110           0
     18517 MEMB     140      POPS     H8X      HAL2     0.900000E-01   1.00800           0
     18518 MEMB     140      POPS     H8Y      HAL2     0.900000E-01   1.00800           0
     18519 MEMB     140      POPS     C39      CTL2    -0.180000       12.0110           0
     18520 MEMB     140      POPS     H9X      HAL2     0.900000E-01   1.00800           0
     18521 MEMB     140      POPS     H9Y      HAL2     0.900000E-01   1.00800           0
     18522 MEMB     140      POPS     C310     CTL2    -0.180000       12.0110           0
     18523 MEMB     140      POPS     H10X     HAL2     0.900000E-01   1.00800           0
     18524 MEMB     140      POPS     H10Y     HAL2     0.900000E-01   1.00800           0
     18525 MEMB     140      POPS     C311     CTL2    -0.180000       12.0110           0
     18526 MEMB     140      POPS     H11X     HAL2     0.900000E-01   1.00800           0
     18527 MEMB     140      POPS     H11Y     HAL2     0.900000E-01   1.00800           0
     18528 MEMB     140      POPS     C312     CTL2    -0.180000       12.0110           0
     18529 MEMB     140      POPS     H12X     HAL2     0.900000E-01   1.00800           0
     18530 MEMB     140      POPS     H12Y     HAL2     0.900000E-01   1.00800           0
     18531 MEMB     140      POPS     C313     CTL2    -0.180000       12.0110           0
     18532 MEMB     140      POPS     H13X     HAL2     0.900000E-01   1.00800           0
     18533 MEMB     140      POPS     H13Y     HAL2     0.900000E-01   1.00800           0
     18534 MEMB     140      POPS     C314     CTL2    -0.180000       12.0110           0
     18535 MEMB     140      POPS     H14X     HAL2     0.900000E-01   1.00800           0
     18536 MEMB     140      POPS     H14Y     HAL2     0.900000E-01   1.00800           0
     18537 MEMB     140      POPS     C315     CTL2    -0.180000       12.0110           0
     18538 MEMB     140      POPS     H15X     HAL2     0.900000E-01   1.00800           0
     18539 MEMB     140      POPS     H15Y     HAL2     0.900000E-01   1.00800           0
     18540 MEMB     140      POPS     C316     CTL3    -0.270000       12.0110           0
     18541 MEMB     140      POPS     H16X     HAL3     0.900000E-01   1.00800           0
     18542 MEMB     140      POPS     H16Y     HAL3     0.900000E-01   1.00800           0
     18543 MEMB     140      POPS     H16Z     HAL3     0.900000E-01   1.00800           0
     18544 MEMB     141      POPS     N        NH3L    -0.300000       14.0070           0
     18545 MEMB     141      POPS     HN1      HCL      0.330000       1.00800           0
     18546 MEMB     141      POPS     HN2      HCL      0.330000       1.00800           0
     18547 MEMB     141      POPS     HN3      HCL      0.330000       1.00800           0
     18548 MEMB     141      POPS     C12      CTL1     0.210000       12.0110           0
     18549 MEMB     141      POPS     H12A     HBL      0.100000       1.00800           0
     18550 MEMB     141      POPS     C13      CCL      0.340000       12.0110           0
     18551 MEMB     141      POPS     O13A     OCL     -0.670000       15.9994           0
     18552 MEMB     141      POPS     O13B     OCL     -0.670000       15.9994           0
     18553 MEMB     141      POPS     C11      CTL2    -0.800000E-01   12.0110           0
     18554 MEMB     141      POPS     H11A     HAL2     0.900000E-01   1.00800           0
     18555 MEMB     141      POPS     H11B     HAL2     0.900000E-01   1.00800           0
     18556 MEMB     141      POPS     P        PL        1.50000       30.9740           0
     18557 MEMB     141      POPS     O13      O2L     -0.780000       15.9994           0
     18558 MEMB     141      POPS     O14      O2L     -0.780000       15.9994           0
     18559 MEMB     141      POPS     O12      OSLP    -0.570000       15.9994           0
     18560 MEMB     141      POPS     O11      OSLP    -0.570000       15.9994           0
     18561 MEMB     141      POPS     C1       CTL2    -0.800000E-01   12.0110           0
     18562 MEMB     141      POPS     HA       HAL2     0.900000E-01   1.00800           0
     18563 MEMB     141      POPS     HB       HAL2     0.900000E-01   1.00800           0
     18564 MEMB     141      POPS     C2       CTL1     0.170000       12.0110           0
     18565 MEMB     141      POPS     HS       HAL1     0.900000E-01   1.00800           0
     18566 MEMB     141      POPS     O21      OSL     -0.490000       15.9994           0
     18567 MEMB     141      POPS     C21      CL       0.900000       12.0110           0
     18568 MEMB     141      POPS     O22      OBL     -0.630000       15.9994           0
     18569 MEMB     141      POPS     C22      CTL2    -0.220000       12.0110           0
     18570 MEMB     141      POPS     H2R      HAL2     0.900000E-01   1.00800           0
     18571 MEMB     141      POPS     H2S      HAL2     0.900000E-01   1.00800           0
     18572 MEMB     141      POPS     C3       CTL2     0.800000E-01   12.0110           0
     18573 MEMB     141      POPS     HX       HAL2     0.900000E-01   1.00800           0
     18574 MEMB     141      POPS     HY       HAL2     0.900000E-01   1.00800           0
     18575 MEMB     141      POPS     O31      OSL     -0.490000       15.9994           0
     18576 MEMB     141      POPS     C31      CL       0.900000       12.0110           0
     18577 MEMB     141      POPS     O32      OBL     -0.630000       15.9994           0
     18578 MEMB     141      POPS     C32      CTL2    -0.220000       12.0110           0
     18579 MEMB     141      POPS     H2X      HAL2     0.900000E-01   1.00800           0
     18580 MEMB     141      POPS     H2Y      HAL2     0.900000E-01   1.00800           0
     18581 MEMB     141      POPS     C23      CTL2    -0.180000       12.0110           0
     18582 MEMB     141      POPS     H3R      HAL2     0.900000E-01   1.00800           0
     18583 MEMB     141      POPS     H3S      HAL2     0.900000E-01   1.00800           0
     18584 MEMB     141      POPS     C24      CTL2    -0.180000       12.0110           0
     18585 MEMB     141      POPS     H4R      HAL2     0.900000E-01   1.00800           0
     18586 MEMB     141      POPS     H4S      HAL2     0.900000E-01   1.00800           0
     18587 MEMB     141      POPS     C25      CTL2    -0.180000       12.0110           0
     18588 MEMB     141      POPS     H5R      HAL2     0.900000E-01   1.00800           0
     18589 MEMB     141      POPS     H5S      HAL2     0.900000E-01   1.00800           0
     18590 MEMB     141      POPS     C26      CTL2    -0.180000       12.0110           0
     18591 MEMB     141      POPS     H6R      HAL2     0.900000E-01   1.00800           0
     18592 MEMB     141      POPS     H6S      HAL2     0.900000E-01   1.00800           0
     18593 MEMB     141      POPS     C27      CTL2    -0.180000       12.0110           0
     18594 MEMB     141      POPS     H7R      HAL2     0.900000E-01   1.00800           0
     18595 MEMB     141      POPS     H7S      HAL2     0.900000E-01   1.00800           0
     18596 MEMB     141      POPS     C28      CTL2    -0.180000       12.0110           0
     18597 MEMB     141      POPS     H8R      HAL2     0.900000E-01   1.00800           0
     18598 MEMB     141      POPS     H8S      HAL2     0.900000E-01   1.00800           0
     18599 MEMB     141      POPS     C29      CEL1    -0.150000       12.0110           0
     18600 MEMB     141      POPS     H91      HEL1     0.150000       1.00800           0
     18601 MEMB     141      POPS     C210     CEL1    -0.150000       12.0110           0
     18602 MEMB     141      POPS     H101     HEL1     0.150000       1.00800           0
     18603 MEMB     141      POPS     C211     CTL2    -0.180000       12.0110           0
     18604 MEMB     141      POPS     H11R     HAL2     0.900000E-01   1.00800           0
     18605 MEMB     141      POPS     H11S     HAL2     0.900000E-01   1.00800           0
     18606 MEMB     141      POPS     C212     CTL2    -0.180000       12.0110           0
     18607 MEMB     141      POPS     H12R     HAL2     0.900000E-01   1.00800           0
     18608 MEMB     141      POPS     H12S     HAL2     0.900000E-01   1.00800           0
     18609 MEMB     141      POPS     C213     CTL2    -0.180000       12.0110           0
     18610 MEMB     141      POPS     H13R     HAL2     0.900000E-01   1.00800           0
     18611 MEMB     141      POPS     H13S     HAL2     0.900000E-01   1.00800           0
     18612 MEMB     141      POPS     C214     CTL2    -0.180000       12.0110           0
     18613 MEMB     141      POPS     H14R     HAL2     0.900000E-01   1.00800           0
     18614 MEMB     141      POPS     H14S     HAL2     0.900000E-01   1.00800           0
     18615 MEMB     141      POPS     C215     CTL2    -0.180000       12.0110           0
     18616 MEMB     141      POPS     H15R     HAL2     0.900000E-01   1.00800           0
     18617 MEMB     141      POPS     H15S     HAL2     0.900000E-01   1.00800           0
     18618 MEMB     141      POPS     C216     CTL2    -0.180000       12.0110           0
     18619 MEMB     141      POPS     H16R     HAL2     0.900000E-01   1.00800           0
     18620 MEMB     141      POPS     H16S     HAL2     0.900000E-01   1.00800           0
     18621 MEMB     141      POPS     C217     CTL2    -0.180000       12.0110           0
     18622 MEMB     141      POPS     H17R     HAL2     0.900000E-01   1.00800           0
     18623 MEMB     141      POPS     H17S     HAL2     0.900000E-01   1.00800           0
     18624 MEMB     141      POPS     C218     CTL3    -0.270000       12.0110           0
     18625 MEMB     141      POPS     H18R     HAL3     0.900000E-01   1.00800           0
     18626 MEMB     141      POPS     H18S     HAL3     0.900000E-01   1.00800           0
     18627 MEMB     141      POPS     H18T     HAL3     0.900000E-01   1.00800           0
     18628 MEMB     141      POPS     C33      CTL2    -0.180000       12.0110           0
     18629 MEMB     141      POPS     H3X      HAL2     0.900000E-01   1.00800           0
     18630 MEMB     141      POPS     H3Y      HAL2     0.900000E-01   1.00800           0
     18631 MEMB     141      POPS     C34      CTL2    -0.180000       12.0110           0
     18632 MEMB     141      POPS     H4X      HAL2     0.900000E-01   1.00800           0
     18633 MEMB     141      POPS     H4Y      HAL2     0.900000E-01   1.00800           0
     18634 MEMB     141      POPS     C35      CTL2    -0.180000       12.0110           0
     18635 MEMB     141      POPS     H5X      HAL2     0.900000E-01   1.00800           0
     18636 MEMB     141      POPS     H5Y      HAL2     0.900000E-01   1.00800           0
     18637 MEMB     141      POPS     C36      CTL2    -0.180000       12.0110           0
     18638 MEMB     141      POPS     H6X      HAL2     0.900000E-01   1.00800           0
     18639 MEMB     141      POPS     H6Y      HAL2     0.900000E-01   1.00800           0
     18640 MEMB     141      POPS     C37      CTL2    -0.180000       12.0110           0
     18641 MEMB     141      POPS     H7X      HAL2     0.900000E-01   1.00800           0
     18642 MEMB     141      POPS     H7Y      HAL2     0.900000E-01   1.00800           0
     18643 MEMB     141      POPS     C38      CTL2    -0.180000       12.0110           0
     18644 MEMB     141      POPS     H8X      HAL2     0.900000E-01   1.00800           0
     18645 MEMB     141      POPS     H8Y      HAL2     0.900000E-01   1.00800           0
     18646 MEMB     141      POPS     C39      CTL2    -0.180000       12.0110           0
     18647 MEMB     141      POPS     H9X      HAL2     0.900000E-01   1.00800           0
     18648 MEMB     141      POPS     H9Y      HAL2     0.900000E-01   1.00800           0
     18649 MEMB     141      POPS     C310     CTL2    -0.180000       12.0110           0
     18650 MEMB     141      POPS     H10X     HAL2     0.900000E-01   1.00800           0
     18651 MEMB     141      POPS     H10Y     HAL2     0.900000E-01   1.00800           0
     18652 MEMB     141      POPS     C311     CTL2    -0.180000       12.0110           0
     18653 MEMB     141      POPS     H11X     HAL2     0.900000E-01   1.00800           0
     18654 MEMB     141      POPS     H11Y     HAL2     0.900000E-01   1.00800           0
     18655 MEMB     141      POPS     C312     CTL2    -0.180000       12.0110           0
     18656 MEMB     141      POPS     H12X     HAL2     0.900000E-01   1.00800           0
     18657 MEMB     141      POPS     H12Y     HAL2     0.900000E-01   1.00800           0
     18658 MEMB     141      POPS     C313     CTL2    -0.180000       12.0110           0
     18659 MEMB     141      POPS     H13X     HAL2     0.900000E-01   1.00800           0
     18660 MEMB     141      POPS     H13Y     HAL2     0.900000E-01   1.00800           0
     18661 MEMB     141      POPS     C314     CTL2    -0.180000       12.0110           0
     18662 MEMB     141      POPS     H14X     HAL2     0.900000E-01   1.00800           0
     18663 MEMB     141      POPS     H14Y     HAL2     0.900000E-01   1.00800           0
     18664 MEMB     141      POPS     C315     CTL2    -0.180000       12.0110           0
     18665 MEMB     141      POPS     H15X     HAL2     0.900000E-01   1.00800           0
     18666 MEMB     141      POPS     H15Y     HAL2     0.900000E-01   1.00800           0
     18667 MEMB     141      POPS     C316     CTL3    -0.270000       12.0110           0
     18668 MEMB     141      POPS     H16X     HAL3     0.900000E-01   1.00800           0
     18669 MEMB     141      POPS     H16Y     HAL3     0.900000E-01   1.00800           0
     18670 MEMB     141      POPS     H16Z     HAL3     0.900000E-01   1.00800           0
     18671 MEMB     142      POPC     N        NTL     -0.600000       14.0070           0
     18672 MEMB     142      POPC     C12      CTL2    -0.100000       12.0110           0
     18673 MEMB     142      POPC     H12A     HL       0.250000       1.00800           0
     18674 MEMB     142      POPC     H12B     HL       0.250000       1.00800           0
     18675 MEMB     142      POPC     C13      CTL5    -0.350000       12.0110           0
     18676 MEMB     142      POPC     H13A     HL       0.250000       1.00800           0
     18677 MEMB     142      POPC     H13B     HL       0.250000       1.00800           0
     18678 MEMB     142      POPC     H13C     HL       0.250000       1.00800           0
     18679 MEMB     142      POPC     C14      CTL5    -0.350000       12.0110           0
     18680 MEMB     142      POPC     H14A     HL       0.250000       1.00800           0
     18681 MEMB     142      POPC     H14B     HL       0.250000       1.00800           0
     18682 MEMB     142      POPC     H14C     HL       0.250000       1.00800           0
     18683 MEMB     142      POPC     C15      CTL5    -0.350000       12.0110           0
     18684 MEMB     142      POPC     H15A     HL       0.250000       1.00800           0
     18685 MEMB     142      POPC     H15B     HL       0.250000       1.00800           0
     18686 MEMB     142      POPC     H15C     HL       0.250000       1.00800           0
     18687 MEMB     142      POPC     C11      CTL2    -0.800000E-01   12.0110           0
     18688 MEMB     142      POPC     H11A     HAL2     0.900000E-01   1.00800           0
     18689 MEMB     142      POPC     H11B     HAL2     0.900000E-01   1.00800           0
     18690 MEMB     142      POPC     P        PL        1.50000       30.9740           0
     18691 MEMB     142      POPC     O13      O2L     -0.780000       15.9994           0
     18692 MEMB     142      POPC     O14      O2L     -0.780000       15.9994           0
     18693 MEMB     142      POPC     O12      OSLP    -0.570000       15.9994           0
     18694 MEMB     142      POPC     O11      OSLP    -0.570000       15.9994           0
     18695 MEMB     142      POPC     C1       CTL2    -0.800000E-01   12.0110           0
     18696 MEMB     142      POPC     HA       HAL2     0.900000E-01   1.00800           0
     18697 MEMB     142      POPC     HB       HAL2     0.900000E-01   1.00800           0
     18698 MEMB     142      POPC     C2       CTL1     0.170000       12.0110           0
     18699 MEMB     142      POPC     HS       HAL1     0.900000E-01   1.00800           0
     18700 MEMB     142      POPC     O21      OSL     -0.490000       15.9994           0
     18701 MEMB     142      POPC     C21      CL       0.900000       12.0110           0
     18702 MEMB     142      POPC     O22      OBL     -0.630000       15.9994           0
     18703 MEMB     142      POPC     C22      CTL2    -0.220000       12.0110           0
     18704 MEMB     142      POPC     H2R      HAL2     0.900000E-01   1.00800           0
     18705 MEMB     142      POPC     H2S      HAL2     0.900000E-01   1.00800           0
     18706 MEMB     142      POPC     C3       CTL2     0.800000E-01   12.0110           0
     18707 MEMB     142      POPC     HX       HAL2     0.900000E-01   1.00800           0
     18708 MEMB     142      POPC     HY       HAL2     0.900000E-01   1.00800           0
     18709 MEMB     142      POPC     O31      OSL     -0.490000       15.9994           0
     18710 MEMB     142      POPC     C31      CL       0.900000       12.0110           0
     18711 MEMB     142      POPC     O32      OBL     -0.630000       15.9994           0
     18712 MEMB     142      POPC     C32      CTL2    -0.220000       12.0110           0
     18713 MEMB     142      POPC     H2X      HAL2     0.900000E-01   1.00800           0
     18714 MEMB     142      POPC     H2Y      HAL2     0.900000E-01   1.00800           0
     18715 MEMB     142      POPC     C23      CTL2    -0.180000       12.0110           0
     18716 MEMB     142      POPC     H3R      HAL2     0.900000E-01   1.00800           0
     18717 MEMB     142      POPC     H3S      HAL2     0.900000E-01   1.00800           0
     18718 MEMB     142      POPC     C24      CTL2    -0.180000       12.0110           0
     18719 MEMB     142      POPC     H4R      HAL2     0.900000E-01   1.00800           0
     18720 MEMB     142      POPC     H4S      HAL2     0.900000E-01   1.00800           0
     18721 MEMB     142      POPC     C25      CTL2    -0.180000       12.0110           0
     18722 MEMB     142      POPC     H5R      HAL2     0.900000E-01   1.00800           0
     18723 MEMB     142      POPC     H5S      HAL2     0.900000E-01   1.00800           0
     18724 MEMB     142      POPC     C26      CTL2    -0.180000       12.0110           0
     18725 MEMB     142      POPC     H6R      HAL2     0.900000E-01   1.00800           0
     18726 MEMB     142      POPC     H6S      HAL2     0.900000E-01   1.00800           0
     18727 MEMB     142      POPC     C27      CTL2    -0.180000       12.0110           0
     18728 MEMB     142      POPC     H7R      HAL2     0.900000E-01   1.00800           0
     18729 MEMB     142      POPC     H7S      HAL2     0.900000E-01   1.00800           0
     18730 MEMB     142      POPC     C28      CTL2    -0.180000       12.0110           0
     18731 MEMB     142      POPC     H8R      HAL2     0.900000E-01   1.00800           0
     18732 MEMB     142      POPC     H8S      HAL2     0.900000E-01   1.00800           0
     18733 MEMB     142      POPC     C29      CEL1    -0.150000       12.0110           0
     18734 MEMB     142      POPC     H91      HEL1     0.150000       1.00800           0
     18735 MEMB     142      POPC     C210     CEL1    -0.150000       12.0110           0
     18736 MEMB     142      POPC     H101     HEL1     0.150000       1.00800           0
     18737 MEMB     142      POPC     C211     CTL2    -0.180000       12.0110           0
     18738 MEMB     142      POPC     H11R     HAL2     0.900000E-01   1.00800           0
     18739 MEMB     142      POPC     H11S     HAL2     0.900000E-01   1.00800           0
     18740 MEMB     142      POPC     C212     CTL2    -0.180000       12.0110           0
     18741 MEMB     142      POPC     H12R     HAL2     0.900000E-01   1.00800           0
     18742 MEMB     142      POPC     H12S     HAL2     0.900000E-01   1.00800           0
     18743 MEMB     142      POPC     C213     CTL2    -0.180000       12.0110           0
     18744 MEMB     142      POPC     H13R     HAL2     0.900000E-01   1.00800           0
     18745 MEMB     142      POPC     H13S     HAL2     0.900000E-01   1.00800           0
     18746 MEMB     142      POPC     C214     CTL2    -0.180000       12.0110           0
     18747 MEMB     142      POPC     H14R     HAL2     0.900000E-01   1.00800           0
     18748 MEMB     142      POPC     H14S     HAL2     0.900000E-01   1.00800           0
     18749 MEMB     142      POPC     C215     CTL2    -0.180000       12.0110           0
     18750 MEMB     142      POPC     H15R     HAL2     0.900000E-01   1.00800           0
     18751 MEMB     142      POPC     H15S     HAL2     0.900000E-01   1.00800           0
     18752 MEMB     142      POPC     C216     CTL2    -0.180000       12.0110           0
     18753 MEMB     142      POPC     H16R     HAL2     0.900000E-01   1.00800           0
     18754 MEMB     142      POPC     H16S     HAL2     0.900000E-01   1.00800           0
     18755 MEMB     142      POPC     C217     CTL2    -0.180000       12.0110           0
     18756 MEMB     142      POPC     H17R     HAL2     0.900000E-01   1.00800           0
     18757 MEMB     142      POPC     H17S     HAL2     0.900000E-01   1.00800           0
     18758 MEMB     142      POPC     C218     CTL3    -0.270000       12.0110           0
     18759 MEMB     142      POPC     H18R     HAL3     0.900000E-01   1.00800           0
     18760 MEMB     142      POPC     H18S     HAL3     0.900000E-01   1.00800           0
     18761 MEMB     142      POPC     H18T     HAL3     0.900000E-01   1.00800           0
     18762 MEMB     142      POPC     C33      CTL2    -0.180000       12.0110           0
     18763 MEMB     142      POPC     H3X      HAL2     0.900000E-01   1.00800           0
     18764 MEMB     142      POPC     H3Y      HAL2     0.900000E-01   1.00800           0
     18765 MEMB     142      POPC     C34      CTL2    -0.180000       12.0110           0
     18766 MEMB     142      POPC     H4X      HAL2     0.900000E-01   1.00800           0
     18767 MEMB     142      POPC     H4Y      HAL2     0.900000E-01   1.00800           0
     18768 MEMB     142      POPC     C35      CTL2    -0.180000       12.0110           0
     18769 MEMB     142      POPC     H5X      HAL2     0.900000E-01   1.00800           0
     18770 MEMB     142      POPC     H5Y      HAL2     0.900000E-01   1.00800           0
     18771 MEMB     142      POPC     C36      CTL2    -0.180000       12.0110           0
     18772 MEMB     142      POPC     H6X      HAL2     0.900000E-01   1.00800           0
     18773 MEMB     142      POPC     H6Y      HAL2     0.900000E-01   1.00800           0
     18774 MEMB     142      POPC     C37      CTL2    -0.180000       12.0110           0
     18775 MEMB     142      POPC     H7X      HAL2     0.900000E-01   1.00800           0
     18776 MEMB     142      POPC     H7Y      HAL2     0.900000E-01   1.00800           0
     18777 MEMB     142      POPC     C38      CTL2    -0.180000       12.0110           0
     18778 MEMB     142      POPC     H8X      HAL2     0.900000E-01   1.00800           0
     18779 MEMB     142      POPC     H8Y      HAL2     0.900000E-01   1.00800           0
     18780 MEMB     142      POPC     C39      CTL2    -0.180000       12.0110           0
     18781 MEMB     142      POPC     H9X      HAL2     0.900000E-01   1.00800           0
     18782 MEMB     142      POPC     H9Y      HAL2     0.900000E-01   1.00800           0
     18783 MEMB     142      POPC     C310     CTL2    -0.180000       12.0110           0
     18784 MEMB     142      POPC     H10X     HAL2     0.900000E-01   1.00800           0
     18785 MEMB     142      POPC     H10Y     HAL2     0.900000E-01   1.00800           0
     18786 MEMB     142      POPC     C311     CTL2    -0.180000       12.0110           0
     18787 MEMB     142      POPC     H11X     HAL2     0.900000E-01   1.00800           0
     18788 MEMB     142      POPC     H11Y     HAL2     0.900000E-01   1.00800           0
     18789 MEMB     142      POPC     C312     CTL2    -0.180000       12.0110           0
     18790 MEMB     142      POPC     H12X     HAL2     0.900000E-01   1.00800           0
     18791 MEMB     142      POPC     H12Y     HAL2     0.900000E-01   1.00800           0
     18792 MEMB     142      POPC     C313     CTL2    -0.180000       12.0110           0
     18793 MEMB     142      POPC     H13X     HAL2     0.900000E-01   1.00800           0
     18794 MEMB     142      POPC     H13Y     HAL2     0.900000E-01   1.00800           0
     18795 MEMB     142      POPC     C314     CTL2    -0.180000       12.0110           0
     18796 MEMB     142      POPC     H14X     HAL2     0.900000E-01   1.00800           0
     18797 MEMB     142      POPC     H14Y     HAL2     0.900000E-01   1.00800           0
     18798 MEMB     142      POPC     C315     CTL2    -0.180000       12.0110           0
     18799 MEMB     142      POPC     H15X     HAL2     0.900000E-01   1.00800           0
     18800 MEMB     142      POPC     H15Y     HAL2     0.900000E-01   1.00800           0
     18801 MEMB     142      POPC     C316     CTL3    -0.270000       12.0110           0
     18802 MEMB     142      POPC     H16X     HAL3     0.900000E-01   1.00800           0
     18803 MEMB     142      POPC     H16Y     HAL3     0.900000E-01   1.00800           0
     18804 MEMB     142      POPC     H16Z     HAL3     0.900000E-01   1.00800           0
     18805 MEMB     143      POPC     N        NTL     -0.600000       14.0070           0
     18806 MEMB     143      POPC     C12      CTL2    -0.100000       12.0110           0
     18807 MEMB     143      POPC     H12A     HL       0.250000       1.00800           0
     18808 MEMB     143      POPC     H12B     HL       0.250000       1.00800           0
     18809 MEMB     143      POPC     C13      CTL5    -0.350000       12.0110           0
     18810 MEMB     143      POPC     H13A     HL       0.250000       1.00800           0
     18811 MEMB     143      POPC     H13B     HL       0.250000       1.00800           0
     18812 MEMB     143      POPC     H13C     HL       0.250000       1.00800           0
     18813 MEMB     143      POPC     C14      CTL5    -0.350000       12.0110           0
     18814 MEMB     143      POPC     H14A     HL       0.250000       1.00800           0
     18815 MEMB     143      POPC     H14B     HL       0.250000       1.00800           0
     18816 MEMB     143      POPC     H14C     HL       0.250000       1.00800           0
     18817 MEMB     143      POPC     C15      CTL5    -0.350000       12.0110           0
     18818 MEMB     143      POPC     H15A     HL       0.250000       1.00800           0
     18819 MEMB     143      POPC     H15B     HL       0.250000       1.00800           0
     18820 MEMB     143      POPC     H15C     HL       0.250000       1.00800           0
     18821 MEMB     143      POPC     C11      CTL2    -0.800000E-01   12.0110           0
     18822 MEMB     143      POPC     H11A     HAL2     0.900000E-01   1.00800           0
     18823 MEMB     143      POPC     H11B     HAL2     0.900000E-01   1.00800           0
     18824 MEMB     143      POPC     P        PL        1.50000       30.9740           0
     18825 MEMB     143      POPC     O13      O2L     -0.780000       15.9994           0
     18826 MEMB     143      POPC     O14      O2L     -0.780000       15.9994           0
     18827 MEMB     143      POPC     O12      OSLP    -0.570000       15.9994           0
     18828 MEMB     143      POPC     O11      OSLP    -0.570000       15.9994           0
     18829 MEMB     143      POPC     C1       CTL2    -0.800000E-01   12.0110           0
     18830 MEMB     143      POPC     HA       HAL2     0.900000E-01   1.00800           0
     18831 MEMB     143      POPC     HB       HAL2     0.900000E-01   1.00800           0
     18832 MEMB     143      POPC     C2       CTL1     0.170000       12.0110           0
     18833 MEMB     143      POPC     HS       HAL1     0.900000E-01   1.00800           0
     18834 MEMB     143      POPC     O21      OSL     -0.490000       15.9994           0
     18835 MEMB     143      POPC     C21      CL       0.900000       12.0110           0
     18836 MEMB     143      POPC     O22      OBL     -0.630000       15.9994           0
     18837 MEMB     143      POPC     C22      CTL2    -0.220000       12.0110           0
     18838 MEMB     143      POPC     H2R      HAL2     0.900000E-01   1.00800           0
     18839 MEMB     143      POPC     H2S      HAL2     0.900000E-01   1.00800           0
     18840 MEMB     143      POPC     C3       CTL2     0.800000E-01   12.0110           0
     18841 MEMB     143      POPC     HX       HAL2     0.900000E-01   1.00800           0
     18842 MEMB     143      POPC     HY       HAL2     0.900000E-01   1.00800           0
     18843 MEMB     143      POPC     O31      OSL     -0.490000       15.9994           0
     18844 MEMB     143      POPC     C31      CL       0.900000       12.0110           0
     18845 MEMB     143      POPC     O32      OBL     -0.630000       15.9994           0
     18846 MEMB     143      POPC     C32      CTL2    -0.220000       12.0110           0
     18847 MEMB     143      POPC     H2X      HAL2     0.900000E-01   1.00800           0
     18848 MEMB     143      POPC     H2Y      HAL2     0.900000E-01   1.00800           0
     18849 MEMB     143      POPC     C23      CTL2    -0.180000       12.0110           0
     18850 MEMB     143      POPC     H3R      HAL2     0.900000E-01   1.00800           0
     18851 MEMB     143      POPC     H3S      HAL2     0.900000E-01   1.00800           0
     18852 MEMB     143      POPC     C24      CTL2    -0.180000       12.0110           0
     18853 MEMB     143      POPC     H4R      HAL2     0.900000E-01   1.00800           0
     18854 MEMB     143      POPC     H4S      HAL2     0.900000E-01   1.00800           0
     18855 MEMB     143      POPC     C25      CTL2    -0.180000       12.0110           0
     18856 MEMB     143      POPC     H5R      HAL2     0.900000E-01   1.00800           0
     18857 MEMB     143      POPC     H5S      HAL2     0.900000E-01   1.00800           0
     18858 MEMB     143      POPC     C26      CTL2    -0.180000       12.0110           0
     18859 MEMB     143      POPC     H6R      HAL2     0.900000E-01   1.00800           0
     18860 MEMB     143      POPC     H6S      HAL2     0.900000E-01   1.00800           0
     18861 MEMB     143      POPC     C27      CTL2    -0.180000       12.0110           0
     18862 MEMB     143      POPC     H7R      HAL2     0.900000E-01   1.00800           0
     18863 MEMB     143      POPC     H7S      HAL2     0.900000E-01   1.00800           0
     18864 MEMB     143      POPC     C28      CTL2    -0.180000       12.0110           0
     18865 MEMB     143      POPC     H8R      HAL2     0.900000E-01   1.00800           0
     18866 MEMB     143      POPC     H8S      HAL2     0.900000E-01   1.00800           0
     18867 MEMB     143      POPC     C29      CEL1    -0.150000       12.0110           0
     18868 MEMB     143      POPC     H91      HEL1     0.150000       1.00800           0
     18869 MEMB     143      POPC     C210     CEL1    -0.150000       12.0110           0
     18870 MEMB     143      POPC     H101     HEL1     0.150000       1.00800           0
     18871 MEMB     143      POPC     C211     CTL2    -0.180000       12.0110           0
     18872 MEMB     143      POPC     H11R     HAL2     0.900000E-01   1.00800           0
     18873 MEMB     143      POPC     H11S     HAL2     0.900000E-01   1.00800           0
     18874 MEMB     143      POPC     C212     CTL2    -0.180000       12.0110           0
     18875 MEMB     143      POPC     H12R     HAL2     0.900000E-01   1.00800           0
     18876 MEMB     143      POPC     H12S     HAL2     0.900000E-01   1.00800           0
     18877 MEMB     143      POPC     C213     CTL2    -0.180000       12.0110           0
     18878 MEMB     143      POPC     H13R     HAL2     0.900000E-01   1.00800           0
     18879 MEMB     143      POPC     H13S     HAL2     0.900000E-01   1.00800           0
     18880 MEMB     143      POPC     C214     CTL2    -0.180000       12.0110           0
     18881 MEMB     143      POPC     H14R     HAL2     0.900000E-01   1.00800           0
     18882 MEMB     143      POPC     H14S     HAL2     0.900000E-01   1.00800           0
     18883 MEMB     143      POPC     C215     CTL2    -0.180000       12.0110           0
     18884 MEMB     143      POPC     H15R     HAL2     0.900000E-01   1.00800           0
     18885 MEMB     143      POPC     H15S     HAL2     0.900000E-01   1.00800           0
     18886 MEMB     143      POPC     C216     CTL2    -0.180000       12.0110           0
     18887 MEMB     143      POPC     H16R     HAL2     0.900000E-01   1.00800           0
     18888 MEMB     143      POPC     H16S     HAL2     0.900000E-01   1.00800           0
     18889 MEMB     143      POPC     C217     CTL2    -0.180000       12.0110           0
     18890 MEMB     143      POPC     H17R     HAL2     0.900000E-01   1.00800           0
     18891 MEMB     143      POPC     H17S     HAL2     0.900000E-01   1.00800           0
     18892 MEMB     143      POPC     C218     CTL3    -0.270000       12.0110           0
     18893 MEMB     143      POPC     H18R     HAL3     0.900000E-01   1.00800           0
     18894 MEMB     143      POPC     H18S     HAL3     0.900000E-01   1.00800           0
     18895 MEMB     143      POPC     H18T     HAL3     0.900000E-01   1.00800           0
     18896 MEMB     143      POPC     C33      CTL2    -0.180000       12.0110           0
     18897 MEMB     143      POPC     H3X      HAL2     0.900000E-01   1.00800           0
     18898 MEMB     143      POPC     H3Y      HAL2     0.900000E-01   1.00800           0
     18899 MEMB     143      POPC     C34      CTL2    -0.180000       12.0110           0
     18900 MEMB     143      POPC     H4X      HAL2     0.900000E-01   1.00800           0
     18901 MEMB     143      POPC     H4Y      HAL2     0.900000E-01   1.00800           0
     18902 MEMB     143      POPC     C35      CTL2    -0.180000       12.0110           0
     18903 MEMB     143      POPC     H5X      HAL2     0.900000E-01   1.00800           0
     18904 MEMB     143      POPC     H5Y      HAL2     0.900000E-01   1.00800           0
     18905 MEMB     143      POPC     C36      CTL2    -0.180000       12.0110           0
     18906 MEMB     143      POPC     H6X      HAL2     0.900000E-01   1.00800           0
     18907 MEMB     143      POPC     H6Y      HAL2     0.900000E-01   1.00800           0
     18908 MEMB     143      POPC     C37      CTL2    -0.180000       12.0110           0
     18909 MEMB     143      POPC     H7X      HAL2     0.900000E-01   1.00800           0
     18910 MEMB     143      POPC     H7Y      HAL2     0.900000E-01   1.00800           0
     18911 MEMB     143      POPC     C38      CTL2    -0.180000       12.0110           0
     18912 MEMB     143      POPC     H8X      HAL2     0.900000E-01   1.00800           0
     18913 MEMB     143      POPC     H8Y      HAL2     0.900000E-01   1.00800           0
     18914 MEMB     143      POPC     C39      CTL2    -0.180000       12.0110           0
     18915 MEMB     143      POPC     H9X      HAL2     0.900000E-01   1.00800           0
     18916 MEMB     143      POPC     H9Y      HAL2     0.900000E-01   1.00800           0
     18917 MEMB     143      POPC     C310     CTL2    -0.180000       12.0110           0
     18918 MEMB     143      POPC     H10X     HAL2     0.900000E-01   1.00800           0
     18919 MEMB     143      POPC     H10Y     HAL2     0.900000E-01   1.00800           0
     18920 MEMB     143      POPC     C311     CTL2    -0.180000       12.0110           0
     18921 MEMB     143      POPC     H11X     HAL2     0.900000E-01   1.00800           0
     18922 MEMB     143      POPC     H11Y     HAL2     0.900000E-01   1.00800           0
     18923 MEMB     143      POPC     C312     CTL2    -0.180000       12.0110           0
     18924 MEMB     143      POPC     H12X     HAL2     0.900000E-01   1.00800           0
     18925 MEMB     143      POPC     H12Y     HAL2     0.900000E-01   1.00800           0
     18926 MEMB     143      POPC     C313     CTL2    -0.180000       12.0110           0
     18927 MEMB     143      POPC     H13X     HAL2     0.900000E-01   1.00800           0
     18928 MEMB     143      POPC     H13Y     HAL2     0.900000E-01   1.00800           0
     18929 MEMB     143      POPC     C314     CTL2    -0.180000       12.0110           0
     18930 MEMB     143      POPC     H14X     HAL2     0.900000E-01   1.00800           0
     18931 MEMB     143      POPC     H14Y     HAL2     0.900000E-01   1.00800           0
     18932 MEMB     143      POPC     C315     CTL2    -0.180000       12.0110           0
     18933 MEMB     143      POPC     H15X     HAL2     0.900000E-01   1.00800           0
     18934 MEMB     143      POPC     H15Y     HAL2     0.900000E-01   1.00800           0
     18935 MEMB     143      POPC     C316     CTL3    -0.270000       12.0110           0
     18936 MEMB     143      POPC     H16X     HAL3     0.900000E-01   1.00800           0
     18937 MEMB     143      POPC     H16Y     HAL3     0.900000E-01   1.00800           0
     18938 MEMB     143      POPC     H16Z     HAL3     0.900000E-01   1.00800           0
     18939 MEMB     144      POPC     N        NTL     -0.600000       14.0070           0
     18940 MEMB     144      POPC     C12      CTL2    -0.100000       12.0110           0
     18941 MEMB     144      POPC     H12A     HL       0.250000       1.00800           0
     18942 MEMB     144      POPC     H12B     HL       0.250000       1.00800           0
     18943 MEMB     144      POPC     C13      CTL5    -0.350000       12.0110           0
     18944 MEMB     144      POPC     H13A     HL       0.250000       1.00800           0
     18945 MEMB     144      POPC     H13B     HL       0.250000       1.00800           0
     18946 MEMB     144      POPC     H13C     HL       0.250000       1.00800           0
     18947 MEMB     144      POPC     C14      CTL5    -0.350000       12.0110           0
     18948 MEMB     144      POPC     H14A     HL       0.250000       1.00800           0
     18949 MEMB     144      POPC     H14B     HL       0.250000       1.00800           0
     18950 MEMB     144      POPC     H14C     HL       0.250000       1.00800           0
     18951 MEMB     144      POPC     C15      CTL5    -0.350000       12.0110           0
     18952 MEMB     144      POPC     H15A     HL       0.250000       1.00800           0
     18953 MEMB     144      POPC     H15B     HL       0.250000       1.00800           0
     18954 MEMB     144      POPC     H15C     HL       0.250000       1.00800           0
     18955 MEMB     144      POPC     C11      CTL2    -0.800000E-01   12.0110           0
     18956 MEMB     144      POPC     H11A     HAL2     0.900000E-01   1.00800           0
     18957 MEMB     144      POPC     H11B     HAL2     0.900000E-01   1.00800           0
     18958 MEMB     144      POPC     P        PL        1.50000       30.9740           0
     18959 MEMB     144      POPC     O13      O2L     -0.780000       15.9994           0
     18960 MEMB     144      POPC     O14      O2L     -0.780000       15.9994           0
     18961 MEMB     144      POPC     O12      OSLP    -0.570000       15.9994           0
     18962 MEMB     144      POPC     O11      OSLP    -0.570000       15.9994           0
     18963 MEMB     144      POPC     C1       CTL2    -0.800000E-01   12.0110           0
     18964 MEMB     144      POPC     HA       HAL2     0.900000E-01   1.00800           0
     18965 MEMB     144      POPC     HB       HAL2     0.900000E-01   1.00800           0
     18966 MEMB     144      POPC     C2       CTL1     0.170000       12.0110           0
     18967 MEMB     144      POPC     HS       HAL1     0.900000E-01   1.00800           0
     18968 MEMB     144      POPC     O21      OSL     -0.490000       15.9994           0
     18969 MEMB     144      POPC     C21      CL       0.900000       12.0110           0
     18970 MEMB     144      POPC     O22      OBL     -0.630000       15.9994           0
     18971 MEMB     144      POPC     C22      CTL2    -0.220000       12.0110           0
     18972 MEMB     144      POPC     H2R      HAL2     0.900000E-01   1.00800           0
     18973 MEMB     144      POPC     H2S      HAL2     0.900000E-01   1.00800           0
     18974 MEMB     144      POPC     C3       CTL2     0.800000E-01   12.0110           0
     18975 MEMB     144      POPC     HX       HAL2     0.900000E-01   1.00800           0
     18976 MEMB     144      POPC     HY       HAL2     0.900000E-01   1.00800           0
     18977 MEMB     144      POPC     O31      OSL     -0.490000       15.9994           0
     18978 MEMB     144      POPC     C31      CL       0.900000       12.0110           0
     18979 MEMB     144      POPC     O32      OBL     -0.630000       15.9994           0
     18980 MEMB     144      POPC     C32      CTL2    -0.220000       12.0110           0
     18981 MEMB     144      POPC     H2X      HAL2     0.900000E-01   1.00800           0
     18982 MEMB     144      POPC     H2Y      HAL2     0.900000E-01   1.00800           0
     18983 MEMB     144      POPC     C23      CTL2    -0.180000       12.0110           0
     18984 MEMB     144      POPC     H3R      HAL2     0.900000E-01   1.00800           0
     18985 MEMB     144      POPC     H3S      HAL2     0.900000E-01   1.00800           0
     18986 MEMB     144      POPC     C24      CTL2    -0.180000       12.0110           0
     18987 MEMB     144      POPC     H4R      HAL2     0.900000E-01   1.00800           0
     18988 MEMB     144      POPC     H4S      HAL2     0.900000E-01   1.00800           0
     18989 MEMB     144      POPC     C25      CTL2    -0.180000       12.0110           0
     18990 MEMB     144      POPC     H5R      HAL2     0.900000E-01   1.00800           0
     18991 MEMB     144      POPC     H5S      HAL2     0.900000E-01   1.00800           0
     18992 MEMB     144      POPC     C26      CTL2    -0.180000       12.0110           0
     18993 MEMB     144      POPC     H6R      HAL2     0.900000E-01   1.00800           0
     18994 MEMB     144      POPC     H6S      HAL2     0.900000E-01   1.00800           0
     18995 MEMB     144      POPC     C27      CTL2    -0.180000       12.0110           0
     18996 MEMB     144      POPC     H7R      HAL2     0.900000E-01   1.00800           0
     18997 MEMB     144      POPC     H7S      HAL2     0.900000E-01   1.00800           0
     18998 MEMB     144      POPC     C28      CTL2    -0.180000       12.0110           0
     18999 MEMB     144      POPC     H8R      HAL2     0.900000E-01   1.00800           0
     19000 MEMB     144      POPC     H8S      HAL2     0.900000E-01   1.00800           0
     19001 MEMB     144      POPC     C29      CEL1    -0.150000       12.0110           0
     19002 MEMB     144      POPC     H91      HEL1     0.150000       1.00800           0
     19003 MEMB     144      POPC     C210     CEL1    -0.150000       12.0110           0
     19004 MEMB     144      POPC     H101     HEL1     0.150000       1.00800           0
     19005 MEMB     144      POPC     C211     CTL2    -0.180000       12.0110           0
     19006 MEMB     144      POPC     H11R     HAL2     0.900000E-01   1.00800           0
     19007 MEMB     144      POPC     H11S     HAL2     0.900000E-01   1.00800           0
     19008 MEMB     144      POPC     C212     CTL2    -0.180000       12.0110           0
     19009 MEMB     144      POPC     H12R     HAL2     0.900000E-01   1.00800           0
     19010 MEMB     144      POPC     H12S     HAL2     0.900000E-01   1.00800           0
     19011 MEMB     144      POPC     C213     CTL2    -0.180000       12.0110           0
     19012 MEMB     144      POPC     H13R     HAL2     0.900000E-01   1.00800           0
     19013 MEMB     144      POPC     H13S     HAL2     0.900000E-01   1.00800           0
     19014 MEMB     144      POPC     C214     CTL2    -0.180000       12.0110           0
     19015 MEMB     144      POPC     H14R     HAL2     0.900000E-01   1.00800           0
     19016 MEMB     144      POPC     H14S     HAL2     0.900000E-01   1.00800           0
     19017 MEMB     144      POPC     C215     CTL2    -0.180000       12.0110           0
     19018 MEMB     144      POPC     H15R     HAL2     0.900000E-01   1.00800           0
     19019 MEMB     144      POPC     H15S     HAL2     0.900000E-01   1.00800           0
     19020 MEMB     144      POPC     C216     CTL2    -0.180000       12.0110           0
     19021 MEMB     144      POPC     H16R     HAL2     0.900000E-01   1.00800           0
     19022 MEMB     144      POPC     H16S     HAL2     0.900000E-01   1.00800           0
     19023 MEMB     144      POPC     C217     CTL2    -0.180000       12.0110           0
     19024 MEMB     144      POPC     H17R     HAL2     0.900000E-01   1.00800           0
     19025 MEMB     144      POPC     H17S     HAL2     0.900000E-01   1.00800           0
     19026 MEMB     144      POPC     C218     CTL3    -0.270000       12.0110           0
     19027 MEMB     144      POPC     H18R     HAL3     0.900000E-01   1.00800           0
     19028 MEMB     144      POPC     H18S     HAL3     0.900000E-01   1.00800           0
     19029 MEMB     144      POPC     H18T     HAL3     0.900000E-01   1.00800           0
     19030 MEMB     144      POPC     C33      CTL2    -0.180000       12.0110           0
     19031 MEMB     144      POPC     H3X      HAL2     0.900000E-01   1.00800           0
     19032 MEMB     144      POPC     H3Y      HAL2     0.900000E-01   1.00800           0
     19033 MEMB     144      POPC     C34      CTL2    -0.180000       12.0110           0
     19034 MEMB     144      POPC     H4X      HAL2     0.900000E-01   1.00800           0
     19035 MEMB     144      POPC     H4Y      HAL2     0.900000E-01   1.00800           0
     19036 MEMB     144      POPC     C35      CTL2    -0.180000       12.0110           0
     19037 MEMB     144      POPC     H5X      HAL2     0.900000E-01   1.00800           0
     19038 MEMB     144      POPC     H5Y      HAL2     0.900000E-01   1.00800           0
     19039 MEMB     144      POPC     C36      CTL2    -0.180000       12.0110           0
     19040 MEMB     144      POPC     H6X      HAL2     0.900000E-01   1.00800           0
     19041 MEMB     144      POPC     H6Y      HAL2     0.900000E-01   1.00800           0
     19042 MEMB     144      POPC     C37      CTL2    -0.180000       12.0110           0
     19043 MEMB     144      POPC     H7X      HAL2     0.900000E-01   1.00800           0
     19044 MEMB     144      POPC     H7Y      HAL2     0.900000E-01   1.00800           0
     19045 MEMB     144      POPC     C38      CTL2    -0.180000       12.0110           0
     19046 MEMB     144      POPC     H8X      HAL2     0.900000E-01   1.00800           0
     19047 MEMB     144      POPC     H8Y      HAL2     0.900000E-01   1.00800           0
     19048 MEMB     144      POPC     C39      CTL2    -0.180000       12.0110           0
     19049 MEMB     144      POPC     H9X      HAL2     0.900000E-01   1.00800           0
     19050 MEMB     144      POPC     H9Y      HAL2     0.900000E-01   1.00800           0
     19051 MEMB     144      POPC     C310     CTL2    -0.180000       12.0110           0
     19052 MEMB     144      POPC     H10X     HAL2     0.900000E-01   1.00800           0
     19053 MEMB     144      POPC     H10Y     HAL2     0.900000E-01   1.00800           0
     19054 MEMB     144      POPC     C311     CTL2    -0.180000       12.0110           0
     19055 MEMB     144      POPC     H11X     HAL2     0.900000E-01   1.00800           0
     19056 MEMB     144      POPC     H11Y     HAL2     0.900000E-01   1.00800           0
     19057 MEMB     144      POPC     C312     CTL2    -0.180000       12.0110           0
     19058 MEMB     144      POPC     H12X     HAL2     0.900000E-01   1.00800           0
     19059 MEMB     144      POPC     H12Y     HAL2     0.900000E-01   1.00800           0
     19060 MEMB     144      POPC     C313     CTL2    -0.180000       12.0110           0
     19061 MEMB     144      POPC     H13X     HAL2     0.900000E-01   1.00800           0
     19062 MEMB     144      POPC     H13Y     HAL2     0.900000E-01   1.00800           0
     19063 MEMB     144      POPC     C314     CTL2    -0.180000       12.0110           0
     19064 MEMB     144      POPC     H14X     HAL2     0.900000E-01   1.00800           0
     19065 MEMB     144      POPC     H14Y     HAL2     0.900000E-01   1.00800           0
     19066 MEMB     144      POPC     C315     CTL2    -0.180000       12.0110           0
     19067 MEMB     144      POPC     H15X     HAL2     0.900000E-01   1.00800           0
     19068 MEMB     144      POPC     H15Y     HAL2     0.900000E-01   1.00800           0
     19069 MEMB     144      POPC     C316     CTL3    -0.270000       12.0110           0
     19070 MEMB     144      POPC     H16X     HAL3     0.900000E-01   1.00800           0
     19071 MEMB     144      POPC     H16Y     HAL3     0.900000E-01   1.00800           0
     19072 MEMB     144      POPC     H16Z     HAL3     0.900000E-01   1.00800           0
     19073 MEMB     145      POPC     N        NTL     -0.600000       14.0070           0
     19074 MEMB     145      POPC     C12      CTL2    -0.100000       12.0110           0
     19075 MEMB     145      POPC     H12A     HL       0.250000       1.00800           0
     19076 MEMB     145      POPC     H12B     HL       0.250000       1.00800           0
     19077 MEMB     145      POPC     C13      CTL5    -0.350000       12.0110           0
     19078 MEMB     145      POPC     H13A     HL       0.250000       1.00800           0
     19079 MEMB     145      POPC     H13B     HL       0.250000       1.00800           0
     19080 MEMB     145      POPC     H13C     HL       0.250000       1.00800           0
     19081 MEMB     145      POPC     C14      CTL5    -0.350000       12.0110           0
     19082 MEMB     145      POPC     H14A     HL       0.250000       1.00800           0
     19083 MEMB     145      POPC     H14B     HL       0.250000       1.00800           0
     19084 MEMB     145      POPC     H14C     HL       0.250000       1.00800           0
     19085 MEMB     145      POPC     C15      CTL5    -0.350000       12.0110           0
     19086 MEMB     145      POPC     H15A     HL       0.250000       1.00800           0
     19087 MEMB     145      POPC     H15B     HL       0.250000       1.00800           0
     19088 MEMB     145      POPC     H15C     HL       0.250000       1.00800           0
     19089 MEMB     145      POPC     C11      CTL2    -0.800000E-01   12.0110           0
     19090 MEMB     145      POPC     H11A     HAL2     0.900000E-01   1.00800           0
     19091 MEMB     145      POPC     H11B     HAL2     0.900000E-01   1.00800           0
     19092 MEMB     145      POPC     P        PL        1.50000       30.9740           0
     19093 MEMB     145      POPC     O13      O2L     -0.780000       15.9994           0
     19094 MEMB     145      POPC     O14      O2L     -0.780000       15.9994           0
     19095 MEMB     145      POPC     O12      OSLP    -0.570000       15.9994           0
     19096 MEMB     145      POPC     O11      OSLP    -0.570000       15.9994           0
     19097 MEMB     145      POPC     C1       CTL2    -0.800000E-01   12.0110           0
     19098 MEMB     145      POPC     HA       HAL2     0.900000E-01   1.00800           0
     19099 MEMB     145      POPC     HB       HAL2     0.900000E-01   1.00800           0
     19100 MEMB     145      POPC     C2       CTL1     0.170000       12.0110           0
     19101 MEMB     145      POPC     HS       HAL1     0.900000E-01   1.00800           0
     19102 MEMB     145      POPC     O21      OSL     -0.490000       15.9994           0
     19103 MEMB     145      POPC     C21      CL       0.900000       12.0110           0
     19104 MEMB     145      POPC     O22      OBL     -0.630000       15.9994           0
     19105 MEMB     145      POPC     C22      CTL2    -0.220000       12.0110           0
     19106 MEMB     145      POPC     H2R      HAL2     0.900000E-01   1.00800           0
     19107 MEMB     145      POPC     H2S      HAL2     0.900000E-01   1.00800           0
     19108 MEMB     145      POPC     C3       CTL2     0.800000E-01   12.0110           0
     19109 MEMB     145      POPC     HX       HAL2     0.900000E-01   1.00800           0
     19110 MEMB     145      POPC     HY       HAL2     0.900000E-01   1.00800           0
     19111 MEMB     145      POPC     O31      OSL     -0.490000       15.9994           0
     19112 MEMB     145      POPC     C31      CL       0.900000       12.0110           0
     19113 MEMB     145      POPC     O32      OBL     -0.630000       15.9994           0
     19114 MEMB     145      POPC     C32      CTL2    -0.220000       12.0110           0
     19115 MEMB     145      POPC     H2X      HAL2     0.900000E-01   1.00800           0
     19116 MEMB     145      POPC     H2Y      HAL2     0.900000E-01   1.00800           0
     19117 MEMB     145      POPC     C23      CTL2    -0.180000       12.0110           0
     19118 MEMB     145      POPC     H3R      HAL2     0.900000E-01   1.00800           0
     19119 MEMB     145      POPC     H3S      HAL2     0.900000E-01   1.00800           0
     19120 MEMB     145      POPC     C24      CTL2    -0.180000       12.0110           0
     19121 MEMB     145      POPC     H4R      HAL2     0.900000E-01   1.00800           0
     19122 MEMB     145      POPC     H4S      HAL2     0.900000E-01   1.00800           0
     19123 MEMB     145      POPC     C25      CTL2    -0.180000       12.0110           0
     19124 MEMB     145      POPC     H5R      HAL2     0.900000E-01   1.00800           0
     19125 MEMB     145      POPC     H5S      HAL2     0.900000E-01   1.00800           0
     19126 MEMB     145      POPC     C26      CTL2    -0.180000       12.0110           0
     19127 MEMB     145      POPC     H6R      HAL2     0.900000E-01   1.00800           0
     19128 MEMB     145      POPC     H6S      HAL2     0.900000E-01   1.00800           0
     19129 MEMB     145      POPC     C27      CTL2    -0.180000       12.0110           0
     19130 MEMB     145      POPC     H7R      HAL2     0.900000E-01   1.00800           0
     19131 MEMB     145      POPC     H7S      HAL2     0.900000E-01   1.00800           0
     19132 MEMB     145      POPC     C28      CTL2    -0.180000       12.0110           0
     19133 MEMB     145      POPC     H8R      HAL2     0.900000E-01   1.00800           0
     19134 MEMB     145      POPC     H8S      HAL2     0.900000E-01   1.00800           0
     19135 MEMB     145      POPC     C29      CEL1    -0.150000       12.0110           0
     19136 MEMB     145      POPC     H91      HEL1     0.150000       1.00800           0
     19137 MEMB     145      POPC     C210     CEL1    -0.150000       12.0110           0
     19138 MEMB     145      POPC     H101     HEL1     0.150000       1.00800           0
     19139 MEMB     145      POPC     C211     CTL2    -0.180000       12.0110           0
     19140 MEMB     145      POPC     H11R     HAL2     0.900000E-01   1.00800           0
     19141 MEMB     145      POPC     H11S     HAL2     0.900000E-01   1.00800           0
     19142 MEMB     145      POPC     C212     CTL2    -0.180000       12.0110           0
     19143 MEMB     145      POPC     H12R     HAL2     0.900000E-01   1.00800           0
     19144 MEMB     145      POPC     H12S     HAL2     0.900000E-01   1.00800           0
     19145 MEMB     145      POPC     C213     CTL2    -0.180000       12.0110           0
     19146 MEMB     145      POPC     H13R     HAL2     0.900000E-01   1.00800           0
     19147 MEMB     145      POPC     H13S     HAL2     0.900000E-01   1.00800           0
     19148 MEMB     145      POPC     C214     CTL2    -0.180000       12.0110           0
     19149 MEMB     145      POPC     H14R     HAL2     0.900000E-01   1.00800           0
     19150 MEMB     145      POPC     H14S     HAL2     0.900000E-01   1.00800           0
     19151 MEMB     145      POPC     C215     CTL2    -0.180000       12.0110           0
     19152 MEMB     145      POPC     H15R     HAL2     0.900000E-01   1.00800           0
     19153 MEMB     145      POPC     H15S     HAL2     0.900000E-01   1.00800           0
     19154 MEMB     145      POPC     C216     CTL2    -0.180000       12.0110           0
     19155 MEMB     145      POPC     H16R     HAL2     0.900000E-01   1.00800           0
     19156 MEMB     145      POPC     H16S     HAL2     0.900000E-01   1.00800           0
     19157 MEMB     145      POPC     C217     CTL2    -0.180000       12.0110           0
     19158 MEMB     145      POPC     H17R     HAL2     0.900000E-01   1.00800           0
     19159 MEMB     145      POPC     H17S     HAL2     0.900000E-01   1.00800           0
     19160 MEMB     145      POPC     C218     CTL3    -0.270000       12.0110           0
     19161 MEMB     145      POPC     H18R     HAL3     0.900000E-01   1.00800           0
     19162 MEMB     145      POPC     H18S     HAL3     0.900000E-01   1.00800           0
     19163 MEMB     145      POPC     H18T     HAL3     0.900000E-01   1.00800           0
     19164 MEMB     145      POPC     C33      CTL2    -0.180000       12.0110           0
     19165 MEMB     145      POPC     H3X      HAL2     0.900000E-01   1.00800           0
     19166 MEMB     145      POPC     H3Y      HAL2     0.900000E-01   1.00800           0
     19167 MEMB     145      POPC     C34      CTL2    -0.180000       12.0110           0
     19168 MEMB     145      POPC     H4X      HAL2     0.900000E-01   1.00800           0
     19169 MEMB     145      POPC     H4Y      HAL2     0.900000E-01   1.00800           0
     19170 MEMB     145      POPC     C35      CTL2    -0.180000       12.0110           0
     19171 MEMB     145      POPC     H5X      HAL2     0.900000E-01   1.00800           0
     19172 MEMB     145      POPC     H5Y      HAL2     0.900000E-01   1.00800           0
     19173 MEMB     145      POPC     C36      CTL2    -0.180000       12.0110           0
     19174 MEMB     145      POPC     H6X      HAL2     0.900000E-01   1.00800           0
     19175 MEMB     145      POPC     H6Y      HAL2     0.900000E-01   1.00800           0
     19176 MEMB     145      POPC     C37      CTL2    -0.180000       12.0110           0
     19177 MEMB     145      POPC     H7X      HAL2     0.900000E-01   1.00800           0
     19178 MEMB     145      POPC     H7Y      HAL2     0.900000E-01   1.00800           0
     19179 MEMB     145      POPC     C38      CTL2    -0.180000       12.0110           0
     19180 MEMB     145      POPC     H8X      HAL2     0.900000E-01   1.00800           0
     19181 MEMB     145      POPC     H8Y      HAL2     0.900000E-01   1.00800           0
     19182 MEMB     145      POPC     C39      CTL2    -0.180000       12.0110           0
     19183 MEMB     145      POPC     H9X      HAL2     0.900000E-01   1.00800           0
     19184 MEMB     145      POPC     H9Y      HAL2     0.900000E-01   1.00800           0
     19185 MEMB     145      POPC     C310     CTL2    -0.180000       12.0110           0
     19186 MEMB     145      POPC     H10X     HAL2     0.900000E-01   1.00800           0
     19187 MEMB     145      POPC     H10Y     HAL2     0.900000E-01   1.00800           0
     19188 MEMB     145      POPC     C311     CTL2    -0.180000       12.0110           0
     19189 MEMB     145      POPC     H11X     HAL2     0.900000E-01   1.00800           0
     19190 MEMB     145      POPC     H11Y     HAL2     0.900000E-01   1.00800           0
     19191 MEMB     145      POPC     C312     CTL2    -0.180000       12.0110           0
     19192 MEMB     145      POPC     H12X     HAL2     0.900000E-01   1.00800           0
     19193 MEMB     145      POPC     H12Y     HAL2     0.900000E-01   1.00800           0
     19194 MEMB     145      POPC     C313     CTL2    -0.180000       12.0110           0
     19195 MEMB     145      POPC     H13X     HAL2     0.900000E-01   1.00800           0
     19196 MEMB     145      POPC     H13Y     HAL2     0.900000E-01   1.00800           0
     19197 MEMB     145      POPC     C314     CTL2    -0.180000       12.0110           0
     19198 MEMB     145      POPC     H14X     HAL2     0.900000E-01   1.00800           0
     19199 MEMB     145      POPC     H14Y     HAL2     0.900000E-01   1.00800           0
     19200 MEMB     145      POPC     C315     CTL2    -0.180000       12.0110           0
     19201 MEMB     145      POPC     H15X     HAL2     0.900000E-01   1.00800           0
     19202 MEMB     145      POPC     H15Y     HAL2     0.900000E-01   1.00800           0
     19203 MEMB     145      POPC     C316     CTL3    -0.270000       12.0110           0
     19204 MEMB     145      POPC     H16X     HAL3     0.900000E-01   1.00800           0
     19205 MEMB     145      POPC     H16Y     HAL3     0.900000E-01   1.00800           0
     19206 MEMB     145      POPC     H16Z     HAL3     0.900000E-01   1.00800           0
     19207 MEMB     146      POPC     N        NTL     -0.600000       14.0070           0
     19208 MEMB     146      POPC     C12      CTL2    -0.100000       12.0110           0
     19209 MEMB     146      POPC     H12A     HL       0.250000       1.00800           0
     19210 MEMB     146      POPC     H12B     HL       0.250000       1.00800           0
     19211 MEMB     146      POPC     C13      CTL5    -0.350000       12.0110           0
     19212 MEMB     146      POPC     H13A     HL       0.250000       1.00800           0
     19213 MEMB     146      POPC     H13B     HL       0.250000       1.00800           0
     19214 MEMB     146      POPC     H13C     HL       0.250000       1.00800           0
     19215 MEMB     146      POPC     C14      CTL5    -0.350000       12.0110           0
     19216 MEMB     146      POPC     H14A     HL       0.250000       1.00800           0
     19217 MEMB     146      POPC     H14B     HL       0.250000       1.00800           0
     19218 MEMB     146      POPC     H14C     HL       0.250000       1.00800           0
     19219 MEMB     146      POPC     C15      CTL5    -0.350000       12.0110           0
     19220 MEMB     146      POPC     H15A     HL       0.250000       1.00800           0
     19221 MEMB     146      POPC     H15B     HL       0.250000       1.00800           0
     19222 MEMB     146      POPC     H15C     HL       0.250000       1.00800           0
     19223 MEMB     146      POPC     C11      CTL2    -0.800000E-01   12.0110           0
     19224 MEMB     146      POPC     H11A     HAL2     0.900000E-01   1.00800           0
     19225 MEMB     146      POPC     H11B     HAL2     0.900000E-01   1.00800           0
     19226 MEMB     146      POPC     P        PL        1.50000       30.9740           0
     19227 MEMB     146      POPC     O13      O2L     -0.780000       15.9994           0
     19228 MEMB     146      POPC     O14      O2L     -0.780000       15.9994           0
     19229 MEMB     146      POPC     O12      OSLP    -0.570000       15.9994           0
     19230 MEMB     146      POPC     O11      OSLP    -0.570000       15.9994           0
     19231 MEMB     146      POPC     C1       CTL2    -0.800000E-01   12.0110           0
     19232 MEMB     146      POPC     HA       HAL2     0.900000E-01   1.00800           0
     19233 MEMB     146      POPC     HB       HAL2     0.900000E-01   1.00800           0
     19234 MEMB     146      POPC     C2       CTL1     0.170000       12.0110           0
     19235 MEMB     146      POPC     HS       HAL1     0.900000E-01   1.00800           0
     19236 MEMB     146      POPC     O21      OSL     -0.490000       15.9994           0
     19237 MEMB     146      POPC     C21      CL       0.900000       12.0110           0
     19238 MEMB     146      POPC     O22      OBL     -0.630000       15.9994           0
     19239 MEMB     146      POPC     C22      CTL2    -0.220000       12.0110           0
     19240 MEMB     146      POPC     H2R      HAL2     0.900000E-01   1.00800           0
     19241 MEMB     146      POPC     H2S      HAL2     0.900000E-01   1.00800           0
     19242 MEMB     146      POPC     C3       CTL2     0.800000E-01   12.0110           0
     19243 MEMB     146      POPC     HX       HAL2     0.900000E-01   1.00800           0
     19244 MEMB     146      POPC     HY       HAL2     0.900000E-01   1.00800           0
     19245 MEMB     146      POPC     O31      OSL     -0.490000       15.9994           0
     19246 MEMB     146      POPC     C31      CL       0.900000       12.0110           0
     19247 MEMB     146      POPC     O32      OBL     -0.630000       15.9994           0
     19248 MEMB     146      POPC     C32      CTL2    -0.220000       12.0110           0
     19249 MEMB     146      POPC     H2X      HAL2     0.900000E-01   1.00800           0
     19250 MEMB     146      POPC     H2Y      HAL2     0.900000E-01   1.00800           0
     19251 MEMB     146      POPC     C23      CTL2    -0.180000       12.0110           0
     19252 MEMB     146      POPC     H3R      HAL2     0.900000E-01   1.00800           0
     19253 MEMB     146      POPC     H3S      HAL2     0.900000E-01   1.00800           0
     19254 MEMB     146      POPC     C24      CTL2    -0.180000       12.0110           0
     19255 MEMB     146      POPC     H4R      HAL2     0.900000E-01   1.00800           0
     19256 MEMB     146      POPC     H4S      HAL2     0.900000E-01   1.00800           0
     19257 MEMB     146      POPC     C25      CTL2    -0.180000       12.0110           0
     19258 MEMB     146      POPC     H5R      HAL2     0.900000E-01   1.00800           0
     19259 MEMB     146      POPC     H5S      HAL2     0.900000E-01   1.00800           0
     19260 MEMB     146      POPC     C26      CTL2    -0.180000       12.0110           0
     19261 MEMB     146      POPC     H6R      HAL2     0.900000E-01   1.00800           0
     19262 MEMB     146      POPC     H6S      HAL2     0.900000E-01   1.00800           0
     19263 MEMB     146      POPC     C27      CTL2    -0.180000       12.0110           0
     19264 MEMB     146      POPC     H7R      HAL2     0.900000E-01   1.00800           0
     19265 MEMB     146      POPC     H7S      HAL2     0.900000E-01   1.00800           0
     19266 MEMB     146      POPC     C28      CTL2    -0.180000       12.0110           0
     19267 MEMB     146      POPC     H8R      HAL2     0.900000E-01   1.00800           0
     19268 MEMB     146      POPC     H8S      HAL2     0.900000E-01   1.00800           0
     19269 MEMB     146      POPC     C29      CEL1    -0.150000       12.0110           0
     19270 MEMB     146      POPC     H91      HEL1     0.150000       1.00800           0
     19271 MEMB     146      POPC     C210     CEL1    -0.150000       12.0110           0
     19272 MEMB     146      POPC     H101     HEL1     0.150000       1.00800           0
     19273 MEMB     146      POPC     C211     CTL2    -0.180000       12.0110           0
     19274 MEMB     146      POPC     H11R     HAL2     0.900000E-01   1.00800           0
     19275 MEMB     146      POPC     H11S     HAL2     0.900000E-01   1.00800           0
     19276 MEMB     146      POPC     C212     CTL2    -0.180000       12.0110           0
     19277 MEMB     146      POPC     H12R     HAL2     0.900000E-01   1.00800           0
     19278 MEMB     146      POPC     H12S     HAL2     0.900000E-01   1.00800           0
     19279 MEMB     146      POPC     C213     CTL2    -0.180000       12.0110           0
     19280 MEMB     146      POPC     H13R     HAL2     0.900000E-01   1.00800           0
     19281 MEMB     146      POPC     H13S     HAL2     0.900000E-01   1.00800           0
     19282 MEMB     146      POPC     C214     CTL2    -0.180000       12.0110           0
     19283 MEMB     146      POPC     H14R     HAL2     0.900000E-01   1.00800           0
     19284 MEMB     146      POPC     H14S     HAL2     0.900000E-01   1.00800           0
     19285 MEMB     146      POPC     C215     CTL2    -0.180000       12.0110           0
     19286 MEMB     146      POPC     H15R     HAL2     0.900000E-01   1.00800           0
     19287 MEMB     146      POPC     H15S     HAL2     0.900000E-01   1.00800           0
     19288 MEMB     146      POPC     C216     CTL2    -0.180000       12.0110           0
     19289 MEMB     146      POPC     H16R     HAL2     0.900000E-01   1.00800           0
     19290 MEMB     146      POPC     H16S     HAL2     0.900000E-01   1.00800           0
     19291 MEMB     146      POPC     C217     CTL2    -0.180000       12.0110           0
     19292 MEMB     146      POPC     H17R     HAL2     0.900000E-01   1.00800           0
     19293 MEMB     146      POPC     H17S     HAL2     0.900000E-01   1.00800           0
     19294 MEMB     146      POPC     C218     CTL3    -0.270000       12.0110           0
     19295 MEMB     146      POPC     H18R     HAL3     0.900000E-01   1.00800           0
     19296 MEMB     146      POPC     H18S     HAL3     0.900000E-01   1.00800           0
     19297 MEMB     146      POPC     H18T     HAL3     0.900000E-01   1.00800           0
     19298 MEMB     146      POPC     C33      CTL2    -0.180000       12.0110           0
     19299 MEMB     146      POPC     H3X      HAL2     0.900000E-01   1.00800           0
     19300 MEMB     146      POPC     H3Y      HAL2     0.900000E-01   1.00800           0
     19301 MEMB     146      POPC     C34      CTL2    -0.180000       12.0110           0
     19302 MEMB     146      POPC     H4X      HAL2     0.900000E-01   1.00800           0
     19303 MEMB     146      POPC     H4Y      HAL2     0.900000E-01   1.00800           0
     19304 MEMB     146      POPC     C35      CTL2    -0.180000       12.0110           0
     19305 MEMB     146      POPC     H5X      HAL2     0.900000E-01   1.00800           0
     19306 MEMB     146      POPC     H5Y      HAL2     0.900000E-01   1.00800           0
     19307 MEMB     146      POPC     C36      CTL2    -0.180000       12.0110           0
     19308 MEMB     146      POPC     H6X      HAL2     0.900000E-01   1.00800           0
     19309 MEMB     146      POPC     H6Y      HAL2     0.900000E-01   1.00800           0
     19310 MEMB     146      POPC     C37      CTL2    -0.180000       12.0110           0
     19311 MEMB     146      POPC     H7X      HAL2     0.900000E-01   1.00800           0
     19312 MEMB     146      POPC     H7Y      HAL2     0.900000E-01   1.00800           0
     19313 MEMB     146      POPC     C38      CTL2    -0.180000       12.0110           0
     19314 MEMB     146      POPC     H8X      HAL2     0.900000E-01   1.00800           0
     19315 MEMB     146      POPC     H8Y      HAL2     0.900000E-01   1.00800           0
     19316 MEMB     146      POPC     C39      CTL2    -0.180000       12.0110           0
     19317 MEMB     146      POPC     H9X      HAL2     0.900000E-01   1.00800           0
     19318 MEMB     146      POPC     H9Y      HAL2     0.900000E-01   1.00800           0
     19319 MEMB     146      POPC     C310     CTL2    -0.180000       12.0110           0
     19320 MEMB     146      POPC     H10X     HAL2     0.900000E-01   1.00800           0
     19321 MEMB     146      POPC     H10Y     HAL2     0.900000E-01   1.00800           0
     19322 MEMB     146      POPC     C311     CTL2    -0.180000       12.0110           0
     19323 MEMB     146      POPC     H11X     HAL2     0.900000E-01   1.00800           0
     19324 MEMB     146      POPC     H11Y     HAL2     0.900000E-01   1.00800           0
     19325 MEMB     146      POPC     C312     CTL2    -0.180000       12.0110           0
     19326 MEMB     146      POPC     H12X     HAL2     0.900000E-01   1.00800           0
     19327 MEMB     146      POPC     H12Y     HAL2     0.900000E-01   1.00800           0
     19328 MEMB     146      POPC     C313     CTL2    -0.180000       12.0110           0
     19329 MEMB     146      POPC     H13X     HAL2     0.900000E-01   1.00800           0
     19330 MEMB     146      POPC     H13Y     HAL2     0.900000E-01   1.00800           0
     19331 MEMB     146      POPC     C314     CTL2    -0.180000       12.0110           0
     19332 MEMB     146      POPC     H14X     HAL2     0.900000E-01   1.00800           0
     19333 MEMB     146      POPC     H14Y     HAL2     0.900000E-01   1.00800           0
     19334 MEMB     146      POPC     C315     CTL2    -0.180000       12.0110           0
     19335 MEMB     146      POPC     H15X     HAL2     0.900000E-01   1.00800           0
     19336 MEMB     146      POPC     H15Y     HAL2     0.900000E-01   1.00800           0
     19337 MEMB     146      POPC     C316     CTL3    -0.270000       12.0110           0
     19338 MEMB     146      POPC     H16X     HAL3     0.900000E-01   1.00800           0
     19339 MEMB     146      POPC     H16Y     HAL3     0.900000E-01   1.00800           0
     19340 MEMB     146      POPC     H16Z     HAL3     0.900000E-01   1.00800           0
     19341 MEMB     147      POPS     N        NH3L    -0.300000       14.0070           0
     19342 MEMB     147      POPS     HN1      HCL      0.330000       1.00800           0
     19343 MEMB     147      POPS     HN2      HCL      0.330000       1.00800           0
     19344 MEMB     147      POPS     HN3      HCL      0.330000       1.00800           0
     19345 MEMB     147      POPS     C12      CTL1     0.210000       12.0110           0
     19346 MEMB     147      POPS     H12A     HBL      0.100000       1.00800           0
     19347 MEMB     147      POPS     C13      CCL      0.340000       12.0110           0
     19348 MEMB     147      POPS     O13A     OCL     -0.670000       15.9994           0
     19349 MEMB     147      POPS     O13B     OCL     -0.670000       15.9994           0
     19350 MEMB     147      POPS     C11      CTL2    -0.800000E-01   12.0110           0
     19351 MEMB     147      POPS     H11A     HAL2     0.900000E-01   1.00800           0
     19352 MEMB     147      POPS     H11B     HAL2     0.900000E-01   1.00800           0
     19353 MEMB     147      POPS     P        PL        1.50000       30.9740           0
     19354 MEMB     147      POPS     O13      O2L     -0.780000       15.9994           0
     19355 MEMB     147      POPS     O14      O2L     -0.780000       15.9994           0
     19356 MEMB     147      POPS     O12      OSLP    -0.570000       15.9994           0
     19357 MEMB     147      POPS     O11      OSLP    -0.570000       15.9994           0
     19358 MEMB     147      POPS     C1       CTL2    -0.800000E-01   12.0110           0
     19359 MEMB     147      POPS     HA       HAL2     0.900000E-01   1.00800           0
     19360 MEMB     147      POPS     HB       HAL2     0.900000E-01   1.00800           0
     19361 MEMB     147      POPS     C2       CTL1     0.170000       12.0110           0
     19362 MEMB     147      POPS     HS       HAL1     0.900000E-01   1.00800           0
     19363 MEMB     147      POPS     O21      OSL     -0.490000       15.9994           0
     19364 MEMB     147      POPS     C21      CL       0.900000       12.0110           0
     19365 MEMB     147      POPS     O22      OBL     -0.630000       15.9994           0
     19366 MEMB     147      POPS     C22      CTL2    -0.220000       12.0110           0
     19367 MEMB     147      POPS     H2R      HAL2     0.900000E-01   1.00800           0
     19368 MEMB     147      POPS     H2S      HAL2     0.900000E-01   1.00800           0
     19369 MEMB     147      POPS     C3       CTL2     0.800000E-01   12.0110           0
     19370 MEMB     147      POPS     HX       HAL2     0.900000E-01   1.00800           0
     19371 MEMB     147      POPS     HY       HAL2     0.900000E-01   1.00800           0
     19372 MEMB     147      POPS     O31      OSL     -0.490000       15.9994           0
     19373 MEMB     147      POPS     C31      CL       0.900000       12.0110           0
     19374 MEMB     147      POPS     O32      OBL     -0.630000       15.9994           0
     19375 MEMB     147      POPS     C32      CTL2    -0.220000       12.0110           0
     19376 MEMB     147      POPS     H2X      HAL2     0.900000E-01   1.00800           0
     19377 MEMB     147      POPS     H2Y      HAL2     0.900000E-01   1.00800           0
     19378 MEMB     147      POPS     C23      CTL2    -0.180000       12.0110           0
     19379 MEMB     147      POPS     H3R      HAL2     0.900000E-01   1.00800           0
     19380 MEMB     147      POPS     H3S      HAL2     0.900000E-01   1.00800           0
     19381 MEMB     147      POPS     C24      CTL2    -0.180000       12.0110           0
     19382 MEMB     147      POPS     H4R      HAL2     0.900000E-01   1.00800           0
     19383 MEMB     147      POPS     H4S      HAL2     0.900000E-01   1.00800           0
     19384 MEMB     147      POPS     C25      CTL2    -0.180000       12.0110           0
     19385 MEMB     147      POPS     H5R      HAL2     0.900000E-01   1.00800           0
     19386 MEMB     147      POPS     H5S      HAL2     0.900000E-01   1.00800           0
     19387 MEMB     147      POPS     C26      CTL2    -0.180000       12.0110           0
     19388 MEMB     147      POPS     H6R      HAL2     0.900000E-01   1.00800           0
     19389 MEMB     147      POPS     H6S      HAL2     0.900000E-01   1.00800           0
     19390 MEMB     147      POPS     C27      CTL2    -0.180000       12.0110           0
     19391 MEMB     147      POPS     H7R      HAL2     0.900000E-01   1.00800           0
     19392 MEMB     147      POPS     H7S      HAL2     0.900000E-01   1.00800           0
     19393 MEMB     147      POPS     C28      CTL2    -0.180000       12.0110           0
     19394 MEMB     147      POPS     H8R      HAL2     0.900000E-01   1.00800           0
     19395 MEMB     147      POPS     H8S      HAL2     0.900000E-01   1.00800           0
     19396 MEMB     147      POPS     C29      CEL1    -0.150000       12.0110           0
     19397 MEMB     147      POPS     H91      HEL1     0.150000       1.00800           0
     19398 MEMB     147      POPS     C210     CEL1    -0.150000       12.0110           0
     19399 MEMB     147      POPS     H101     HEL1     0.150000       1.00800           0
     19400 MEMB     147      POPS     C211     CTL2    -0.180000       12.0110           0
     19401 MEMB     147      POPS     H11R     HAL2     0.900000E-01   1.00800           0
     19402 MEMB     147      POPS     H11S     HAL2     0.900000E-01   1.00800           0
     19403 MEMB     147      POPS     C212     CTL2    -0.180000       12.0110           0
     19404 MEMB     147      POPS     H12R     HAL2     0.900000E-01   1.00800           0
     19405 MEMB     147      POPS     H12S     HAL2     0.900000E-01   1.00800           0
     19406 MEMB     147      POPS     C213     CTL2    -0.180000       12.0110           0
     19407 MEMB     147      POPS     H13R     HAL2     0.900000E-01   1.00800           0
     19408 MEMB     147      POPS     H13S     HAL2     0.900000E-01   1.00800           0
     19409 MEMB     147      POPS     C214     CTL2    -0.180000       12.0110           0
     19410 MEMB     147      POPS     H14R     HAL2     0.900000E-01   1.00800           0
     19411 MEMB     147      POPS     H14S     HAL2     0.900000E-01   1.00800           0
     19412 MEMB     147      POPS     C215     CTL2    -0.180000       12.0110           0
     19413 MEMB     147      POPS     H15R     HAL2     0.900000E-01   1.00800           0
     19414 MEMB     147      POPS     H15S     HAL2     0.900000E-01   1.00800           0
     19415 MEMB     147      POPS     C216     CTL2    -0.180000       12.0110           0
     19416 MEMB     147      POPS     H16R     HAL2     0.900000E-01   1.00800           0
     19417 MEMB     147      POPS     H16S     HAL2     0.900000E-01   1.00800           0
     19418 MEMB     147      POPS     C217     CTL2    -0.180000       12.0110           0
     19419 MEMB     147      POPS     H17R     HAL2     0.900000E-01   1.00800           0
     19420 MEMB     147      POPS     H17S     HAL2     0.900000E-01   1.00800           0
     19421 MEMB     147      POPS     C218     CTL3    -0.270000       12.0110           0
     19422 MEMB     147      POPS     H18R     HAL3     0.900000E-01   1.00800           0
     19423 MEMB     147      POPS     H18S     HAL3     0.900000E-01   1.00800           0
     19424 MEMB     147      POPS     H18T     HAL3     0.900000E-01   1.00800           0
     19425 MEMB     147      POPS     C33      CTL2    -0.180000       12.0110           0
     19426 MEMB     147      POPS     H3X      HAL2     0.900000E-01   1.00800           0
     19427 MEMB     147      POPS     H3Y      HAL2     0.900000E-01   1.00800           0
     19428 MEMB     147      POPS     C34      CTL2    -0.180000       12.0110           0
     19429 MEMB     147      POPS     H4X      HAL2     0.900000E-01   1.00800           0
     19430 MEMB     147      POPS     H4Y      HAL2     0.900000E-01   1.00800           0
     19431 MEMB     147      POPS     C35      CTL2    -0.180000       12.0110           0
     19432 MEMB     147      POPS     H5X      HAL2     0.900000E-01   1.00800           0
     19433 MEMB     147      POPS     H5Y      HAL2     0.900000E-01   1.00800           0
     19434 MEMB     147      POPS     C36      CTL2    -0.180000       12.0110           0
     19435 MEMB     147      POPS     H6X      HAL2     0.900000E-01   1.00800           0
     19436 MEMB     147      POPS     H6Y      HAL2     0.900000E-01   1.00800           0
     19437 MEMB     147      POPS     C37      CTL2    -0.180000       12.0110           0
     19438 MEMB     147      POPS     H7X      HAL2     0.900000E-01   1.00800           0
     19439 MEMB     147      POPS     H7Y      HAL2     0.900000E-01   1.00800           0
     19440 MEMB     147      POPS     C38      CTL2    -0.180000       12.0110           0
     19441 MEMB     147      POPS     H8X      HAL2     0.900000E-01   1.00800           0
     19442 MEMB     147      POPS     H8Y      HAL2     0.900000E-01   1.00800           0
     19443 MEMB     147      POPS     C39      CTL2    -0.180000       12.0110           0
     19444 MEMB     147      POPS     H9X      HAL2     0.900000E-01   1.00800           0
     19445 MEMB     147      POPS     H9Y      HAL2     0.900000E-01   1.00800           0
     19446 MEMB     147      POPS     C310     CTL2    -0.180000       12.0110           0
     19447 MEMB     147      POPS     H10X     HAL2     0.900000E-01   1.00800           0
     19448 MEMB     147      POPS     H10Y     HAL2     0.900000E-01   1.00800           0
     19449 MEMB     147      POPS     C311     CTL2    -0.180000       12.0110           0
     19450 MEMB     147      POPS     H11X     HAL2     0.900000E-01   1.00800           0
     19451 MEMB     147      POPS     H11Y     HAL2     0.900000E-01   1.00800           0
     19452 MEMB     147      POPS     C312     CTL2    -0.180000       12.0110           0
     19453 MEMB     147      POPS     H12X     HAL2     0.900000E-01   1.00800           0
     19454 MEMB     147      POPS     H12Y     HAL2     0.900000E-01   1.00800           0
     19455 MEMB     147      POPS     C313     CTL2    -0.180000       12.0110           0
     19456 MEMB     147      POPS     H13X     HAL2     0.900000E-01   1.00800           0
     19457 MEMB     147      POPS     H13Y     HAL2     0.900000E-01   1.00800           0
     19458 MEMB     147      POPS     C314     CTL2    -0.180000       12.0110           0
     19459 MEMB     147      POPS     H14X     HAL2     0.900000E-01   1.00800           0
     19460 MEMB     147      POPS     H14Y     HAL2     0.900000E-01   1.00800           0
     19461 MEMB     147      POPS     C315     CTL2    -0.180000       12.0110           0
     19462 MEMB     147      POPS     H15X     HAL2     0.900000E-01   1.00800           0
     19463 MEMB     147      POPS     H15Y     HAL2     0.900000E-01   1.00800           0
     19464 MEMB     147      POPS     C316     CTL3    -0.270000       12.0110           0
     19465 MEMB     147      POPS     H16X     HAL3     0.900000E-01   1.00800           0
     19466 MEMB     147      POPS     H16Y     HAL3     0.900000E-01   1.00800           0
     19467 MEMB     147      POPS     H16Z     HAL3     0.900000E-01   1.00800           0
     19468 MEMB     148      POPC     N        NTL     -0.600000       14.0070           0
     19469 MEMB     148      POPC     C12      CTL2    -0.100000       12.0110           0
     19470 MEMB     148      POPC     H12A     HL       0.250000       1.00800           0
     19471 MEMB     148      POPC     H12B     HL       0.250000       1.00800           0
     19472 MEMB     148      POPC     C13      CTL5    -0.350000       12.0110           0
     19473 MEMB     148      POPC     H13A     HL       0.250000       1.00800           0
     19474 MEMB     148      POPC     H13B     HL       0.250000       1.00800           0
     19475 MEMB     148      POPC     H13C     HL       0.250000       1.00800           0
     19476 MEMB     148      POPC     C14      CTL5    -0.350000       12.0110           0
     19477 MEMB     148      POPC     H14A     HL       0.250000       1.00800           0
     19478 MEMB     148      POPC     H14B     HL       0.250000       1.00800           0
     19479 MEMB     148      POPC     H14C     HL       0.250000       1.00800           0
     19480 MEMB     148      POPC     C15      CTL5    -0.350000       12.0110           0
     19481 MEMB     148      POPC     H15A     HL       0.250000       1.00800           0
     19482 MEMB     148      POPC     H15B     HL       0.250000       1.00800           0
     19483 MEMB     148      POPC     H15C     HL       0.250000       1.00800           0
     19484 MEMB     148      POPC     C11      CTL2    -0.800000E-01   12.0110           0
     19485 MEMB     148      POPC     H11A     HAL2     0.900000E-01   1.00800           0
     19486 MEMB     148      POPC     H11B     HAL2     0.900000E-01   1.00800           0
     19487 MEMB     148      POPC     P        PL        1.50000       30.9740           0
     19488 MEMB     148      POPC     O13      O2L     -0.780000       15.9994           0
     19489 MEMB     148      POPC     O14      O2L     -0.780000       15.9994           0
     19490 MEMB     148      POPC     O12      OSLP    -0.570000       15.9994           0
     19491 MEMB     148      POPC     O11      OSLP    -0.570000       15.9994           0
     19492 MEMB     148      POPC     C1       CTL2    -0.800000E-01   12.0110           0
     19493 MEMB     148      POPC     HA       HAL2     0.900000E-01   1.00800           0
     19494 MEMB     148      POPC     HB       HAL2     0.900000E-01   1.00800           0
     19495 MEMB     148      POPC     C2       CTL1     0.170000       12.0110           0
     19496 MEMB     148      POPC     HS       HAL1     0.900000E-01   1.00800           0
     19497 MEMB     148      POPC     O21      OSL     -0.490000       15.9994           0
     19498 MEMB     148      POPC     C21      CL       0.900000       12.0110           0
     19499 MEMB     148      POPC     O22      OBL     -0.630000       15.9994           0
     19500 MEMB     148      POPC     C22      CTL2    -0.220000       12.0110           0
     19501 MEMB     148      POPC     H2R      HAL2     0.900000E-01   1.00800           0
     19502 MEMB     148      POPC     H2S      HAL2     0.900000E-01   1.00800           0
     19503 MEMB     148      POPC     C3       CTL2     0.800000E-01   12.0110           0
     19504 MEMB     148      POPC     HX       HAL2     0.900000E-01   1.00800           0
     19505 MEMB     148      POPC     HY       HAL2     0.900000E-01   1.00800           0
     19506 MEMB     148      POPC     O31      OSL     -0.490000       15.9994           0
     19507 MEMB     148      POPC     C31      CL       0.900000       12.0110           0
     19508 MEMB     148      POPC     O32      OBL     -0.630000       15.9994           0
     19509 MEMB     148      POPC     C32      CTL2    -0.220000       12.0110           0
     19510 MEMB     148      POPC     H2X      HAL2     0.900000E-01   1.00800           0
     19511 MEMB     148      POPC     H2Y      HAL2     0.900000E-01   1.00800           0
     19512 MEMB     148      POPC     C23      CTL2    -0.180000       12.0110           0
     19513 MEMB     148      POPC     H3R      HAL2     0.900000E-01   1.00800           0
     19514 MEMB     148      POPC     H3S      HAL2     0.900000E-01   1.00800           0
     19515 MEMB     148      POPC     C24      CTL2    -0.180000       12.0110           0
     19516 MEMB     148      POPC     H4R      HAL2     0.900000E-01   1.00800           0
     19517 MEMB     148      POPC     H4S      HAL2     0.900000E-01   1.00800           0
     19518 MEMB     148      POPC     C25      CTL2    -0.180000       12.0110           0
     19519 MEMB     148      POPC     H5R      HAL2     0.900000E-01   1.00800           0
     19520 MEMB     148      POPC     H5S      HAL2     0.900000E-01   1.00800           0
     19521 MEMB     148      POPC     C26      CTL2    -0.180000       12.0110           0
     19522 MEMB     148      POPC     H6R      HAL2     0.900000E-01   1.00800           0
     19523 MEMB     148      POPC     H6S      HAL2     0.900000E-01   1.00800           0
     19524 MEMB     148      POPC     C27      CTL2    -0.180000       12.0110           0
     19525 MEMB     148      POPC     H7R      HAL2     0.900000E-01   1.00800           0
     19526 MEMB     148      POPC     H7S      HAL2     0.900000E-01   1.00800           0
     19527 MEMB     148      POPC     C28      CTL2    -0.180000       12.0110           0
     19528 MEMB     148      POPC     H8R      HAL2     0.900000E-01   1.00800           0
     19529 MEMB     148      POPC     H8S      HAL2     0.900000E-01   1.00800           0
     19530 MEMB     148      POPC     C29      CEL1    -0.150000       12.0110           0
     19531 MEMB     148      POPC     H91      HEL1     0.150000       1.00800           0
     19532 MEMB     148      POPC     C210     CEL1    -0.150000       12.0110           0
     19533 MEMB     148      POPC     H101     HEL1     0.150000       1.00800           0
     19534 MEMB     148      POPC     C211     CTL2    -0.180000       12.0110           0
     19535 MEMB     148      POPC     H11R     HAL2     0.900000E-01   1.00800           0
     19536 MEMB     148      POPC     H11S     HAL2     0.900000E-01   1.00800           0
     19537 MEMB     148      POPC     C212     CTL2    -0.180000       12.0110           0
     19538 MEMB     148      POPC     H12R     HAL2     0.900000E-01   1.00800           0
     19539 MEMB     148      POPC     H12S     HAL2     0.900000E-01   1.00800           0
     19540 MEMB     148      POPC     C213     CTL2    -0.180000       12.0110           0
     19541 MEMB     148      POPC     H13R     HAL2     0.900000E-01   1.00800           0
     19542 MEMB     148      POPC     H13S     HAL2     0.900000E-01   1.00800           0
     19543 MEMB     148      POPC     C214     CTL2    -0.180000       12.0110           0
     19544 MEMB     148      POPC     H14R     HAL2     0.900000E-01   1.00800           0
     19545 MEMB     148      POPC     H14S     HAL2     0.900000E-01   1.00800           0
     19546 MEMB     148      POPC     C215     CTL2    -0.180000       12.0110           0
     19547 MEMB     148      POPC     H15R     HAL2     0.900000E-01   1.00800           0
     19548 MEMB     148      POPC     H15S     HAL2     0.900000E-01   1.00800           0
     19549 MEMB     148      POPC     C216     CTL2    -0.180000       12.0110           0
     19550 MEMB     148      POPC     H16R     HAL2     0.900000E-01   1.00800           0
     19551 MEMB     148      POPC     H16S     HAL2     0.900000E-01   1.00800           0
     19552 MEMB     148      POPC     C217     CTL2    -0.180000       12.0110           0
     19553 MEMB     148      POPC     H17R     HAL2     0.900000E-01   1.00800           0
     19554 MEMB     148      POPC     H17S     HAL2     0.900000E-01   1.00800           0
     19555 MEMB     148      POPC     C218     CTL3    -0.270000       12.0110           0
     19556 MEMB     148      POPC     H18R     HAL3     0.900000E-01   1.00800           0
     19557 MEMB     148      POPC     H18S     HAL3     0.900000E-01   1.00800           0
     19558 MEMB     148      POPC     H18T     HAL3     0.900000E-01   1.00800           0
     19559 MEMB     148      POPC     C33      CTL2    -0.180000       12.0110           0
     19560 MEMB     148      POPC     H3X      HAL2     0.900000E-01   1.00800           0
     19561 MEMB     148      POPC     H3Y      HAL2     0.900000E-01   1.00800           0
     19562 MEMB     148      POPC     C34      CTL2    -0.180000       12.0110           0
     19563 MEMB     148      POPC     H4X      HAL2     0.900000E-01   1.00800           0
     19564 MEMB     148      POPC     H4Y      HAL2     0.900000E-01   1.00800           0
     19565 MEMB     148      POPC     C35      CTL2    -0.180000       12.0110           0
     19566 MEMB     148      POPC     H5X      HAL2     0.900000E-01   1.00800           0
     19567 MEMB     148      POPC     H5Y      HAL2     0.900000E-01   1.00800           0
     19568 MEMB     148      POPC     C36      CTL2    -0.180000       12.0110           0
     19569 MEMB     148      POPC     H6X      HAL2     0.900000E-01   1.00800           0
     19570 MEMB     148      POPC     H6Y      HAL2     0.900000E-01   1.00800           0
     19571 MEMB     148      POPC     C37      CTL2    -0.180000       12.0110           0
     19572 MEMB     148      POPC     H7X      HAL2     0.900000E-01   1.00800           0
     19573 MEMB     148      POPC     H7Y      HAL2     0.900000E-01   1.00800           0
     19574 MEMB     148      POPC     C38      CTL2    -0.180000       12.0110           0
     19575 MEMB     148      POPC     H8X      HAL2     0.900000E-01   1.00800           0
     19576 MEMB     148      POPC     H8Y      HAL2     0.900000E-01   1.00800           0
     19577 MEMB     148      POPC     C39      CTL2    -0.180000       12.0110           0
     19578 MEMB     148      POPC     H9X      HAL2     0.900000E-01   1.00800           0
     19579 MEMB     148      POPC     H9Y      HAL2     0.900000E-01   1.00800           0
     19580 MEMB     148      POPC     C310     CTL2    -0.180000       12.0110           0
     19581 MEMB     148      POPC     H10X     HAL2     0.900000E-01   1.00800           0
     19582 MEMB     148      POPC     H10Y     HAL2     0.900000E-01   1.00800           0
     19583 MEMB     148      POPC     C311     CTL2    -0.180000       12.0110           0
     19584 MEMB     148      POPC     H11X     HAL2     0.900000E-01   1.00800           0
     19585 MEMB     148      POPC     H11Y     HAL2     0.900000E-01   1.00800           0
     19586 MEMB     148      POPC     C312     CTL2    -0.180000       12.0110           0
     19587 MEMB     148      POPC     H12X     HAL2     0.900000E-01   1.00800           0
     19588 MEMB     148      POPC     H12Y     HAL2     0.900000E-01   1.00800           0
     19589 MEMB     148      POPC     C313     CTL2    -0.180000       12.0110           0
     19590 MEMB     148      POPC     H13X     HAL2     0.900000E-01   1.00800           0
     19591 MEMB     148      POPC     H13Y     HAL2     0.900000E-01   1.00800           0
     19592 MEMB     148      POPC     C314     CTL2    -0.180000       12.0110           0
     19593 MEMB     148      POPC     H14X     HAL2     0.900000E-01   1.00800           0
     19594 MEMB     148      POPC     H14Y     HAL2     0.900000E-01   1.00800           0
     19595 MEMB     148      POPC     C315     CTL2    -0.180000       12.0110           0
     19596 MEMB     148      POPC     H15X     HAL2     0.900000E-01   1.00800           0
     19597 MEMB     148      POPC     H15Y     HAL2     0.900000E-01   1.00800           0
     19598 MEMB     148      POPC     C316     CTL3    -0.270000       12.0110           0
     19599 MEMB     148      POPC     H16X     HAL3     0.900000E-01   1.00800           0
     19600 MEMB     148      POPC     H16Y     HAL3     0.900000E-01   1.00800           0
     19601 MEMB     148      POPC     H16Z     HAL3     0.900000E-01   1.00800           0
     19602 MEMB     149      POPC     N        NTL     -0.600000       14.0070           0
     19603 MEMB     149      POPC     C12      CTL2    -0.100000       12.0110           0
     19604 MEMB     149      POPC     H12A     HL       0.250000       1.00800           0
     19605 MEMB     149      POPC     H12B     HL       0.250000       1.00800           0
     19606 MEMB     149      POPC     C13      CTL5    -0.350000       12.0110           0
     19607 MEMB     149      POPC     H13A     HL       0.250000       1.00800           0
     19608 MEMB     149      POPC     H13B     HL       0.250000       1.00800           0
     19609 MEMB     149      POPC     H13C     HL       0.250000       1.00800           0
     19610 MEMB     149      POPC     C14      CTL5    -0.350000       12.0110           0
     19611 MEMB     149      POPC     H14A     HL       0.250000       1.00800           0
     19612 MEMB     149      POPC     H14B     HL       0.250000       1.00800           0
     19613 MEMB     149      POPC     H14C     HL       0.250000       1.00800           0
     19614 MEMB     149      POPC     C15      CTL5    -0.350000       12.0110           0
     19615 MEMB     149      POPC     H15A     HL       0.250000       1.00800           0
     19616 MEMB     149      POPC     H15B     HL       0.250000       1.00800           0
     19617 MEMB     149      POPC     H15C     HL       0.250000       1.00800           0
     19618 MEMB     149      POPC     C11      CTL2    -0.800000E-01   12.0110           0
     19619 MEMB     149      POPC     H11A     HAL2     0.900000E-01   1.00800           0
     19620 MEMB     149      POPC     H11B     HAL2     0.900000E-01   1.00800           0
     19621 MEMB     149      POPC     P        PL        1.50000       30.9740           0
     19622 MEMB     149      POPC     O13      O2L     -0.780000       15.9994           0
     19623 MEMB     149      POPC     O14      O2L     -0.780000       15.9994           0
     19624 MEMB     149      POPC     O12      OSLP    -0.570000       15.9994           0
     19625 MEMB     149      POPC     O11      OSLP    -0.570000       15.9994           0
     19626 MEMB     149      POPC     C1       CTL2    -0.800000E-01   12.0110           0
     19627 MEMB     149      POPC     HA       HAL2     0.900000E-01   1.00800           0
     19628 MEMB     149      POPC     HB       HAL2     0.900000E-01   1.00800           0
     19629 MEMB     149      POPC     C2       CTL1     0.170000       12.0110           0
     19630 MEMB     149      POPC     HS       HAL1     0.900000E-01   1.00800           0
     19631 MEMB     149      POPC     O21      OSL     -0.490000       15.9994           0
     19632 MEMB     149      POPC     C21      CL       0.900000       12.0110           0
     19633 MEMB     149      POPC     O22      OBL     -0.630000       15.9994           0
     19634 MEMB     149      POPC     C22      CTL2    -0.220000       12.0110           0
     19635 MEMB     149      POPC     H2R      HAL2     0.900000E-01   1.00800           0
     19636 MEMB     149      POPC     H2S      HAL2     0.900000E-01   1.00800           0
     19637 MEMB     149      POPC     C3       CTL2     0.800000E-01   12.0110           0
     19638 MEMB     149      POPC     HX       HAL2     0.900000E-01   1.00800           0
     19639 MEMB     149      POPC     HY       HAL2     0.900000E-01   1.00800           0
     19640 MEMB     149      POPC     O31      OSL     -0.490000       15.9994           0
     19641 MEMB     149      POPC     C31      CL       0.900000       12.0110           0
     19642 MEMB     149      POPC     O32      OBL     -0.630000       15.9994           0
     19643 MEMB     149      POPC     C32      CTL2    -0.220000       12.0110           0
     19644 MEMB     149      POPC     H2X      HAL2     0.900000E-01   1.00800           0
     19645 MEMB     149      POPC     H2Y      HAL2     0.900000E-01   1.00800           0
     19646 MEMB     149      POPC     C23      CTL2    -0.180000       12.0110           0
     19647 MEMB     149      POPC     H3R      HAL2     0.900000E-01   1.00800           0
     19648 MEMB     149      POPC     H3S      HAL2     0.900000E-01   1.00800           0
     19649 MEMB     149      POPC     C24      CTL2    -0.180000       12.0110           0
     19650 MEMB     149      POPC     H4R      HAL2     0.900000E-01   1.00800           0
     19651 MEMB     149      POPC     H4S      HAL2     0.900000E-01   1.00800           0
     19652 MEMB     149      POPC     C25      CTL2    -0.180000       12.0110           0
     19653 MEMB     149      POPC     H5R      HAL2     0.900000E-01   1.00800           0
     19654 MEMB     149      POPC     H5S      HAL2     0.900000E-01   1.00800           0
     19655 MEMB     149      POPC     C26      CTL2    -0.180000       12.0110           0
     19656 MEMB     149      POPC     H6R      HAL2     0.900000E-01   1.00800           0
     19657 MEMB     149      POPC     H6S      HAL2     0.900000E-01   1.00800           0
     19658 MEMB     149      POPC     C27      CTL2    -0.180000       12.0110           0
     19659 MEMB     149      POPC     H7R      HAL2     0.900000E-01   1.00800           0
     19660 MEMB     149      POPC     H7S      HAL2     0.900000E-01   1.00800           0
     19661 MEMB     149      POPC     C28      CTL2    -0.180000       12.0110           0
     19662 MEMB     149      POPC     H8R      HAL2     0.900000E-01   1.00800           0
     19663 MEMB     149      POPC     H8S      HAL2     0.900000E-01   1.00800           0
     19664 MEMB     149      POPC     C29      CEL1    -0.150000       12.0110           0
     19665 MEMB     149      POPC     H91      HEL1     0.150000       1.00800           0
     19666 MEMB     149      POPC     C210     CEL1    -0.150000       12.0110           0
     19667 MEMB     149      POPC     H101     HEL1     0.150000       1.00800           0
     19668 MEMB     149      POPC     C211     CTL2    -0.180000       12.0110           0
     19669 MEMB     149      POPC     H11R     HAL2     0.900000E-01   1.00800           0
     19670 MEMB     149      POPC     H11S     HAL2     0.900000E-01   1.00800           0
     19671 MEMB     149      POPC     C212     CTL2    -0.180000       12.0110           0
     19672 MEMB     149      POPC     H12R     HAL2     0.900000E-01   1.00800           0
     19673 MEMB     149      POPC     H12S     HAL2     0.900000E-01   1.00800           0
     19674 MEMB     149      POPC     C213     CTL2    -0.180000       12.0110           0
     19675 MEMB     149      POPC     H13R     HAL2     0.900000E-01   1.00800           0
     19676 MEMB     149      POPC     H13S     HAL2     0.900000E-01   1.00800           0
     19677 MEMB     149      POPC     C214     CTL2    -0.180000       12.0110           0
     19678 MEMB     149      POPC     H14R     HAL2     0.900000E-01   1.00800           0
     19679 MEMB     149      POPC     H14S     HAL2     0.900000E-01   1.00800           0
     19680 MEMB     149      POPC     C215     CTL2    -0.180000       12.0110           0
     19681 MEMB     149      POPC     H15R     HAL2     0.900000E-01   1.00800           0
     19682 MEMB     149      POPC     H15S     HAL2     0.900000E-01   1.00800           0
     19683 MEMB     149      POPC     C216     CTL2    -0.180000       12.0110           0
     19684 MEMB     149      POPC     H16R     HAL2     0.900000E-01   1.00800           0
     19685 MEMB     149      POPC     H16S     HAL2     0.900000E-01   1.00800           0
     19686 MEMB     149      POPC     C217     CTL2    -0.180000       12.0110           0
     19687 MEMB     149      POPC     H17R     HAL2     0.900000E-01   1.00800           0
     19688 MEMB     149      POPC     H17S     HAL2     0.900000E-01   1.00800           0
     19689 MEMB     149      POPC     C218     CTL3    -0.270000       12.0110           0
     19690 MEMB     149      POPC     H18R     HAL3     0.900000E-01   1.00800           0
     19691 MEMB     149      POPC     H18S     HAL3     0.900000E-01   1.00800           0
     19692 MEMB     149      POPC     H18T     HAL3     0.900000E-01   1.00800           0
     19693 MEMB     149      POPC     C33      CTL2    -0.180000       12.0110           0
     19694 MEMB     149      POPC     H3X      HAL2     0.900000E-01   1.00800           0
     19695 MEMB     149      POPC     H3Y      HAL2     0.900000E-01   1.00800           0
     19696 MEMB     149      POPC     C34      CTL2    -0.180000       12.0110           0
     19697 MEMB     149      POPC     H4X      HAL2     0.900000E-01   1.00800           0
     19698 MEMB     149      POPC     H4Y      HAL2     0.900000E-01   1.00800           0
     19699 MEMB     149      POPC     C35      CTL2    -0.180000       12.0110           0
     19700 MEMB     149      POPC     H5X      HAL2     0.900000E-01   1.00800           0
     19701 MEMB     149      POPC     H5Y      HAL2     0.900000E-01   1.00800           0
     19702 MEMB     149      POPC     C36      CTL2    -0.180000       12.0110           0
     19703 MEMB     149      POPC     H6X      HAL2     0.900000E-01   1.00800           0
     19704 MEMB     149      POPC     H6Y      HAL2     0.900000E-01   1.00800           0
     19705 MEMB     149      POPC     C37      CTL2    -0.180000       12.0110           0
     19706 MEMB     149      POPC     H7X      HAL2     0.900000E-01   1.00800           0
     19707 MEMB     149      POPC     H7Y      HAL2     0.900000E-01   1.00800           0
     19708 MEMB     149      POPC     C38      CTL2    -0.180000       12.0110           0
     19709 MEMB     149      POPC     H8X      HAL2     0.900000E-01   1.00800           0
     19710 MEMB     149      POPC     H8Y      HAL2     0.900000E-01   1.00800           0
     19711 MEMB     149      POPC     C39      CTL2    -0.180000       12.0110           0
     19712 MEMB     149      POPC     H9X      HAL2     0.900000E-01   1.00800           0
     19713 MEMB     149      POPC     H9Y      HAL2     0.900000E-01   1.00800           0
     19714 MEMB     149      POPC     C310     CTL2    -0.180000       12.0110           0
     19715 MEMB     149      POPC     H10X     HAL2     0.900000E-01   1.00800           0
     19716 MEMB     149      POPC     H10Y     HAL2     0.900000E-01   1.00800           0
     19717 MEMB     149      POPC     C311     CTL2    -0.180000       12.0110           0
     19718 MEMB     149      POPC     H11X     HAL2     0.900000E-01   1.00800           0
     19719 MEMB     149      POPC     H11Y     HAL2     0.900000E-01   1.00800           0
     19720 MEMB     149      POPC     C312     CTL2    -0.180000       12.0110           0
     19721 MEMB     149      POPC     H12X     HAL2     0.900000E-01   1.00800           0
     19722 MEMB     149      POPC     H12Y     HAL2     0.900000E-01   1.00800           0
     19723 MEMB     149      POPC     C313     CTL2    -0.180000       12.0110           0
     19724 MEMB     149      POPC     H13X     HAL2     0.900000E-01   1.00800           0
     19725 MEMB     149      POPC     H13Y     HAL2     0.900000E-01   1.00800           0
     19726 MEMB     149      POPC     C314     CTL2    -0.180000       12.0110           0
     19727 MEMB     149      POPC     H14X     HAL2     0.900000E-01   1.00800           0
     19728 MEMB     149      POPC     H14Y     HAL2     0.900000E-01   1.00800           0
     19729 MEMB     149      POPC     C315     CTL2    -0.180000       12.0110           0
     19730 MEMB     149      POPC     H15X     HAL2     0.900000E-01   1.00800           0
     19731 MEMB     149      POPC     H15Y     HAL2     0.900000E-01   1.00800           0
     19732 MEMB     149      POPC     C316     CTL3    -0.270000       12.0110           0
     19733 MEMB     149      POPC     H16X     HAL3     0.900000E-01   1.00800           0
     19734 MEMB     149      POPC     H16Y     HAL3     0.900000E-01   1.00800           0
     19735 MEMB     149      POPC     H16Z     HAL3     0.900000E-01   1.00800           0
     19736 MEMB     150      POPC     N        NTL     -0.600000       14.0070           0
     19737 MEMB     150      POPC     C12      CTL2    -0.100000       12.0110           0
     19738 MEMB     150      POPC     H12A     HL       0.250000       1.00800           0
     19739 MEMB     150      POPC     H12B     HL       0.250000       1.00800           0
     19740 MEMB     150      POPC     C13      CTL5    -0.350000       12.0110           0
     19741 MEMB     150      POPC     H13A     HL       0.250000       1.00800           0
     19742 MEMB     150      POPC     H13B     HL       0.250000       1.00800           0
     19743 MEMB     150      POPC     H13C     HL       0.250000       1.00800           0
     19744 MEMB     150      POPC     C14      CTL5    -0.350000       12.0110           0
     19745 MEMB     150      POPC     H14A     HL       0.250000       1.00800           0
     19746 MEMB     150      POPC     H14B     HL       0.250000       1.00800           0
     19747 MEMB     150      POPC     H14C     HL       0.250000       1.00800           0
     19748 MEMB     150      POPC     C15      CTL5    -0.350000       12.0110           0
     19749 MEMB     150      POPC     H15A     HL       0.250000       1.00800           0
     19750 MEMB     150      POPC     H15B     HL       0.250000       1.00800           0
     19751 MEMB     150      POPC     H15C     HL       0.250000       1.00800           0
     19752 MEMB     150      POPC     C11      CTL2    -0.800000E-01   12.0110           0
     19753 MEMB     150      POPC     H11A     HAL2     0.900000E-01   1.00800           0
     19754 MEMB     150      POPC     H11B     HAL2     0.900000E-01   1.00800           0
     19755 MEMB     150      POPC     P        PL        1.50000       30.9740           0
     19756 MEMB     150      POPC     O13      O2L     -0.780000       15.9994           0
     19757 MEMB     150      POPC     O14      O2L     -0.780000       15.9994           0
     19758 MEMB     150      POPC     O12      OSLP    -0.570000       15.9994           0
     19759 MEMB     150      POPC     O11      OSLP    -0.570000       15.9994           0
     19760 MEMB     150      POPC     C1       CTL2    -0.800000E-01   12.0110           0
     19761 MEMB     150      POPC     HA       HAL2     0.900000E-01   1.00800           0
     19762 MEMB     150      POPC     HB       HAL2     0.900000E-01   1.00800           0
     19763 MEMB     150      POPC     C2       CTL1     0.170000       12.0110           0
     19764 MEMB     150      POPC     HS       HAL1     0.900000E-01   1.00800           0
     19765 MEMB     150      POPC     O21      OSL     -0.490000       15.9994           0
     19766 MEMB     150      POPC     C21      CL       0.900000       12.0110           0
     19767 MEMB     150      POPC     O22      OBL     -0.630000       15.9994           0
     19768 MEMB     150      POPC     C22      CTL2    -0.220000       12.0110           0
     19769 MEMB     150      POPC     H2R      HAL2     0.900000E-01   1.00800           0
     19770 MEMB     150      POPC     H2S      HAL2     0.900000E-01   1.00800           0
     19771 MEMB     150      POPC     C3       CTL2     0.800000E-01   12.0110           0
     19772 MEMB     150      POPC     HX       HAL2     0.900000E-01   1.00800           0
     19773 MEMB     150      POPC     HY       HAL2     0.900000E-01   1.00800           0
     19774 MEMB     150      POPC     O31      OSL     -0.490000       15.9994           0
     19775 MEMB     150      POPC     C31      CL       0.900000       12.0110           0
     19776 MEMB     150      POPC     O32      OBL     -0.630000       15.9994           0
     19777 MEMB     150      POPC     C32      CTL2    -0.220000       12.0110           0
     19778 MEMB     150      POPC     H2X      HAL2     0.900000E-01   1.00800           0
     19779 MEMB     150      POPC     H2Y      HAL2     0.900000E-01   1.00800           0
     19780 MEMB     150      POPC     C23      CTL2    -0.180000       12.0110           0
     19781 MEMB     150      POPC     H3R      HAL2     0.900000E-01   1.00800           0
     19782 MEMB     150      POPC     H3S      HAL2     0.900000E-01   1.00800           0
     19783 MEMB     150      POPC     C24      CTL2    -0.180000       12.0110           0
     19784 MEMB     150      POPC     H4R      HAL2     0.900000E-01   1.00800           0
     19785 MEMB     150      POPC     H4S      HAL2     0.900000E-01   1.00800           0
     19786 MEMB     150      POPC     C25      CTL2    -0.180000       12.0110           0
     19787 MEMB     150      POPC     H5R      HAL2     0.900000E-01   1.00800           0
     19788 MEMB     150      POPC     H5S      HAL2     0.900000E-01   1.00800           0
     19789 MEMB     150      POPC     C26      CTL2    -0.180000       12.0110           0
     19790 MEMB     150      POPC     H6R      HAL2     0.900000E-01   1.00800           0
     19791 MEMB     150      POPC     H6S      HAL2     0.900000E-01   1.00800           0
     19792 MEMB     150      POPC     C27      CTL2    -0.180000       12.0110           0
     19793 MEMB     150      POPC     H7R      HAL2     0.900000E-01   1.00800           0
     19794 MEMB     150      POPC     H7S      HAL2     0.900000E-01   1.00800           0
     19795 MEMB     150      POPC     C28      CTL2    -0.180000       12.0110           0
     19796 MEMB     150      POPC     H8R      HAL2     0.900000E-01   1.00800           0
     19797 MEMB     150      POPC     H8S      HAL2     0.900000E-01   1.00800           0
     19798 MEMB     150      POPC     C29      CEL1    -0.150000       12.0110           0
     19799 MEMB     150      POPC     H91      HEL1     0.150000       1.00800           0
     19800 MEMB     150      POPC     C210     CEL1    -0.150000       12.0110           0
     19801 MEMB     150      POPC     H101     HEL1     0.150000       1.00800           0
     19802 MEMB     150      POPC     C211     CTL2    -0.180000       12.0110           0
     19803 MEMB     150      POPC     H11R     HAL2     0.900000E-01   1.00800           0
     19804 MEMB     150      POPC     H11S     HAL2     0.900000E-01   1.00800           0
     19805 MEMB     150      POPC     C212     CTL2    -0.180000       12.0110           0
     19806 MEMB     150      POPC     H12R     HAL2     0.900000E-01   1.00800           0
     19807 MEMB     150      POPC     H12S     HAL2     0.900000E-01   1.00800           0
     19808 MEMB     150      POPC     C213     CTL2    -0.180000       12.0110           0
     19809 MEMB     150      POPC     H13R     HAL2     0.900000E-01   1.00800           0
     19810 MEMB     150      POPC     H13S     HAL2     0.900000E-01   1.00800           0
     19811 MEMB     150      POPC     C214     CTL2    -0.180000       12.0110           0
     19812 MEMB     150      POPC     H14R     HAL2     0.900000E-01   1.00800           0
     19813 MEMB     150      POPC     H14S     HAL2     0.900000E-01   1.00800           0
     19814 MEMB     150      POPC     C215     CTL2    -0.180000       12.0110           0
     19815 MEMB     150      POPC     H15R     HAL2     0.900000E-01   1.00800           0
     19816 MEMB     150      POPC     H15S     HAL2     0.900000E-01   1.00800           0
     19817 MEMB     150      POPC     C216     CTL2    -0.180000       12.0110           0
     19818 MEMB     150      POPC     H16R     HAL2     0.900000E-01   1.00800           0
     19819 MEMB     150      POPC     H16S     HAL2     0.900000E-01   1.00800           0
     19820 MEMB     150      POPC     C217     CTL2    -0.180000       12.0110           0
     19821 MEMB     150      POPC     H17R     HAL2     0.900000E-01   1.00800           0
     19822 MEMB     150      POPC     H17S     HAL2     0.900000E-01   1.00800           0
     19823 MEMB     150      POPC     C218     CTL3    -0.270000       12.0110           0
     19824 MEMB     150      POPC     H18R     HAL3     0.900000E-01   1.00800           0
     19825 MEMB     150      POPC     H18S     HAL3     0.900000E-01   1.00800           0
     19826 MEMB     150      POPC     H18T     HAL3     0.900000E-01   1.00800           0
     19827 MEMB     150      POPC     C33      CTL2    -0.180000       12.0110           0
     19828 MEMB     150      POPC     H3X      HAL2     0.900000E-01   1.00800           0
     19829 MEMB     150      POPC     H3Y      HAL2     0.900000E-01   1.00800           0
     19830 MEMB     150      POPC     C34      CTL2    -0.180000       12.0110           0
     19831 MEMB     150      POPC     H4X      HAL2     0.900000E-01   1.00800           0
     19832 MEMB     150      POPC     H4Y      HAL2     0.900000E-01   1.00800           0
     19833 MEMB     150      POPC     C35      CTL2    -0.180000       12.0110           0
     19834 MEMB     150      POPC     H5X      HAL2     0.900000E-01   1.00800           0
     19835 MEMB     150      POPC     H5Y      HAL2     0.900000E-01   1.00800           0
     19836 MEMB     150      POPC     C36      CTL2    -0.180000       12.0110           0
     19837 MEMB     150      POPC     H6X      HAL2     0.900000E-01   1.00800           0
     19838 MEMB     150      POPC     H6Y      HAL2     0.900000E-01   1.00800           0
     19839 MEMB     150      POPC     C37      CTL2    -0.180000       12.0110           0
     19840 MEMB     150      POPC     H7X      HAL2     0.900000E-01   1.00800           0
     19841 MEMB     150      POPC     H7Y      HAL2     0.900000E-01   1.00800           0
     19842 MEMB     150      POPC     C38      CTL2    -0.180000       12.0110           0
     19843 MEMB     150      POPC     H8X      HAL2     0.900000E-01   1.00800           0
     19844 MEMB     150      POPC     H8Y      HAL2     0.900000E-01   1.00800           0
     19845 MEMB     150      POPC     C39      CTL2    -0.180000       12.0110           0
     19846 MEMB     150      POPC     H9X      HAL2     0.900000E-01   1.00800           0
     19847 MEMB     150      POPC     H9Y      HAL2     0.900000E-01   1.00800           0
     19848 MEMB     150      POPC     C310     CTL2    -0.180000       12.0110           0
     19849 MEMB     150      POPC     H10X     HAL2     0.900000E-01   1.00800           0
     19850 MEMB     150      POPC     H10Y     HAL2     0.900000E-01   1.00800           0
     19851 MEMB     150      POPC     C311     CTL2    -0.180000       12.0110           0
     19852 MEMB     150      POPC     H11X     HAL2     0.900000E-01   1.00800           0
     19853 MEMB     150      POPC     H11Y     HAL2     0.900000E-01   1.00800           0
     19854 MEMB     150      POPC     C312     CTL2    -0.180000       12.0110           0
     19855 MEMB     150      POPC     H12X     HAL2     0.900000E-01   1.00800           0
     19856 MEMB     150      POPC     H12Y     HAL2     0.900000E-01   1.00800           0
     19857 MEMB     150      POPC     C313     CTL2    -0.180000       12.0110           0
     19858 MEMB     150      POPC     H13X     HAL2     0.900000E-01   1.00800           0
     19859 MEMB     150      POPC     H13Y     HAL2     0.900000E-01   1.00800           0
     19860 MEMB     150      POPC     C314     CTL2    -0.180000       12.0110           0
     19861 MEMB     150      POPC     H14X     HAL2     0.900000E-01   1.00800           0
     19862 MEMB     150      POPC     H14Y     HAL2     0.900000E-01   1.00800           0
     19863 MEMB     150      POPC     C315     CTL2    -0.180000       12.0110           0
     19864 MEMB     150      POPC     H15X     HAL2     0.900000E-01   1.00800           0
     19865 MEMB     150      POPC     H15Y     HAL2     0.900000E-01   1.00800           0
     19866 MEMB     150      POPC     C316     CTL3    -0.270000       12.0110           0
     19867 MEMB     150      POPC     H16X     HAL3     0.900000E-01   1.00800           0
     19868 MEMB     150      POPC     H16Y     HAL3     0.900000E-01   1.00800           0
     19869 MEMB     150      POPC     H16Z     HAL3     0.900000E-01   1.00800           0
     19870 MEMB     151      POPC     N        NTL     -0.600000       14.0070           0
     19871 MEMB     151      POPC     C12      CTL2    -0.100000       12.0110           0
     19872 MEMB     151      POPC     H12A     HL       0.250000       1.00800           0
     19873 MEMB     151      POPC     H12B     HL       0.250000       1.00800           0
     19874 MEMB     151      POPC     C13      CTL5    -0.350000       12.0110           0
     19875 MEMB     151      POPC     H13A     HL       0.250000       1.00800           0
     19876 MEMB     151      POPC     H13B     HL       0.250000       1.00800           0
     19877 MEMB     151      POPC     H13C     HL       0.250000       1.00800           0
     19878 MEMB     151      POPC     C14      CTL5    -0.350000       12.0110           0
     19879 MEMB     151      POPC     H14A     HL       0.250000       1.00800           0
     19880 MEMB     151      POPC     H14B     HL       0.250000       1.00800           0
     19881 MEMB     151      POPC     H14C     HL       0.250000       1.00800           0
     19882 MEMB     151      POPC     C15      CTL5    -0.350000       12.0110           0
     19883 MEMB     151      POPC     H15A     HL       0.250000       1.00800           0
     19884 MEMB     151      POPC     H15B     HL       0.250000       1.00800           0
     19885 MEMB     151      POPC     H15C     HL       0.250000       1.00800           0
     19886 MEMB     151      POPC     C11      CTL2    -0.800000E-01   12.0110           0
     19887 MEMB     151      POPC     H11A     HAL2     0.900000E-01   1.00800           0
     19888 MEMB     151      POPC     H11B     HAL2     0.900000E-01   1.00800           0
     19889 MEMB     151      POPC     P        PL        1.50000       30.9740           0
     19890 MEMB     151      POPC     O13      O2L     -0.780000       15.9994           0
     19891 MEMB     151      POPC     O14      O2L     -0.780000       15.9994           0
     19892 MEMB     151      POPC     O12      OSLP    -0.570000       15.9994           0
     19893 MEMB     151      POPC     O11      OSLP    -0.570000       15.9994           0
     19894 MEMB     151      POPC     C1       CTL2    -0.800000E-01   12.0110           0
     19895 MEMB     151      POPC     HA       HAL2     0.900000E-01   1.00800           0
     19896 MEMB     151      POPC     HB       HAL2     0.900000E-01   1.00800           0
     19897 MEMB     151      POPC     C2       CTL1     0.170000       12.0110           0
     19898 MEMB     151      POPC     HS       HAL1     0.900000E-01   1.00800           0
     19899 MEMB     151      POPC     O21      OSL     -0.490000       15.9994           0
     19900 MEMB     151      POPC     C21      CL       0.900000       12.0110           0
     19901 MEMB     151      POPC     O22      OBL     -0.630000       15.9994           0
     19902 MEMB     151      POPC     C22      CTL2    -0.220000       12.0110           0
     19903 MEMB     151      POPC     H2R      HAL2     0.900000E-01   1.00800           0
     19904 MEMB     151      POPC     H2S      HAL2     0.900000E-01   1.00800           0
     19905 MEMB     151      POPC     C3       CTL2     0.800000E-01   12.0110           0
     19906 MEMB     151      POPC     HX       HAL2     0.900000E-01   1.00800           0
     19907 MEMB     151      POPC     HY       HAL2     0.900000E-01   1.00800           0
     19908 MEMB     151      POPC     O31      OSL     -0.490000       15.9994           0
     19909 MEMB     151      POPC     C31      CL       0.900000       12.0110           0
     19910 MEMB     151      POPC     O32      OBL     -0.630000       15.9994           0
     19911 MEMB     151      POPC     C32      CTL2    -0.220000       12.0110           0
     19912 MEMB     151      POPC     H2X      HAL2     0.900000E-01   1.00800           0
     19913 MEMB     151      POPC     H2Y      HAL2     0.900000E-01   1.00800           0
     19914 MEMB     151      POPC     C23      CTL2    -0.180000       12.0110           0
     19915 MEMB     151      POPC     H3R      HAL2     0.900000E-01   1.00800           0
     19916 MEMB     151      POPC     H3S      HAL2     0.900000E-01   1.00800           0
     19917 MEMB     151      POPC     C24      CTL2    -0.180000       12.0110           0
     19918 MEMB     151      POPC     H4R      HAL2     0.900000E-01   1.00800           0
     19919 MEMB     151      POPC     H4S      HAL2     0.900000E-01   1.00800           0
     19920 MEMB     151      POPC     C25      CTL2    -0.180000       12.0110           0
     19921 MEMB     151      POPC     H5R      HAL2     0.900000E-01   1.00800           0
     19922 MEMB     151      POPC     H5S      HAL2     0.900000E-01   1.00800           0
     19923 MEMB     151      POPC     C26      CTL2    -0.180000       12.0110           0
     19924 MEMB     151      POPC     H6R      HAL2     0.900000E-01   1.00800           0
     19925 MEMB     151      POPC     H6S      HAL2     0.900000E-01   1.00800           0
     19926 MEMB     151      POPC     C27      CTL2    -0.180000       12.0110           0
     19927 MEMB     151      POPC     H7R      HAL2     0.900000E-01   1.00800           0
     19928 MEMB     151      POPC     H7S      HAL2     0.900000E-01   1.00800           0
     19929 MEMB     151      POPC     C28      CTL2    -0.180000       12.0110           0
     19930 MEMB     151      POPC     H8R      HAL2     0.900000E-01   1.00800           0
     19931 MEMB     151      POPC     H8S      HAL2     0.900000E-01   1.00800           0
     19932 MEMB     151      POPC     C29      CEL1    -0.150000       12.0110           0
     19933 MEMB     151      POPC     H91      HEL1     0.150000       1.00800           0
     19934 MEMB     151      POPC     C210     CEL1    -0.150000       12.0110           0
     19935 MEMB     151      POPC     H101     HEL1     0.150000       1.00800           0
     19936 MEMB     151      POPC     C211     CTL2    -0.180000       12.0110           0
     19937 MEMB     151      POPC     H11R     HAL2     0.900000E-01   1.00800           0
     19938 MEMB     151      POPC     H11S     HAL2     0.900000E-01   1.00800           0
     19939 MEMB     151      POPC     C212     CTL2    -0.180000       12.0110           0
     19940 MEMB     151      POPC     H12R     HAL2     0.900000E-01   1.00800           0
     19941 MEMB     151      POPC     H12S     HAL2     0.900000E-01   1.00800           0
     19942 MEMB     151      POPC     C213     CTL2    -0.180000       12.0110           0
     19943 MEMB     151      POPC     H13R     HAL2     0.900000E-01   1.00800           0
     19944 MEMB     151      POPC     H13S     HAL2     0.900000E-01   1.00800           0
     19945 MEMB     151      POPC     C214     CTL2    -0.180000       12.0110           0
     19946 MEMB     151      POPC     H14R     HAL2     0.900000E-01   1.00800           0
     19947 MEMB     151      POPC     H14S     HAL2     0.900000E-01   1.00800           0
     19948 MEMB     151      POPC     C215     CTL2    -0.180000       12.0110           0
     19949 MEMB     151      POPC     H15R     HAL2     0.900000E-01   1.00800           0
     19950 MEMB     151      POPC     H15S     HAL2     0.900000E-01   1.00800           0
     19951 MEMB     151      POPC     C216     CTL2    -0.180000       12.0110           0
     19952 MEMB     151      POPC     H16R     HAL2     0.900000E-01   1.00800           0
     19953 MEMB     151      POPC     H16S     HAL2     0.900000E-01   1.00800           0
     19954 MEMB     151      POPC     C217     CTL2    -0.180000       12.0110           0
     19955 MEMB     151      POPC     H17R     HAL2     0.900000E-01   1.00800           0
     19956 MEMB     151      POPC     H17S     HAL2     0.900000E-01   1.00800           0
     19957 MEMB     151      POPC     C218     CTL3    -0.270000       12.0110           0
     19958 MEMB     151      POPC     H18R     HAL3     0.900000E-01   1.00800           0
     19959 MEMB     151      POPC     H18S     HAL3     0.900000E-01   1.00800           0
     19960 MEMB     151      POPC     H18T     HAL3     0.900000E-01   1.00800           0
     19961 MEMB     151      POPC     C33      CTL2    -0.180000       12.0110           0
     19962 MEMB     151      POPC     H3X      HAL2     0.900000E-01   1.00800           0
     19963 MEMB     151      POPC     H3Y      HAL2     0.900000E-01   1.00800           0
     19964 MEMB     151      POPC     C34      CTL2    -0.180000       12.0110           0
     19965 MEMB     151      POPC     H4X      HAL2     0.900000E-01   1.00800           0
     19966 MEMB     151      POPC     H4Y      HAL2     0.900000E-01   1.00800           0
     19967 MEMB     151      POPC     C35      CTL2    -0.180000       12.0110           0
     19968 MEMB     151      POPC     H5X      HAL2     0.900000E-01   1.00800           0
     19969 MEMB     151      POPC     H5Y      HAL2     0.900000E-01   1.00800           0
     19970 MEMB     151      POPC     C36      CTL2    -0.180000       12.0110           0
     19971 MEMB     151      POPC     H6X      HAL2     0.900000E-01   1.00800           0
     19972 MEMB     151      POPC     H6Y      HAL2     0.900000E-01   1.00800           0
     19973 MEMB     151      POPC     C37      CTL2    -0.180000       12.0110           0
     19974 MEMB     151      POPC     H7X      HAL2     0.900000E-01   1.00800           0
     19975 MEMB     151      POPC     H7Y      HAL2     0.900000E-01   1.00800           0
     19976 MEMB     151      POPC     C38      CTL2    -0.180000       12.0110           0
     19977 MEMB     151      POPC     H8X      HAL2     0.900000E-01   1.00800           0
     19978 MEMB     151      POPC     H8Y      HAL2     0.900000E-01   1.00800           0
     19979 MEMB     151      POPC     C39      CTL2    -0.180000       12.0110           0
     19980 MEMB     151      POPC     H9X      HAL2     0.900000E-01   1.00800           0
     19981 MEMB     151      POPC     H9Y      HAL2     0.900000E-01   1.00800           0
     19982 MEMB     151      POPC     C310     CTL2    -0.180000       12.0110           0
     19983 MEMB     151      POPC     H10X     HAL2     0.900000E-01   1.00800           0
     19984 MEMB     151      POPC     H10Y     HAL2     0.900000E-01   1.00800           0
     19985 MEMB     151      POPC     C311     CTL2    -0.180000       12.0110           0
     19986 MEMB     151      POPC     H11X     HAL2     0.900000E-01   1.00800           0
     19987 MEMB     151      POPC     H11Y     HAL2     0.900000E-01   1.00800           0
     19988 MEMB     151      POPC     C312     CTL2    -0.180000       12.0110           0
     19989 MEMB     151      POPC     H12X     HAL2     0.900000E-01   1.00800           0
     19990 MEMB     151      POPC     H12Y     HAL2     0.900000E-01   1.00800           0
     19991 MEMB     151      POPC     C313     CTL2    -0.180000       12.0110           0
     19992 MEMB     151      POPC     H13X     HAL2     0.900000E-01   1.00800           0
     19993 MEMB     151      POPC     H13Y     HAL2     0.900000E-01   1.00800           0
     19994 MEMB     151      POPC     C314     CTL2    -0.180000       12.0110           0
     19995 MEMB     151      POPC     H14X     HAL2     0.900000E-01   1.00800           0
     19996 MEMB     151      POPC     H14Y     HAL2     0.900000E-01   1.00800           0
     19997 MEMB     151      POPC     C315     CTL2    -0.180000       12.0110           0
     19998 MEMB     151      POPC     H15X     HAL2     0.900000E-01   1.00800           0
     19999 MEMB     151      POPC     H15Y     HAL2     0.900000E-01   1.00800           0
     20000 MEMB     151      POPC     C316     CTL3    -0.270000       12.0110           0
     20001 MEMB     151      POPC     H16X     HAL3     0.900000E-01   1.00800           0
     20002 MEMB     151      POPC     H16Y     HAL3     0.900000E-01   1.00800           0
     20003 MEMB     151      POPC     H16Z     HAL3     0.900000E-01   1.00800           0
     20004 MEMB     152      POPC     N        NTL     -0.600000       14.0070           0
     20005 MEMB     152      POPC     C12      CTL2    -0.100000       12.0110           0
     20006 MEMB     152      POPC     H12A     HL       0.250000       1.00800           0
     20007 MEMB     152      POPC     H12B     HL       0.250000       1.00800           0
     20008 MEMB     152      POPC     C13      CTL5    -0.350000       12.0110           0
     20009 MEMB     152      POPC     H13A     HL       0.250000       1.00800           0
     20010 MEMB     152      POPC     H13B     HL       0.250000       1.00800           0
     20011 MEMB     152      POPC     H13C     HL       0.250000       1.00800           0
     20012 MEMB     152      POPC     C14      CTL5    -0.350000       12.0110           0
     20013 MEMB     152      POPC     H14A     HL       0.250000       1.00800           0
     20014 MEMB     152      POPC     H14B     HL       0.250000       1.00800           0
     20015 MEMB     152      POPC     H14C     HL       0.250000       1.00800           0
     20016 MEMB     152      POPC     C15      CTL5    -0.350000       12.0110           0
     20017 MEMB     152      POPC     H15A     HL       0.250000       1.00800           0
     20018 MEMB     152      POPC     H15B     HL       0.250000       1.00800           0
     20019 MEMB     152      POPC     H15C     HL       0.250000       1.00800           0
     20020 MEMB     152      POPC     C11      CTL2    -0.800000E-01   12.0110           0
     20021 MEMB     152      POPC     H11A     HAL2     0.900000E-01   1.00800           0
     20022 MEMB     152      POPC     H11B     HAL2     0.900000E-01   1.00800           0
     20023 MEMB     152      POPC     P        PL        1.50000       30.9740           0
     20024 MEMB     152      POPC     O13      O2L     -0.780000       15.9994           0
     20025 MEMB     152      POPC     O14      O2L     -0.780000       15.9994           0
     20026 MEMB     152      POPC     O12      OSLP    -0.570000       15.9994           0
     20027 MEMB     152      POPC     O11      OSLP    -0.570000       15.9994           0
     20028 MEMB     152      POPC     C1       CTL2    -0.800000E-01   12.0110           0
     20029 MEMB     152      POPC     HA       HAL2     0.900000E-01   1.00800           0
     20030 MEMB     152      POPC     HB       HAL2     0.900000E-01   1.00800           0
     20031 MEMB     152      POPC     C2       CTL1     0.170000       12.0110           0
     20032 MEMB     152      POPC     HS       HAL1     0.900000E-01   1.00800           0
     20033 MEMB     152      POPC     O21      OSL     -0.490000       15.9994           0
     20034 MEMB     152      POPC     C21      CL       0.900000       12.0110           0
     20035 MEMB     152      POPC     O22      OBL     -0.630000       15.9994           0
     20036 MEMB     152      POPC     C22      CTL2    -0.220000       12.0110           0
     20037 MEMB     152      POPC     H2R      HAL2     0.900000E-01   1.00800           0
     20038 MEMB     152      POPC     H2S      HAL2     0.900000E-01   1.00800           0
     20039 MEMB     152      POPC     C3       CTL2     0.800000E-01   12.0110           0
     20040 MEMB     152      POPC     HX       HAL2     0.900000E-01   1.00800           0
     20041 MEMB     152      POPC     HY       HAL2     0.900000E-01   1.00800           0
     20042 MEMB     152      POPC     O31      OSL     -0.490000       15.9994           0
     20043 MEMB     152      POPC     C31      CL       0.900000       12.0110           0
     20044 MEMB     152      POPC     O32      OBL     -0.630000       15.9994           0
     20045 MEMB     152      POPC     C32      CTL2    -0.220000       12.0110           0
     20046 MEMB     152      POPC     H2X      HAL2     0.900000E-01   1.00800           0
     20047 MEMB     152      POPC     H2Y      HAL2     0.900000E-01   1.00800           0
     20048 MEMB     152      POPC     C23      CTL2    -0.180000       12.0110           0
     20049 MEMB     152      POPC     H3R      HAL2     0.900000E-01   1.00800           0
     20050 MEMB     152      POPC     H3S      HAL2     0.900000E-01   1.00800           0
     20051 MEMB     152      POPC     C24      CTL2    -0.180000       12.0110           0
     20052 MEMB     152      POPC     H4R      HAL2     0.900000E-01   1.00800           0
     20053 MEMB     152      POPC     H4S      HAL2     0.900000E-01   1.00800           0
     20054 MEMB     152      POPC     C25      CTL2    -0.180000       12.0110           0
     20055 MEMB     152      POPC     H5R      HAL2     0.900000E-01   1.00800           0
     20056 MEMB     152      POPC     H5S      HAL2     0.900000E-01   1.00800           0
     20057 MEMB     152      POPC     C26      CTL2    -0.180000       12.0110           0
     20058 MEMB     152      POPC     H6R      HAL2     0.900000E-01   1.00800           0
     20059 MEMB     152      POPC     H6S      HAL2     0.900000E-01   1.00800           0
     20060 MEMB     152      POPC     C27      CTL2    -0.180000       12.0110           0
     20061 MEMB     152      POPC     H7R      HAL2     0.900000E-01   1.00800           0
     20062 MEMB     152      POPC     H7S      HAL2     0.900000E-01   1.00800           0
     20063 MEMB     152      POPC     C28      CTL2    -0.180000       12.0110           0
     20064 MEMB     152      POPC     H8R      HAL2     0.900000E-01   1.00800           0
     20065 MEMB     152      POPC     H8S      HAL2     0.900000E-01   1.00800           0
     20066 MEMB     152      POPC     C29      CEL1    -0.150000       12.0110           0
     20067 MEMB     152      POPC     H91      HEL1     0.150000       1.00800           0
     20068 MEMB     152      POPC     C210     CEL1    -0.150000       12.0110           0
     20069 MEMB     152      POPC     H101     HEL1     0.150000       1.00800           0
     20070 MEMB     152      POPC     C211     CTL2    -0.180000       12.0110           0
     20071 MEMB     152      POPC     H11R     HAL2     0.900000E-01   1.00800           0
     20072 MEMB     152      POPC     H11S     HAL2     0.900000E-01   1.00800           0
     20073 MEMB     152      POPC     C212     CTL2    -0.180000       12.0110           0
     20074 MEMB     152      POPC     H12R     HAL2     0.900000E-01   1.00800           0
     20075 MEMB     152      POPC     H12S     HAL2     0.900000E-01   1.00800           0
     20076 MEMB     152      POPC     C213     CTL2    -0.180000       12.0110           0
     20077 MEMB     152      POPC     H13R     HAL2     0.900000E-01   1.00800           0
     20078 MEMB     152      POPC     H13S     HAL2     0.900000E-01   1.00800           0
     20079 MEMB     152      POPC     C214     CTL2    -0.180000       12.0110           0
     20080 MEMB     152      POPC     H14R     HAL2     0.900000E-01   1.00800           0
     20081 MEMB     152      POPC     H14S     HAL2     0.900000E-01   1.00800           0
     20082 MEMB     152      POPC     C215     CTL2    -0.180000       12.0110           0
     20083 MEMB     152      POPC     H15R     HAL2     0.900000E-01   1.00800           0
     20084 MEMB     152      POPC     H15S     HAL2     0.900000E-01   1.00800           0
     20085 MEMB     152      POPC     C216     CTL2    -0.180000       12.0110           0
     20086 MEMB     152      POPC     H16R     HAL2     0.900000E-01   1.00800           0
     20087 MEMB     152      POPC     H16S     HAL2     0.900000E-01   1.00800           0
     20088 MEMB     152      POPC     C217     CTL2    -0.180000       12.0110           0
     20089 MEMB     152      POPC     H17R     HAL2     0.900000E-01   1.00800           0
     20090 MEMB     152      POPC     H17S     HAL2     0.900000E-01   1.00800           0
     20091 MEMB     152      POPC     C218     CTL3    -0.270000       12.0110           0
     20092 MEMB     152      POPC     H18R     HAL3     0.900000E-01   1.00800           0
     20093 MEMB     152      POPC     H18S     HAL3     0.900000E-01   1.00800           0
     20094 MEMB     152      POPC     H18T     HAL3     0.900000E-01   1.00800           0
     20095 MEMB     152      POPC     C33      CTL2    -0.180000       12.0110           0
     20096 MEMB     152      POPC     H3X      HAL2     0.900000E-01   1.00800           0
     20097 MEMB     152      POPC     H3Y      HAL2     0.900000E-01   1.00800           0
     20098 MEMB     152      POPC     C34      CTL2    -0.180000       12.0110           0
     20099 MEMB     152      POPC     H4X      HAL2     0.900000E-01   1.00800           0
     20100 MEMB     152      POPC     H4Y      HAL2     0.900000E-01   1.00800           0
     20101 MEMB     152      POPC     C35      CTL2    -0.180000       12.0110           0
     20102 MEMB     152      POPC     H5X      HAL2     0.900000E-01   1.00800           0
     20103 MEMB     152      POPC     H5Y      HAL2     0.900000E-01   1.00800           0
     20104 MEMB     152      POPC     C36      CTL2    -0.180000       12.0110           0
     20105 MEMB     152      POPC     H6X      HAL2     0.900000E-01   1.00800           0
     20106 MEMB     152      POPC     H6Y      HAL2     0.900000E-01   1.00800           0
     20107 MEMB     152      POPC     C37      CTL2    -0.180000       12.0110           0
     20108 MEMB     152      POPC     H7X      HAL2     0.900000E-01   1.00800           0
     20109 MEMB     152      POPC     H7Y      HAL2     0.900000E-01   1.00800           0
     20110 MEMB     152      POPC     C38      CTL2    -0.180000       12.0110           0
     20111 MEMB     152      POPC     H8X      HAL2     0.900000E-01   1.00800           0
     20112 MEMB     152      POPC     H8Y      HAL2     0.900000E-01   1.00800           0
     20113 MEMB     152      POPC     C39      CTL2    -0.180000       12.0110           0
     20114 MEMB     152      POPC     H9X      HAL2     0.900000E-01   1.00800           0
     20115 MEMB     152      POPC     H9Y      HAL2     0.900000E-01   1.00800           0
     20116 MEMB     152      POPC     C310     CTL2    -0.180000       12.0110           0
     20117 MEMB     152      POPC     H10X     HAL2     0.900000E-01   1.00800           0
     20118 MEMB     152      POPC     H10Y     HAL2     0.900000E-01   1.00800           0
     20119 MEMB     152      POPC     C311     CTL2    -0.180000       12.0110           0
     20120 MEMB     152      POPC     H11X     HAL2     0.900000E-01   1.00800           0
     20121 MEMB     152      POPC     H11Y     HAL2     0.900000E-01   1.00800           0
     20122 MEMB     152      POPC     C312     CTL2    -0.180000       12.0110           0
     20123 MEMB     152      POPC     H12X     HAL2     0.900000E-01   1.00800           0
     20124 MEMB     152      POPC     H12Y     HAL2     0.900000E-01   1.00800           0
     20125 MEMB     152      POPC     C313     CTL2    -0.180000       12.0110           0
     20126 MEMB     152      POPC     H13X     HAL2     0.900000E-01   1.00800           0
     20127 MEMB     152      POPC     H13Y     HAL2     0.900000E-01   1.00800           0
     20128 MEMB     152      POPC     C314     CTL2    -0.180000       12.0110           0
     20129 MEMB     152      POPC     H14X     HAL2     0.900000E-01   1.00800           0
     20130 MEMB     152      POPC     H14Y     HAL2     0.900000E-01   1.00800           0
     20131 MEMB     152      POPC     C315     CTL2    -0.180000       12.0110           0
     20132 MEMB     152      POPC     H15X     HAL2     0.900000E-01   1.00800           0
     20133 MEMB     152      POPC     H15Y     HAL2     0.900000E-01   1.00800           0
     20134 MEMB     152      POPC     C316     CTL3    -0.270000       12.0110           0
     20135 MEMB     152      POPC     H16X     HAL3     0.900000E-01   1.00800           0
     20136 MEMB     152      POPC     H16Y     HAL3     0.900000E-01   1.00800           0
     20137 MEMB     152      POPC     H16Z     HAL3     0.900000E-01   1.00800           0
     20138 MEMB     153      POPS     N        NH3L    -0.300000       14.0070           0
     20139 MEMB     153      POPS     HN1      HCL      0.330000       1.00800           0
     20140 MEMB     153      POPS     HN2      HCL      0.330000       1.00800           0
     20141 MEMB     153      POPS     HN3      HCL      0.330000       1.00800           0
     20142 MEMB     153      POPS     C12      CTL1     0.210000       12.0110           0
     20143 MEMB     153      POPS     H12A     HBL      0.100000       1.00800           0
     20144 MEMB     153      POPS     C13      CCL      0.340000       12.0110           0
     20145 MEMB     153      POPS     O13A     OCL     -0.670000       15.9994           0
     20146 MEMB     153      POPS     O13B     OCL     -0.670000       15.9994           0
     20147 MEMB     153      POPS     C11      CTL2    -0.800000E-01   12.0110           0
     20148 MEMB     153      POPS     H11A     HAL2     0.900000E-01   1.00800           0
     20149 MEMB     153      POPS     H11B     HAL2     0.900000E-01   1.00800           0
     20150 MEMB     153      POPS     P        PL        1.50000       30.9740           0
     20151 MEMB     153      POPS     O13      O2L     -0.780000       15.9994           0
     20152 MEMB     153      POPS     O14      O2L     -0.780000       15.9994           0
     20153 MEMB     153      POPS     O12      OSLP    -0.570000       15.9994           0
     20154 MEMB     153      POPS     O11      OSLP    -0.570000       15.9994           0
     20155 MEMB     153      POPS     C1       CTL2    -0.800000E-01   12.0110           0
     20156 MEMB     153      POPS     HA       HAL2     0.900000E-01   1.00800           0
     20157 MEMB     153      POPS     HB       HAL2     0.900000E-01   1.00800           0
     20158 MEMB     153      POPS     C2       CTL1     0.170000       12.0110           0
     20159 MEMB     153      POPS     HS       HAL1     0.900000E-01   1.00800           0
     20160 MEMB     153      POPS     O21      OSL     -0.490000       15.9994           0
     20161 MEMB     153      POPS     C21      CL       0.900000       12.0110           0
     20162 MEMB     153      POPS     O22      OBL     -0.630000       15.9994           0
     20163 MEMB     153      POPS     C22      CTL2    -0.220000       12.0110           0
     20164 MEMB     153      POPS     H2R      HAL2     0.900000E-01   1.00800           0
     20165 MEMB     153      POPS     H2S      HAL2     0.900000E-01   1.00800           0
     20166 MEMB     153      POPS     C3       CTL2     0.800000E-01   12.0110           0
     20167 MEMB     153      POPS     HX       HAL2     0.900000E-01   1.00800           0
     20168 MEMB     153      POPS     HY       HAL2     0.900000E-01   1.00800           0
     20169 MEMB     153      POPS     O31      OSL     -0.490000       15.9994           0
     20170 MEMB     153      POPS     C31      CL       0.900000       12.0110           0
     20171 MEMB     153      POPS     O32      OBL     -0.630000       15.9994           0
     20172 MEMB     153      POPS     C32      CTL2    -0.220000       12.0110           0
     20173 MEMB     153      POPS     H2X      HAL2     0.900000E-01   1.00800           0
     20174 MEMB     153      POPS     H2Y      HAL2     0.900000E-01   1.00800           0
     20175 MEMB     153      POPS     C23      CTL2    -0.180000       12.0110           0
     20176 MEMB     153      POPS     H3R      HAL2     0.900000E-01   1.00800           0
     20177 MEMB     153      POPS     H3S      HAL2     0.900000E-01   1.00800           0
     20178 MEMB     153      POPS     C24      CTL2    -0.180000       12.0110           0
     20179 MEMB     153      POPS     H4R      HAL2     0.900000E-01   1.00800           0
     20180 MEMB     153      POPS     H4S      HAL2     0.900000E-01   1.00800           0
     20181 MEMB     153      POPS     C25      CTL2    -0.180000       12.0110           0
     20182 MEMB     153      POPS     H5R      HAL2     0.900000E-01   1.00800           0
     20183 MEMB     153      POPS     H5S      HAL2     0.900000E-01   1.00800           0
     20184 MEMB     153      POPS     C26      CTL2    -0.180000       12.0110           0
     20185 MEMB     153      POPS     H6R      HAL2     0.900000E-01   1.00800           0
     20186 MEMB     153      POPS     H6S      HAL2     0.900000E-01   1.00800           0
     20187 MEMB     153      POPS     C27      CTL2    -0.180000       12.0110           0
     20188 MEMB     153      POPS     H7R      HAL2     0.900000E-01   1.00800           0
     20189 MEMB     153      POPS     H7S      HAL2     0.900000E-01   1.00800           0
     20190 MEMB     153      POPS     C28      CTL2    -0.180000       12.0110           0
     20191 MEMB     153      POPS     H8R      HAL2     0.900000E-01   1.00800           0
     20192 MEMB     153      POPS     H8S      HAL2     0.900000E-01   1.00800           0
     20193 MEMB     153      POPS     C29      CEL1    -0.150000       12.0110           0
     20194 MEMB     153      POPS     H91      HEL1     0.150000       1.00800           0
     20195 MEMB     153      POPS     C210     CEL1    -0.150000       12.0110           0
     20196 MEMB     153      POPS     H101     HEL1     0.150000       1.00800           0
     20197 MEMB     153      POPS     C211     CTL2    -0.180000       12.0110           0
     20198 MEMB     153      POPS     H11R     HAL2     0.900000E-01   1.00800           0
     20199 MEMB     153      POPS     H11S     HAL2     0.900000E-01   1.00800           0
     20200 MEMB     153      POPS     C212     CTL2    -0.180000       12.0110           0
     20201 MEMB     153      POPS     H12R     HAL2     0.900000E-01   1.00800           0
     20202 MEMB     153      POPS     H12S     HAL2     0.900000E-01   1.00800           0
     20203 MEMB     153      POPS     C213     CTL2    -0.180000       12.0110           0
     20204 MEMB     153      POPS     H13R     HAL2     0.900000E-01   1.00800           0
     20205 MEMB     153      POPS     H13S     HAL2     0.900000E-01   1.00800           0
     20206 MEMB     153      POPS     C214     CTL2    -0.180000       12.0110           0
     20207 MEMB     153      POPS     H14R     HAL2     0.900000E-01   1.00800           0
     20208 MEMB     153      POPS     H14S     HAL2     0.900000E-01   1.00800           0
     20209 MEMB     153      POPS     C215     CTL2    -0.180000       12.0110           0
     20210 MEMB     153      POPS     H15R     HAL2     0.900000E-01   1.00800           0
     20211 MEMB     153      POPS     H15S     HAL2     0.900000E-01   1.00800           0
     20212 MEMB     153      POPS     C216     CTL2    -0.180000       12.0110           0
     20213 MEMB     153      POPS     H16R     HAL2     0.900000E-01   1.00800           0
     20214 MEMB     153      POPS     H16S     HAL2     0.900000E-01   1.00800           0
     20215 MEMB     153      POPS     C217     CTL2    -0.180000       12.0110           0
     20216 MEMB     153      POPS     H17R     HAL2     0.900000E-01   1.00800           0
     20217 MEMB     153      POPS     H17S     HAL2     0.900000E-01   1.00800           0
     20218 MEMB     153      POPS     C218     CTL3    -0.270000       12.0110           0
     20219 MEMB     153      POPS     H18R     HAL3     0.900000E-01   1.00800           0
     20220 MEMB     153      POPS     H18S     HAL3     0.900000E-01   1.00800           0
     20221 MEMB     153      POPS     H18T     HAL3     0.900000E-01   1.00800           0
     20222 MEMB     153      POPS     C33      CTL2    -0.180000       12.0110           0
     20223 MEMB     153      POPS     H3X      HAL2     0.900000E-01   1.00800           0
     20224 MEMB     153      POPS     H3Y      HAL2     0.900000E-01   1.00800           0
     20225 MEMB     153      POPS     C34      CTL2    -0.180000       12.0110           0
     20226 MEMB     153      POPS     H4X      HAL2     0.900000E-01   1.00800           0
     20227 MEMB     153      POPS     H4Y      HAL2     0.900000E-01   1.00800           0
     20228 MEMB     153      POPS     C35      CTL2    -0.180000       12.0110           0
     20229 MEMB     153      POPS     H5X      HAL2     0.900000E-01   1.00800           0
     20230 MEMB     153      POPS     H5Y      HAL2     0.900000E-01   1.00800           0
     20231 MEMB     153      POPS     C36      CTL2    -0.180000       12.0110           0
     20232 MEMB     153      POPS     H6X      HAL2     0.900000E-01   1.00800           0
     20233 MEMB     153      POPS     H6Y      HAL2     0.900000E-01   1.00800           0
     20234 MEMB     153      POPS     C37      CTL2    -0.180000       12.0110           0
     20235 MEMB     153      POPS     H7X      HAL2     0.900000E-01   1.00800           0
     20236 MEMB     153      POPS     H7Y      HAL2     0.900000E-01   1.00800           0
     20237 MEMB     153      POPS     C38      CTL2    -0.180000       12.0110           0
     20238 MEMB     153      POPS     H8X      HAL2     0.900000E-01   1.00800           0
     20239 MEMB     153      POPS     H8Y      HAL2     0.900000E-01   1.00800           0
     20240 MEMB     153      POPS     C39      CTL2    -0.180000       12.0110           0
     20241 MEMB     153      POPS     H9X      HAL2     0.900000E-01   1.00800           0
     20242 MEMB     153      POPS     H9Y      HAL2     0.900000E-01   1.00800           0
     20243 MEMB     153      POPS     C310     CTL2    -0.180000       12.0110           0
     20244 MEMB     153      POPS     H10X     HAL2     0.900000E-01   1.00800           0
     20245 MEMB     153      POPS     H10Y     HAL2     0.900000E-01   1.00800           0
     20246 MEMB     153      POPS     C311     CTL2    -0.180000       12.0110           0
     20247 MEMB     153      POPS     H11X     HAL2     0.900000E-01   1.00800           0
     20248 MEMB     153      POPS     H11Y     HAL2     0.900000E-01   1.00800           0
     20249 MEMB     153      POPS     C312     CTL2    -0.180000       12.0110           0
     20250 MEMB     153      POPS     H12X     HAL2     0.900000E-01   1.00800           0
     20251 MEMB     153      POPS     H12Y     HAL2     0.900000E-01   1.00800           0
     20252 MEMB     153      POPS     C313     CTL2    -0.180000       12.0110           0
     20253 MEMB     153      POPS     H13X     HAL2     0.900000E-01   1.00800           0
     20254 MEMB     153      POPS     H13Y     HAL2     0.900000E-01   1.00800           0
     20255 MEMB     153      POPS     C314     CTL2    -0.180000       12.0110           0
     20256 MEMB     153      POPS     H14X     HAL2     0.900000E-01   1.00800           0
     20257 MEMB     153      POPS     H14Y     HAL2     0.900000E-01   1.00800           0
     20258 MEMB     153      POPS     C315     CTL2    -0.180000       12.0110           0
     20259 MEMB     153      POPS     H15X     HAL2     0.900000E-01   1.00800           0
     20260 MEMB     153      POPS     H15Y     HAL2     0.900000E-01   1.00800           0
     20261 MEMB     153      POPS     C316     CTL3    -0.270000       12.0110           0
     20262 MEMB     153      POPS     H16X     HAL3     0.900000E-01   1.00800           0
     20263 MEMB     153      POPS     H16Y     HAL3     0.900000E-01   1.00800           0
     20264 MEMB     153      POPS     H16Z     HAL3     0.900000E-01   1.00800           0
     20265 MEMB     154      POPS     N        NH3L    -0.300000       14.0070           0
     20266 MEMB     154      POPS     HN1      HCL      0.330000       1.00800           0
     20267 MEMB     154      POPS     HN2      HCL      0.330000       1.00800           0
     20268 MEMB     154      POPS     HN3      HCL      0.330000       1.00800           0
     20269 MEMB     154      POPS     C12      CTL1     0.210000       12.0110           0
     20270 MEMB     154      POPS     H12A     HBL      0.100000       1.00800           0
     20271 MEMB     154      POPS     C13      CCL      0.340000       12.0110           0
     20272 MEMB     154      POPS     O13A     OCL     -0.670000       15.9994           0
     20273 MEMB     154      POPS     O13B     OCL     -0.670000       15.9994           0
     20274 MEMB     154      POPS     C11      CTL2    -0.800000E-01   12.0110           0
     20275 MEMB     154      POPS     H11A     HAL2     0.900000E-01   1.00800           0
     20276 MEMB     154      POPS     H11B     HAL2     0.900000E-01   1.00800           0
     20277 MEMB     154      POPS     P        PL        1.50000       30.9740           0
     20278 MEMB     154      POPS     O13      O2L     -0.780000       15.9994           0
     20279 MEMB     154      POPS     O14      O2L     -0.780000       15.9994           0
     20280 MEMB     154      POPS     O12      OSLP    -0.570000       15.9994           0
     20281 MEMB     154      POPS     O11      OSLP    -0.570000       15.9994           0
     20282 MEMB     154      POPS     C1       CTL2    -0.800000E-01   12.0110           0
     20283 MEMB     154      POPS     HA       HAL2     0.900000E-01   1.00800           0
     20284 MEMB     154      POPS     HB       HAL2     0.900000E-01   1.00800           0
     20285 MEMB     154      POPS     C2       CTL1     0.170000       12.0110           0
     20286 MEMB     154      POPS     HS       HAL1     0.900000E-01   1.00800           0
     20287 MEMB     154      POPS     O21      OSL     -0.490000       15.9994           0
     20288 MEMB     154      POPS     C21      CL       0.900000       12.0110           0
     20289 MEMB     154      POPS     O22      OBL     -0.630000       15.9994           0
     20290 MEMB     154      POPS     C22      CTL2    -0.220000       12.0110           0
     20291 MEMB     154      POPS     H2R      HAL2     0.900000E-01   1.00800           0
     20292 MEMB     154      POPS     H2S      HAL2     0.900000E-01   1.00800           0
     20293 MEMB     154      POPS     C3       CTL2     0.800000E-01   12.0110           0
     20294 MEMB     154      POPS     HX       HAL2     0.900000E-01   1.00800           0
     20295 MEMB     154      POPS     HY       HAL2     0.900000E-01   1.00800           0
     20296 MEMB     154      POPS     O31      OSL     -0.490000       15.9994           0
     20297 MEMB     154      POPS     C31      CL       0.900000       12.0110           0
     20298 MEMB     154      POPS     O32      OBL     -0.630000       15.9994           0
     20299 MEMB     154      POPS     C32      CTL2    -0.220000       12.0110           0
     20300 MEMB     154      POPS     H2X      HAL2     0.900000E-01   1.00800           0
     20301 MEMB     154      POPS     H2Y      HAL2     0.900000E-01   1.00800           0
     20302 MEMB     154      POPS     C23      CTL2    -0.180000       12.0110           0
     20303 MEMB     154      POPS     H3R      HAL2     0.900000E-01   1.00800           0
     20304 MEMB     154      POPS     H3S      HAL2     0.900000E-01   1.00800           0
     20305 MEMB     154      POPS     C24      CTL2    -0.180000       12.0110           0
     20306 MEMB     154      POPS     H4R      HAL2     0.900000E-01   1.00800           0
     20307 MEMB     154      POPS     H4S      HAL2     0.900000E-01   1.00800           0
     20308 MEMB     154      POPS     C25      CTL2    -0.180000       12.0110           0
     20309 MEMB     154      POPS     H5R      HAL2     0.900000E-01   1.00800           0
     20310 MEMB     154      POPS     H5S      HAL2     0.900000E-01   1.00800           0
     20311 MEMB     154      POPS     C26      CTL2    -0.180000       12.0110           0
     20312 MEMB     154      POPS     H6R      HAL2     0.900000E-01   1.00800           0
     20313 MEMB     154      POPS     H6S      HAL2     0.900000E-01   1.00800           0
     20314 MEMB     154      POPS     C27      CTL2    -0.180000       12.0110           0
     20315 MEMB     154      POPS     H7R      HAL2     0.900000E-01   1.00800           0
     20316 MEMB     154      POPS     H7S      HAL2     0.900000E-01   1.00800           0
     20317 MEMB     154      POPS     C28      CTL2    -0.180000       12.0110           0
     20318 MEMB     154      POPS     H8R      HAL2     0.900000E-01   1.00800           0
     20319 MEMB     154      POPS     H8S      HAL2     0.900000E-01   1.00800           0
     20320 MEMB     154      POPS     C29      CEL1    -0.150000       12.0110           0
     20321 MEMB     154      POPS     H91      HEL1     0.150000       1.00800           0
     20322 MEMB     154      POPS     C210     CEL1    -0.150000       12.0110           0
     20323 MEMB     154      POPS     H101     HEL1     0.150000       1.00800           0
     20324 MEMB     154      POPS     C211     CTL2    -0.180000       12.0110           0
     20325 MEMB     154      POPS     H11R     HAL2     0.900000E-01   1.00800           0
     20326 MEMB     154      POPS     H11S     HAL2     0.900000E-01   1.00800           0
     20327 MEMB     154      POPS     C212     CTL2    -0.180000       12.0110           0
     20328 MEMB     154      POPS     H12R     HAL2     0.900000E-01   1.00800           0
     20329 MEMB     154      POPS     H12S     HAL2     0.900000E-01   1.00800           0
     20330 MEMB     154      POPS     C213     CTL2    -0.180000       12.0110           0
     20331 MEMB     154      POPS     H13R     HAL2     0.900000E-01   1.00800           0
     20332 MEMB     154      POPS     H13S     HAL2     0.900000E-01   1.00800           0
     20333 MEMB     154      POPS     C214     CTL2    -0.180000       12.0110           0
     20334 MEMB     154      POPS     H14R     HAL2     0.900000E-01   1.00800           0
     20335 MEMB     154      POPS     H14S     HAL2     0.900000E-01   1.00800           0
     20336 MEMB     154      POPS     C215     CTL2    -0.180000       12.0110           0
     20337 MEMB     154      POPS     H15R     HAL2     0.900000E-01   1.00800           0
     20338 MEMB     154      POPS     H15S     HAL2     0.900000E-01   1.00800           0
     20339 MEMB     154      POPS     C216     CTL2    -0.180000       12.0110           0
     20340 MEMB     154      POPS     H16R     HAL2     0.900000E-01   1.00800           0
     20341 MEMB     154      POPS     H16S     HAL2     0.900000E-01   1.00800           0
     20342 MEMB     154      POPS     C217     CTL2    -0.180000       12.0110           0
     20343 MEMB     154      POPS     H17R     HAL2     0.900000E-01   1.00800           0
     20344 MEMB     154      POPS     H17S     HAL2     0.900000E-01   1.00800           0
     20345 MEMB     154      POPS     C218     CTL3    -0.270000       12.0110           0
     20346 MEMB     154      POPS     H18R     HAL3     0.900000E-01   1.00800           0
     20347 MEMB     154      POPS     H18S     HAL3     0.900000E-01   1.00800           0
     20348 MEMB     154      POPS     H18T     HAL3     0.900000E-01   1.00800           0
     20349 MEMB     154      POPS     C33      CTL2    -0.180000       12.0110           0
     20350 MEMB     154      POPS     H3X      HAL2     0.900000E-01   1.00800           0
     20351 MEMB     154      POPS     H3Y      HAL2     0.900000E-01   1.00800           0
     20352 MEMB     154      POPS     C34      CTL2    -0.180000       12.0110           0
     20353 MEMB     154      POPS     H4X      HAL2     0.900000E-01   1.00800           0
     20354 MEMB     154      POPS     H4Y      HAL2     0.900000E-01   1.00800           0
     20355 MEMB     154      POPS     C35      CTL2    -0.180000       12.0110           0
     20356 MEMB     154      POPS     H5X      HAL2     0.900000E-01   1.00800           0
     20357 MEMB     154      POPS     H5Y      HAL2     0.900000E-01   1.00800           0
     20358 MEMB     154      POPS     C36      CTL2    -0.180000       12.0110           0
     20359 MEMB     154      POPS     H6X      HAL2     0.900000E-01   1.00800           0
     20360 MEMB     154      POPS     H6Y      HAL2     0.900000E-01   1.00800           0
     20361 MEMB     154      POPS     C37      CTL2    -0.180000       12.0110           0
     20362 MEMB     154      POPS     H7X      HAL2     0.900000E-01   1.00800           0
     20363 MEMB     154      POPS     H7Y      HAL2     0.900000E-01   1.00800           0
     20364 MEMB     154      POPS     C38      CTL2    -0.180000       12.0110           0
     20365 MEMB     154      POPS     H8X      HAL2     0.900000E-01   1.00800           0
     20366 MEMB     154      POPS     H8Y      HAL2     0.900000E-01   1.00800           0
     20367 MEMB     154      POPS     C39      CTL2    -0.180000       12.0110           0
     20368 MEMB     154      POPS     H9X      HAL2     0.900000E-01   1.00800           0
     20369 MEMB     154      POPS     H9Y      HAL2     0.900000E-01   1.00800           0
     20370 MEMB     154      POPS     C310     CTL2    -0.180000       12.0110           0
     20371 MEMB     154      POPS     H10X     HAL2     0.900000E-01   1.00800           0
     20372 MEMB     154      POPS     H10Y     HAL2     0.900000E-01   1.00800           0
     20373 MEMB     154      POPS     C311     CTL2    -0.180000       12.0110           0
     20374 MEMB     154      POPS     H11X     HAL2     0.900000E-01   1.00800           0
     20375 MEMB     154      POPS     H11Y     HAL2     0.900000E-01   1.00800           0
     20376 MEMB     154      POPS     C312     CTL2    -0.180000       12.0110           0
     20377 MEMB     154      POPS     H12X     HAL2     0.900000E-01   1.00800           0
     20378 MEMB     154      POPS     H12Y     HAL2     0.900000E-01   1.00800           0
     20379 MEMB     154      POPS     C313     CTL2    -0.180000       12.0110           0
     20380 MEMB     154      POPS     H13X     HAL2     0.900000E-01   1.00800           0
     20381 MEMB     154      POPS     H13Y     HAL2     0.900000E-01   1.00800           0
     20382 MEMB     154      POPS     C314     CTL2    -0.180000       12.0110           0
     20383 MEMB     154      POPS     H14X     HAL2     0.900000E-01   1.00800           0
     20384 MEMB     154      POPS     H14Y     HAL2     0.900000E-01   1.00800           0
     20385 MEMB     154      POPS     C315     CTL2    -0.180000       12.0110           0
     20386 MEMB     154      POPS     H15X     HAL2     0.900000E-01   1.00800           0
     20387 MEMB     154      POPS     H15Y     HAL2     0.900000E-01   1.00800           0
     20388 MEMB     154      POPS     C316     CTL3    -0.270000       12.0110           0
     20389 MEMB     154      POPS     H16X     HAL3     0.900000E-01   1.00800           0
     20390 MEMB     154      POPS     H16Y     HAL3     0.900000E-01   1.00800           0
     20391 MEMB     154      POPS     H16Z     HAL3     0.900000E-01   1.00800           0
     20392 MEMB     155      POPC     N        NTL     -0.600000       14.0070           0
     20393 MEMB     155      POPC     C12      CTL2    -0.100000       12.0110           0
     20394 MEMB     155      POPC     H12A     HL       0.250000       1.00800           0
     20395 MEMB     155      POPC     H12B     HL       0.250000       1.00800           0
     20396 MEMB     155      POPC     C13      CTL5    -0.350000       12.0110           0
     20397 MEMB     155      POPC     H13A     HL       0.250000       1.00800           0
     20398 MEMB     155      POPC     H13B     HL       0.250000       1.00800           0
     20399 MEMB     155      POPC     H13C     HL       0.250000       1.00800           0
     20400 MEMB     155      POPC     C14      CTL5    -0.350000       12.0110           0
     20401 MEMB     155      POPC     H14A     HL       0.250000       1.00800           0
     20402 MEMB     155      POPC     H14B     HL       0.250000       1.00800           0
     20403 MEMB     155      POPC     H14C     HL       0.250000       1.00800           0
     20404 MEMB     155      POPC     C15      CTL5    -0.350000       12.0110           0
     20405 MEMB     155      POPC     H15A     HL       0.250000       1.00800           0
     20406 MEMB     155      POPC     H15B     HL       0.250000       1.00800           0
     20407 MEMB     155      POPC     H15C     HL       0.250000       1.00800           0
     20408 MEMB     155      POPC     C11      CTL2    -0.800000E-01   12.0110           0
     20409 MEMB     155      POPC     H11A     HAL2     0.900000E-01   1.00800           0
     20410 MEMB     155      POPC     H11B     HAL2     0.900000E-01   1.00800           0
     20411 MEMB     155      POPC     P        PL        1.50000       30.9740           0
     20412 MEMB     155      POPC     O13      O2L     -0.780000       15.9994           0
     20413 MEMB     155      POPC     O14      O2L     -0.780000       15.9994           0
     20414 MEMB     155      POPC     O12      OSLP    -0.570000       15.9994           0
     20415 MEMB     155      POPC     O11      OSLP    -0.570000       15.9994           0
     20416 MEMB     155      POPC     C1       CTL2    -0.800000E-01   12.0110           0
     20417 MEMB     155      POPC     HA       HAL2     0.900000E-01   1.00800           0
     20418 MEMB     155      POPC     HB       HAL2     0.900000E-01   1.00800           0
     20419 MEMB     155      POPC     C2       CTL1     0.170000       12.0110           0
     20420 MEMB     155      POPC     HS       HAL1     0.900000E-01   1.00800           0
     20421 MEMB     155      POPC     O21      OSL     -0.490000       15.9994           0
     20422 MEMB     155      POPC     C21      CL       0.900000       12.0110           0
     20423 MEMB     155      POPC     O22      OBL     -0.630000       15.9994           0
     20424 MEMB     155      POPC     C22      CTL2    -0.220000       12.0110           0
     20425 MEMB     155      POPC     H2R      HAL2     0.900000E-01   1.00800           0
     20426 MEMB     155      POPC     H2S      HAL2     0.900000E-01   1.00800           0
     20427 MEMB     155      POPC     C3       CTL2     0.800000E-01   12.0110           0
     20428 MEMB     155      POPC     HX       HAL2     0.900000E-01   1.00800           0
     20429 MEMB     155      POPC     HY       HAL2     0.900000E-01   1.00800           0
     20430 MEMB     155      POPC     O31      OSL     -0.490000       15.9994           0
     20431 MEMB     155      POPC     C31      CL       0.900000       12.0110           0
     20432 MEMB     155      POPC     O32      OBL     -0.630000       15.9994           0
     20433 MEMB     155      POPC     C32      CTL2    -0.220000       12.0110           0
     20434 MEMB     155      POPC     H2X      HAL2     0.900000E-01   1.00800           0
     20435 MEMB     155      POPC     H2Y      HAL2     0.900000E-01   1.00800           0
     20436 MEMB     155      POPC     C23      CTL2    -0.180000       12.0110           0
     20437 MEMB     155      POPC     H3R      HAL2     0.900000E-01   1.00800           0
     20438 MEMB     155      POPC     H3S      HAL2     0.900000E-01   1.00800           0
     20439 MEMB     155      POPC     C24      CTL2    -0.180000       12.0110           0
     20440 MEMB     155      POPC     H4R      HAL2     0.900000E-01   1.00800           0
     20441 MEMB     155      POPC     H4S      HAL2     0.900000E-01   1.00800           0
     20442 MEMB     155      POPC     C25      CTL2    -0.180000       12.0110           0
     20443 MEMB     155      POPC     H5R      HAL2     0.900000E-01   1.00800           0
     20444 MEMB     155      POPC     H5S      HAL2     0.900000E-01   1.00800           0
     20445 MEMB     155      POPC     C26      CTL2    -0.180000       12.0110           0
     20446 MEMB     155      POPC     H6R      HAL2     0.900000E-01   1.00800           0
     20447 MEMB     155      POPC     H6S      HAL2     0.900000E-01   1.00800           0
     20448 MEMB     155      POPC     C27      CTL2    -0.180000       12.0110           0
     20449 MEMB     155      POPC     H7R      HAL2     0.900000E-01   1.00800           0
     20450 MEMB     155      POPC     H7S      HAL2     0.900000E-01   1.00800           0
     20451 MEMB     155      POPC     C28      CTL2    -0.180000       12.0110           0
     20452 MEMB     155      POPC     H8R      HAL2     0.900000E-01   1.00800           0
     20453 MEMB     155      POPC     H8S      HAL2     0.900000E-01   1.00800           0
     20454 MEMB     155      POPC     C29      CEL1    -0.150000       12.0110           0
     20455 MEMB     155      POPC     H91      HEL1     0.150000       1.00800           0
     20456 MEMB     155      POPC     C210     CEL1    -0.150000       12.0110           0
     20457 MEMB     155      POPC     H101     HEL1     0.150000       1.00800           0
     20458 MEMB     155      POPC     C211     CTL2    -0.180000       12.0110           0
     20459 MEMB     155      POPC     H11R     HAL2     0.900000E-01   1.00800           0
     20460 MEMB     155      POPC     H11S     HAL2     0.900000E-01   1.00800           0
     20461 MEMB     155      POPC     C212     CTL2    -0.180000       12.0110           0
     20462 MEMB     155      POPC     H12R     HAL2     0.900000E-01   1.00800           0
     20463 MEMB     155      POPC     H12S     HAL2     0.900000E-01   1.00800           0
     20464 MEMB     155      POPC     C213     CTL2    -0.180000       12.0110           0
     20465 MEMB     155      POPC     H13R     HAL2     0.900000E-01   1.00800           0
     20466 MEMB     155      POPC     H13S     HAL2     0.900000E-01   1.00800           0
     20467 MEMB     155      POPC     C214     CTL2    -0.180000       12.0110           0
     20468 MEMB     155      POPC     H14R     HAL2     0.900000E-01   1.00800           0
     20469 MEMB     155      POPC     H14S     HAL2     0.900000E-01   1.00800           0
     20470 MEMB     155      POPC     C215     CTL2    -0.180000       12.0110           0
     20471 MEMB     155      POPC     H15R     HAL2     0.900000E-01   1.00800           0
     20472 MEMB     155      POPC     H15S     HAL2     0.900000E-01   1.00800           0
     20473 MEMB     155      POPC     C216     CTL2    -0.180000       12.0110           0
     20474 MEMB     155      POPC     H16R     HAL2     0.900000E-01   1.00800           0
     20475 MEMB     155      POPC     H16S     HAL2     0.900000E-01   1.00800           0
     20476 MEMB     155      POPC     C217     CTL2    -0.180000       12.0110           0
     20477 MEMB     155      POPC     H17R     HAL2     0.900000E-01   1.00800           0
     20478 MEMB     155      POPC     H17S     HAL2     0.900000E-01   1.00800           0
     20479 MEMB     155      POPC     C218     CTL3    -0.270000       12.0110           0
     20480 MEMB     155      POPC     H18R     HAL3     0.900000E-01   1.00800           0
     20481 MEMB     155      POPC     H18S     HAL3     0.900000E-01   1.00800           0
     20482 MEMB     155      POPC     H18T     HAL3     0.900000E-01   1.00800           0
     20483 MEMB     155      POPC     C33      CTL2    -0.180000       12.0110           0
     20484 MEMB     155      POPC     H3X      HAL2     0.900000E-01   1.00800           0
     20485 MEMB     155      POPC     H3Y      HAL2     0.900000E-01   1.00800           0
     20486 MEMB     155      POPC     C34      CTL2    -0.180000       12.0110           0
     20487 MEMB     155      POPC     H4X      HAL2     0.900000E-01   1.00800           0
     20488 MEMB     155      POPC     H4Y      HAL2     0.900000E-01   1.00800           0
     20489 MEMB     155      POPC     C35      CTL2    -0.180000       12.0110           0
     20490 MEMB     155      POPC     H5X      HAL2     0.900000E-01   1.00800           0
     20491 MEMB     155      POPC     H5Y      HAL2     0.900000E-01   1.00800           0
     20492 MEMB     155      POPC     C36      CTL2    -0.180000       12.0110           0
     20493 MEMB     155      POPC     H6X      HAL2     0.900000E-01   1.00800           0
     20494 MEMB     155      POPC     H6Y      HAL2     0.900000E-01   1.00800           0
     20495 MEMB     155      POPC     C37      CTL2    -0.180000       12.0110           0
     20496 MEMB     155      POPC     H7X      HAL2     0.900000E-01   1.00800           0
     20497 MEMB     155      POPC     H7Y      HAL2     0.900000E-01   1.00800           0
     20498 MEMB     155      POPC     C38      CTL2    -0.180000       12.0110           0
     20499 MEMB     155      POPC     H8X      HAL2     0.900000E-01   1.00800           0
     20500 MEMB     155      POPC     H8Y      HAL2     0.900000E-01   1.00800           0
     20501 MEMB     155      POPC     C39      CTL2    -0.180000       12.0110           0
     20502 MEMB     155      POPC     H9X      HAL2     0.900000E-01   1.00800           0
     20503 MEMB     155      POPC     H9Y      HAL2     0.900000E-01   1.00800           0
     20504 MEMB     155      POPC     C310     CTL2    -0.180000       12.0110           0
     20505 MEMB     155      POPC     H10X     HAL2     0.900000E-01   1.00800           0
     20506 MEMB     155      POPC     H10Y     HAL2     0.900000E-01   1.00800           0
     20507 MEMB     155      POPC     C311     CTL2    -0.180000       12.0110           0
     20508 MEMB     155      POPC     H11X     HAL2     0.900000E-01   1.00800           0
     20509 MEMB     155      POPC     H11Y     HAL2     0.900000E-01   1.00800           0
     20510 MEMB     155      POPC     C312     CTL2    -0.180000       12.0110           0
     20511 MEMB     155      POPC     H12X     HAL2     0.900000E-01   1.00800           0
     20512 MEMB     155      POPC     H12Y     HAL2     0.900000E-01   1.00800           0
     20513 MEMB     155      POPC     C313     CTL2    -0.180000       12.0110           0
     20514 MEMB     155      POPC     H13X     HAL2     0.900000E-01   1.00800           0
     20515 MEMB     155      POPC     H13Y     HAL2     0.900000E-01   1.00800           0
     20516 MEMB     155      POPC     C314     CTL2    -0.180000       12.0110           0
     20517 MEMB     155      POPC     H14X     HAL2     0.900000E-01   1.00800           0
     20518 MEMB     155      POPC     H14Y     HAL2     0.900000E-01   1.00800           0
     20519 MEMB     155      POPC     C315     CTL2    -0.180000       12.0110           0
     20520 MEMB     155      POPC     H15X     HAL2     0.900000E-01   1.00800           0
     20521 MEMB     155      POPC     H15Y     HAL2     0.900000E-01   1.00800           0
     20522 MEMB     155      POPC     C316     CTL3    -0.270000       12.0110           0
     20523 MEMB     155      POPC     H16X     HAL3     0.900000E-01   1.00800           0
     20524 MEMB     155      POPC     H16Y     HAL3     0.900000E-01   1.00800           0
     20525 MEMB     155      POPC     H16Z     HAL3     0.900000E-01   1.00800           0
     20526 MEMB     156      POPC     N        NTL     -0.600000       14.0070           0
     20527 MEMB     156      POPC     C12      CTL2    -0.100000       12.0110           0
     20528 MEMB     156      POPC     H12A     HL       0.250000       1.00800           0
     20529 MEMB     156      POPC     H12B     HL       0.250000       1.00800           0
     20530 MEMB     156      POPC     C13      CTL5    -0.350000       12.0110           0
     20531 MEMB     156      POPC     H13A     HL       0.250000       1.00800           0
     20532 MEMB     156      POPC     H13B     HL       0.250000       1.00800           0
     20533 MEMB     156      POPC     H13C     HL       0.250000       1.00800           0
     20534 MEMB     156      POPC     C14      CTL5    -0.350000       12.0110           0
     20535 MEMB     156      POPC     H14A     HL       0.250000       1.00800           0
     20536 MEMB     156      POPC     H14B     HL       0.250000       1.00800           0
     20537 MEMB     156      POPC     H14C     HL       0.250000       1.00800           0
     20538 MEMB     156      POPC     C15      CTL5    -0.350000       12.0110           0
     20539 MEMB     156      POPC     H15A     HL       0.250000       1.00800           0
     20540 MEMB     156      POPC     H15B     HL       0.250000       1.00800           0
     20541 MEMB     156      POPC     H15C     HL       0.250000       1.00800           0
     20542 MEMB     156      POPC     C11      CTL2    -0.800000E-01   12.0110           0
     20543 MEMB     156      POPC     H11A     HAL2     0.900000E-01   1.00800           0
     20544 MEMB     156      POPC     H11B     HAL2     0.900000E-01   1.00800           0
     20545 MEMB     156      POPC     P        PL        1.50000       30.9740           0
     20546 MEMB     156      POPC     O13      O2L     -0.780000       15.9994           0
     20547 MEMB     156      POPC     O14      O2L     -0.780000       15.9994           0
     20548 MEMB     156      POPC     O12      OSLP    -0.570000       15.9994           0
     20549 MEMB     156      POPC     O11      OSLP    -0.570000       15.9994           0
     20550 MEMB     156      POPC     C1       CTL2    -0.800000E-01   12.0110           0
     20551 MEMB     156      POPC     HA       HAL2     0.900000E-01   1.00800           0
     20552 MEMB     156      POPC     HB       HAL2     0.900000E-01   1.00800           0
     20553 MEMB     156      POPC     C2       CTL1     0.170000       12.0110           0
     20554 MEMB     156      POPC     HS       HAL1     0.900000E-01   1.00800           0
     20555 MEMB     156      POPC     O21      OSL     -0.490000       15.9994           0
     20556 MEMB     156      POPC     C21      CL       0.900000       12.0110           0
     20557 MEMB     156      POPC     O22      OBL     -0.630000       15.9994           0
     20558 MEMB     156      POPC     C22      CTL2    -0.220000       12.0110           0
     20559 MEMB     156      POPC     H2R      HAL2     0.900000E-01   1.00800           0
     20560 MEMB     156      POPC     H2S      HAL2     0.900000E-01   1.00800           0
     20561 MEMB     156      POPC     C3       CTL2     0.800000E-01   12.0110           0
     20562 MEMB     156      POPC     HX       HAL2     0.900000E-01   1.00800           0
     20563 MEMB     156      POPC     HY       HAL2     0.900000E-01   1.00800           0
     20564 MEMB     156      POPC     O31      OSL     -0.490000       15.9994           0
     20565 MEMB     156      POPC     C31      CL       0.900000       12.0110           0
     20566 MEMB     156      POPC     O32      OBL     -0.630000       15.9994           0
     20567 MEMB     156      POPC     C32      CTL2    -0.220000       12.0110           0
     20568 MEMB     156      POPC     H2X      HAL2     0.900000E-01   1.00800           0
     20569 MEMB     156      POPC     H2Y      HAL2     0.900000E-01   1.00800           0
     20570 MEMB     156      POPC     C23      CTL2    -0.180000       12.0110           0
     20571 MEMB     156      POPC     H3R      HAL2     0.900000E-01   1.00800           0
     20572 MEMB     156      POPC     H3S      HAL2     0.900000E-01   1.00800           0
     20573 MEMB     156      POPC     C24      CTL2    -0.180000       12.0110           0
     20574 MEMB     156      POPC     H4R      HAL2     0.900000E-01   1.00800           0
     20575 MEMB     156      POPC     H4S      HAL2     0.900000E-01   1.00800           0
     20576 MEMB     156      POPC     C25      CTL2    -0.180000       12.0110           0
     20577 MEMB     156      POPC     H5R      HAL2     0.900000E-01   1.00800           0
     20578 MEMB     156      POPC     H5S      HAL2     0.900000E-01   1.00800           0
     20579 MEMB     156      POPC     C26      CTL2    -0.180000       12.0110           0
     20580 MEMB     156      POPC     H6R      HAL2     0.900000E-01   1.00800           0
     20581 MEMB     156      POPC     H6S      HAL2     0.900000E-01   1.00800           0
     20582 MEMB     156      POPC     C27      CTL2    -0.180000       12.0110           0
     20583 MEMB     156      POPC     H7R      HAL2     0.900000E-01   1.00800           0
     20584 MEMB     156      POPC     H7S      HAL2     0.900000E-01   1.00800           0
     20585 MEMB     156      POPC     C28      CTL2    -0.180000       12.0110           0
     20586 MEMB     156      POPC     H8R      HAL2     0.900000E-01   1.00800           0
     20587 MEMB     156      POPC     H8S      HAL2     0.900000E-01   1.00800           0
     20588 MEMB     156      POPC     C29      CEL1    -0.150000       12.0110           0
     20589 MEMB     156      POPC     H91      HEL1     0.150000       1.00800           0
     20590 MEMB     156      POPC     C210     CEL1    -0.150000       12.0110           0
     20591 MEMB     156      POPC     H101     HEL1     0.150000       1.00800           0
     20592 MEMB     156      POPC     C211     CTL2    -0.180000       12.0110           0
     20593 MEMB     156      POPC     H11R     HAL2     0.900000E-01   1.00800           0
     20594 MEMB     156      POPC     H11S     HAL2     0.900000E-01   1.00800           0
     20595 MEMB     156      POPC     C212     CTL2    -0.180000       12.0110           0
     20596 MEMB     156      POPC     H12R     HAL2     0.900000E-01   1.00800           0
     20597 MEMB     156      POPC     H12S     HAL2     0.900000E-01   1.00800           0
     20598 MEMB     156      POPC     C213     CTL2    -0.180000       12.0110           0
     20599 MEMB     156      POPC     H13R     HAL2     0.900000E-01   1.00800           0
     20600 MEMB     156      POPC     H13S     HAL2     0.900000E-01   1.00800           0
     20601 MEMB     156      POPC     C214     CTL2    -0.180000       12.0110           0
     20602 MEMB     156      POPC     H14R     HAL2     0.900000E-01   1.00800           0
     20603 MEMB     156      POPC     H14S     HAL2     0.900000E-01   1.00800           0
     20604 MEMB     156      POPC     C215     CTL2    -0.180000       12.0110           0
     20605 MEMB     156      POPC     H15R     HAL2     0.900000E-01   1.00800           0
     20606 MEMB     156      POPC     H15S     HAL2     0.900000E-01   1.00800           0
     20607 MEMB     156      POPC     C216     CTL2    -0.180000       12.0110           0
     20608 MEMB     156      POPC     H16R     HAL2     0.900000E-01   1.00800           0
     20609 MEMB     156      POPC     H16S     HAL2     0.900000E-01   1.00800           0
     20610 MEMB     156      POPC     C217     CTL2    -0.180000       12.0110           0
     20611 MEMB     156      POPC     H17R     HAL2     0.900000E-01   1.00800           0
     20612 MEMB     156      POPC     H17S     HAL2     0.900000E-01   1.00800           0
     20613 MEMB     156      POPC     C218     CTL3    -0.270000       12.0110           0
     20614 MEMB     156      POPC     H18R     HAL3     0.900000E-01   1.00800           0
     20615 MEMB     156      POPC     H18S     HAL3     0.900000E-01   1.00800           0
     20616 MEMB     156      POPC     H18T     HAL3     0.900000E-01   1.00800           0
     20617 MEMB     156      POPC     C33      CTL2    -0.180000       12.0110           0
     20618 MEMB     156      POPC     H3X      HAL2     0.900000E-01   1.00800           0
     20619 MEMB     156      POPC     H3Y      HAL2     0.900000E-01   1.00800           0
     20620 MEMB     156      POPC     C34      CTL2    -0.180000       12.0110           0
     20621 MEMB     156      POPC     H4X      HAL2     0.900000E-01   1.00800           0
     20622 MEMB     156      POPC     H4Y      HAL2     0.900000E-01   1.00800           0
     20623 MEMB     156      POPC     C35      CTL2    -0.180000       12.0110           0
     20624 MEMB     156      POPC     H5X      HAL2     0.900000E-01   1.00800           0
     20625 MEMB     156      POPC     H5Y      HAL2     0.900000E-01   1.00800           0
     20626 MEMB     156      POPC     C36      CTL2    -0.180000       12.0110           0
     20627 MEMB     156      POPC     H6X      HAL2     0.900000E-01   1.00800           0
     20628 MEMB     156      POPC     H6Y      HAL2     0.900000E-01   1.00800           0
     20629 MEMB     156      POPC     C37      CTL2    -0.180000       12.0110           0
     20630 MEMB     156      POPC     H7X      HAL2     0.900000E-01   1.00800           0
     20631 MEMB     156      POPC     H7Y      HAL2     0.900000E-01   1.00800           0
     20632 MEMB     156      POPC     C38      CTL2    -0.180000       12.0110           0
     20633 MEMB     156      POPC     H8X      HAL2     0.900000E-01   1.00800           0
     20634 MEMB     156      POPC     H8Y      HAL2     0.900000E-01   1.00800           0
     20635 MEMB     156      POPC     C39      CTL2    -0.180000       12.0110           0
     20636 MEMB     156      POPC     H9X      HAL2     0.900000E-01   1.00800           0
     20637 MEMB     156      POPC     H9Y      HAL2     0.900000E-01   1.00800           0
     20638 MEMB     156      POPC     C310     CTL2    -0.180000       12.0110           0
     20639 MEMB     156      POPC     H10X     HAL2     0.900000E-01   1.00800           0
     20640 MEMB     156      POPC     H10Y     HAL2     0.900000E-01   1.00800           0
     20641 MEMB     156      POPC     C311     CTL2    -0.180000       12.0110           0
     20642 MEMB     156      POPC     H11X     HAL2     0.900000E-01   1.00800           0
     20643 MEMB     156      POPC     H11Y     HAL2     0.900000E-01   1.00800           0
     20644 MEMB     156      POPC     C312     CTL2    -0.180000       12.0110           0
     20645 MEMB     156      POPC     H12X     HAL2     0.900000E-01   1.00800           0
     20646 MEMB     156      POPC     H12Y     HAL2     0.900000E-01   1.00800           0
     20647 MEMB     156      POPC     C313     CTL2    -0.180000       12.0110           0
     20648 MEMB     156      POPC     H13X     HAL2     0.900000E-01   1.00800           0
     20649 MEMB     156      POPC     H13Y     HAL2     0.900000E-01   1.00800           0
     20650 MEMB     156      POPC     C314     CTL2    -0.180000       12.0110           0
     20651 MEMB     156      POPC     H14X     HAL2     0.900000E-01   1.00800           0
     20652 MEMB     156      POPC     H14Y     HAL2     0.900000E-01   1.00800           0
     20653 MEMB     156      POPC     C315     CTL2    -0.180000       12.0110           0
     20654 MEMB     156      POPC     H15X     HAL2     0.900000E-01   1.00800           0
     20655 MEMB     156      POPC     H15Y     HAL2     0.900000E-01   1.00800           0
     20656 MEMB     156      POPC     C316     CTL3    -0.270000       12.0110           0
     20657 MEMB     156      POPC     H16X     HAL3     0.900000E-01   1.00800           0
     20658 MEMB     156      POPC     H16Y     HAL3     0.900000E-01   1.00800           0
     20659 MEMB     156      POPC     H16Z     HAL3     0.900000E-01   1.00800           0
     20660 MEMB     157      POPC     N        NTL     -0.600000       14.0070           0
     20661 MEMB     157      POPC     C12      CTL2    -0.100000       12.0110           0
     20662 MEMB     157      POPC     H12A     HL       0.250000       1.00800           0
     20663 MEMB     157      POPC     H12B     HL       0.250000       1.00800           0
     20664 MEMB     157      POPC     C13      CTL5    -0.350000       12.0110           0
     20665 MEMB     157      POPC     H13A     HL       0.250000       1.00800           0
     20666 MEMB     157      POPC     H13B     HL       0.250000       1.00800           0
     20667 MEMB     157      POPC     H13C     HL       0.250000       1.00800           0
     20668 MEMB     157      POPC     C14      CTL5    -0.350000       12.0110           0
     20669 MEMB     157      POPC     H14A     HL       0.250000       1.00800           0
     20670 MEMB     157      POPC     H14B     HL       0.250000       1.00800           0
     20671 MEMB     157      POPC     H14C     HL       0.250000       1.00800           0
     20672 MEMB     157      POPC     C15      CTL5    -0.350000       12.0110           0
     20673 MEMB     157      POPC     H15A     HL       0.250000       1.00800           0
     20674 MEMB     157      POPC     H15B     HL       0.250000       1.00800           0
     20675 MEMB     157      POPC     H15C     HL       0.250000       1.00800           0
     20676 MEMB     157      POPC     C11      CTL2    -0.800000E-01   12.0110           0
     20677 MEMB     157      POPC     H11A     HAL2     0.900000E-01   1.00800           0
     20678 MEMB     157      POPC     H11B     HAL2     0.900000E-01   1.00800           0
     20679 MEMB     157      POPC     P        PL        1.50000       30.9740           0
     20680 MEMB     157      POPC     O13      O2L     -0.780000       15.9994           0
     20681 MEMB     157      POPC     O14      O2L     -0.780000       15.9994           0
     20682 MEMB     157      POPC     O12      OSLP    -0.570000       15.9994           0
     20683 MEMB     157      POPC     O11      OSLP    -0.570000       15.9994           0
     20684 MEMB     157      POPC     C1       CTL2    -0.800000E-01   12.0110           0
     20685 MEMB     157      POPC     HA       HAL2     0.900000E-01   1.00800           0
     20686 MEMB     157      POPC     HB       HAL2     0.900000E-01   1.00800           0
     20687 MEMB     157      POPC     C2       CTL1     0.170000       12.0110           0
     20688 MEMB     157      POPC     HS       HAL1     0.900000E-01   1.00800           0
     20689 MEMB     157      POPC     O21      OSL     -0.490000       15.9994           0
     20690 MEMB     157      POPC     C21      CL       0.900000       12.0110           0
     20691 MEMB     157      POPC     O22      OBL     -0.630000       15.9994           0
     20692 MEMB     157      POPC     C22      CTL2    -0.220000       12.0110           0
     20693 MEMB     157      POPC     H2R      HAL2     0.900000E-01   1.00800           0
     20694 MEMB     157      POPC     H2S      HAL2     0.900000E-01   1.00800           0
     20695 MEMB     157      POPC     C3       CTL2     0.800000E-01   12.0110           0
     20696 MEMB     157      POPC     HX       HAL2     0.900000E-01   1.00800           0
     20697 MEMB     157      POPC     HY       HAL2     0.900000E-01   1.00800           0
     20698 MEMB     157      POPC     O31      OSL     -0.490000       15.9994           0
     20699 MEMB     157      POPC     C31      CL       0.900000       12.0110           0
     20700 MEMB     157      POPC     O32      OBL     -0.630000       15.9994           0
     20701 MEMB     157      POPC     C32      CTL2    -0.220000       12.0110           0
     20702 MEMB     157      POPC     H2X      HAL2     0.900000E-01   1.00800           0
     20703 MEMB     157      POPC     H2Y      HAL2     0.900000E-01   1.00800           0
     20704 MEMB     157      POPC     C23      CTL2    -0.180000       12.0110           0
     20705 MEMB     157      POPC     H3R      HAL2     0.900000E-01   1.00800           0
     20706 MEMB     157      POPC     H3S      HAL2     0.900000E-01   1.00800           0
     20707 MEMB     157      POPC     C24      CTL2    -0.180000       12.0110           0
     20708 MEMB     157      POPC     H4R      HAL2     0.900000E-01   1.00800           0
     20709 MEMB     157      POPC     H4S      HAL2     0.900000E-01   1.00800           0
     20710 MEMB     157      POPC     C25      CTL2    -0.180000       12.0110           0
     20711 MEMB     157      POPC     H5R      HAL2     0.900000E-01   1.00800           0
     20712 MEMB     157      POPC     H5S      HAL2     0.900000E-01   1.00800           0
     20713 MEMB     157      POPC     C26      CTL2    -0.180000       12.0110           0
     20714 MEMB     157      POPC     H6R      HAL2     0.900000E-01   1.00800           0
     20715 MEMB     157      POPC     H6S      HAL2     0.900000E-01   1.00800           0
     20716 MEMB     157      POPC     C27      CTL2    -0.180000       12.0110           0
     20717 MEMB     157      POPC     H7R      HAL2     0.900000E-01   1.00800           0
     20718 MEMB     157      POPC     H7S      HAL2     0.900000E-01   1.00800           0
     20719 MEMB     157      POPC     C28      CTL2    -0.180000       12.0110           0
     20720 MEMB     157      POPC     H8R      HAL2     0.900000E-01   1.00800           0
     20721 MEMB     157      POPC     H8S      HAL2     0.900000E-01   1.00800           0
     20722 MEMB     157      POPC     C29      CEL1    -0.150000       12.0110           0
     20723 MEMB     157      POPC     H91      HEL1     0.150000       1.00800           0
     20724 MEMB     157      POPC     C210     CEL1    -0.150000       12.0110           0
     20725 MEMB     157      POPC     H101     HEL1     0.150000       1.00800           0
     20726 MEMB     157      POPC     C211     CTL2    -0.180000       12.0110           0
     20727 MEMB     157      POPC     H11R     HAL2     0.900000E-01   1.00800           0
     20728 MEMB     157      POPC     H11S     HAL2     0.900000E-01   1.00800           0
     20729 MEMB     157      POPC     C212     CTL2    -0.180000       12.0110           0
     20730 MEMB     157      POPC     H12R     HAL2     0.900000E-01   1.00800           0
     20731 MEMB     157      POPC     H12S     HAL2     0.900000E-01   1.00800           0
     20732 MEMB     157      POPC     C213     CTL2    -0.180000       12.0110           0
     20733 MEMB     157      POPC     H13R     HAL2     0.900000E-01   1.00800           0
     20734 MEMB     157      POPC     H13S     HAL2     0.900000E-01   1.00800           0
     20735 MEMB     157      POPC     C214     CTL2    -0.180000       12.0110           0
     20736 MEMB     157      POPC     H14R     HAL2     0.900000E-01   1.00800           0
     20737 MEMB     157      POPC     H14S     HAL2     0.900000E-01   1.00800           0
     20738 MEMB     157      POPC     C215     CTL2    -0.180000       12.0110           0
     20739 MEMB     157      POPC     H15R     HAL2     0.900000E-01   1.00800           0
     20740 MEMB     157      POPC     H15S     HAL2     0.900000E-01   1.00800           0
     20741 MEMB     157      POPC     C216     CTL2    -0.180000       12.0110           0
     20742 MEMB     157      POPC     H16R     HAL2     0.900000E-01   1.00800           0
     20743 MEMB     157      POPC     H16S     HAL2     0.900000E-01   1.00800           0
     20744 MEMB     157      POPC     C217     CTL2    -0.180000       12.0110           0
     20745 MEMB     157      POPC     H17R     HAL2     0.900000E-01   1.00800           0
     20746 MEMB     157      POPC     H17S     HAL2     0.900000E-01   1.00800           0
     20747 MEMB     157      POPC     C218     CTL3    -0.270000       12.0110           0
     20748 MEMB     157      POPC     H18R     HAL3     0.900000E-01   1.00800           0
     20749 MEMB     157      POPC     H18S     HAL3     0.900000E-01   1.00800           0
     20750 MEMB     157      POPC     H18T     HAL3     0.900000E-01   1.00800           0
     20751 MEMB     157      POPC     C33      CTL2    -0.180000       12.0110           0
     20752 MEMB     157      POPC     H3X      HAL2     0.900000E-01   1.00800           0
     20753 MEMB     157      POPC     H3Y      HAL2     0.900000E-01   1.00800           0
     20754 MEMB     157      POPC     C34      CTL2    -0.180000       12.0110           0
     20755 MEMB     157      POPC     H4X      HAL2     0.900000E-01   1.00800           0
     20756 MEMB     157      POPC     H4Y      HAL2     0.900000E-01   1.00800           0
     20757 MEMB     157      POPC     C35      CTL2    -0.180000       12.0110           0
     20758 MEMB     157      POPC     H5X      HAL2     0.900000E-01   1.00800           0
     20759 MEMB     157      POPC     H5Y      HAL2     0.900000E-01   1.00800           0
     20760 MEMB     157      POPC     C36      CTL2    -0.180000       12.0110           0
     20761 MEMB     157      POPC     H6X      HAL2     0.900000E-01   1.00800           0
     20762 MEMB     157      POPC     H6Y      HAL2     0.900000E-01   1.00800           0
     20763 MEMB     157      POPC     C37      CTL2    -0.180000       12.0110           0
     20764 MEMB     157      POPC     H7X      HAL2     0.900000E-01   1.00800           0
     20765 MEMB     157      POPC     H7Y      HAL2     0.900000E-01   1.00800           0
     20766 MEMB     157      POPC     C38      CTL2    -0.180000       12.0110           0
     20767 MEMB     157      POPC     H8X      HAL2     0.900000E-01   1.00800           0
     20768 MEMB     157      POPC     H8Y      HAL2     0.900000E-01   1.00800           0
     20769 MEMB     157      POPC     C39      CTL2    -0.180000       12.0110           0
     20770 MEMB     157      POPC     H9X      HAL2     0.900000E-01   1.00800           0
     20771 MEMB     157      POPC     H9Y      HAL2     0.900000E-01   1.00800           0
     20772 MEMB     157      POPC     C310     CTL2    -0.180000       12.0110           0
     20773 MEMB     157      POPC     H10X     HAL2     0.900000E-01   1.00800           0
     20774 MEMB     157      POPC     H10Y     HAL2     0.900000E-01   1.00800           0
     20775 MEMB     157      POPC     C311     CTL2    -0.180000       12.0110           0
     20776 MEMB     157      POPC     H11X     HAL2     0.900000E-01   1.00800           0
     20777 MEMB     157      POPC     H11Y     HAL2     0.900000E-01   1.00800           0
     20778 MEMB     157      POPC     C312     CTL2    -0.180000       12.0110           0
     20779 MEMB     157      POPC     H12X     HAL2     0.900000E-01   1.00800           0
     20780 MEMB     157      POPC     H12Y     HAL2     0.900000E-01   1.00800           0
     20781 MEMB     157      POPC     C313     CTL2    -0.180000       12.0110           0
     20782 MEMB     157      POPC     H13X     HAL2     0.900000E-01   1.00800           0
     20783 MEMB     157      POPC     H13Y     HAL2     0.900000E-01   1.00800           0
     20784 MEMB     157      POPC     C314     CTL2    -0.180000       12.0110           0
     20785 MEMB     157      POPC     H14X     HAL2     0.900000E-01   1.00800           0
     20786 MEMB     157      POPC     H14Y     HAL2     0.900000E-01   1.00800           0
     20787 MEMB     157      POPC     C315     CTL2    -0.180000       12.0110           0
     20788 MEMB     157      POPC     H15X     HAL2     0.900000E-01   1.00800           0
     20789 MEMB     157      POPC     H15Y     HAL2     0.900000E-01   1.00800           0
     20790 MEMB     157      POPC     C316     CTL3    -0.270000       12.0110           0
     20791 MEMB     157      POPC     H16X     HAL3     0.900000E-01   1.00800           0
     20792 MEMB     157      POPC     H16Y     HAL3     0.900000E-01   1.00800           0
     20793 MEMB     157      POPC     H16Z     HAL3     0.900000E-01   1.00800           0
     20794 MEMB     158      POPC     N        NTL     -0.600000       14.0070           0
     20795 MEMB     158      POPC     C12      CTL2    -0.100000       12.0110           0
     20796 MEMB     158      POPC     H12A     HL       0.250000       1.00800           0
     20797 MEMB     158      POPC     H12B     HL       0.250000       1.00800           0
     20798 MEMB     158      POPC     C13      CTL5    -0.350000       12.0110           0
     20799 MEMB     158      POPC     H13A     HL       0.250000       1.00800           0
     20800 MEMB     158      POPC     H13B     HL       0.250000       1.00800           0
     20801 MEMB     158      POPC     H13C     HL       0.250000       1.00800           0
     20802 MEMB     158      POPC     C14      CTL5    -0.350000       12.0110           0
     20803 MEMB     158      POPC     H14A     HL       0.250000       1.00800           0
     20804 MEMB     158      POPC     H14B     HL       0.250000       1.00800           0
     20805 MEMB     158      POPC     H14C     HL       0.250000       1.00800           0
     20806 MEMB     158      POPC     C15      CTL5    -0.350000       12.0110           0
     20807 MEMB     158      POPC     H15A     HL       0.250000       1.00800           0
     20808 MEMB     158      POPC     H15B     HL       0.250000       1.00800           0
     20809 MEMB     158      POPC     H15C     HL       0.250000       1.00800           0
     20810 MEMB     158      POPC     C11      CTL2    -0.800000E-01   12.0110           0
     20811 MEMB     158      POPC     H11A     HAL2     0.900000E-01   1.00800           0
     20812 MEMB     158      POPC     H11B     HAL2     0.900000E-01   1.00800           0
     20813 MEMB     158      POPC     P        PL        1.50000       30.9740           0
     20814 MEMB     158      POPC     O13      O2L     -0.780000       15.9994           0
     20815 MEMB     158      POPC     O14      O2L     -0.780000       15.9994           0
     20816 MEMB     158      POPC     O12      OSLP    -0.570000       15.9994           0
     20817 MEMB     158      POPC     O11      OSLP    -0.570000       15.9994           0
     20818 MEMB     158      POPC     C1       CTL2    -0.800000E-01   12.0110           0
     20819 MEMB     158      POPC     HA       HAL2     0.900000E-01   1.00800           0
     20820 MEMB     158      POPC     HB       HAL2     0.900000E-01   1.00800           0
     20821 MEMB     158      POPC     C2       CTL1     0.170000       12.0110           0
     20822 MEMB     158      POPC     HS       HAL1     0.900000E-01   1.00800           0
     20823 MEMB     158      POPC     O21      OSL     -0.490000       15.9994           0
     20824 MEMB     158      POPC     C21      CL       0.900000       12.0110           0
     20825 MEMB     158      POPC     O22      OBL     -0.630000       15.9994           0
     20826 MEMB     158      POPC     C22      CTL2    -0.220000       12.0110           0
     20827 MEMB     158      POPC     H2R      HAL2     0.900000E-01   1.00800           0
     20828 MEMB     158      POPC     H2S      HAL2     0.900000E-01   1.00800           0
     20829 MEMB     158      POPC     C3       CTL2     0.800000E-01   12.0110           0
     20830 MEMB     158      POPC     HX       HAL2     0.900000E-01   1.00800           0
     20831 MEMB     158      POPC     HY       HAL2     0.900000E-01   1.00800           0
     20832 MEMB     158      POPC     O31      OSL     -0.490000       15.9994           0
     20833 MEMB     158      POPC     C31      CL       0.900000       12.0110           0
     20834 MEMB     158      POPC     O32      OBL     -0.630000       15.9994           0
     20835 MEMB     158      POPC     C32      CTL2    -0.220000       12.0110           0
     20836 MEMB     158      POPC     H2X      HAL2     0.900000E-01   1.00800           0
     20837 MEMB     158      POPC     H2Y      HAL2     0.900000E-01   1.00800           0
     20838 MEMB     158      POPC     C23      CTL2    -0.180000       12.0110           0
     20839 MEMB     158      POPC     H3R      HAL2     0.900000E-01   1.00800           0
     20840 MEMB     158      POPC     H3S      HAL2     0.900000E-01   1.00800           0
     20841 MEMB     158      POPC     C24      CTL2    -0.180000       12.0110           0
     20842 MEMB     158      POPC     H4R      HAL2     0.900000E-01   1.00800           0
     20843 MEMB     158      POPC     H4S      HAL2     0.900000E-01   1.00800           0
     20844 MEMB     158      POPC     C25      CTL2    -0.180000       12.0110           0
     20845 MEMB     158      POPC     H5R      HAL2     0.900000E-01   1.00800           0
     20846 MEMB     158      POPC     H5S      HAL2     0.900000E-01   1.00800           0
     20847 MEMB     158      POPC     C26      CTL2    -0.180000       12.0110           0
     20848 MEMB     158      POPC     H6R      HAL2     0.900000E-01   1.00800           0
     20849 MEMB     158      POPC     H6S      HAL2     0.900000E-01   1.00800           0
     20850 MEMB     158      POPC     C27      CTL2    -0.180000       12.0110           0
     20851 MEMB     158      POPC     H7R      HAL2     0.900000E-01   1.00800           0
     20852 MEMB     158      POPC     H7S      HAL2     0.900000E-01   1.00800           0
     20853 MEMB     158      POPC     C28      CTL2    -0.180000       12.0110           0
     20854 MEMB     158      POPC     H8R      HAL2     0.900000E-01   1.00800           0
     20855 MEMB     158      POPC     H8S      HAL2     0.900000E-01   1.00800           0
     20856 MEMB     158      POPC     C29      CEL1    -0.150000       12.0110           0
     20857 MEMB     158      POPC     H91      HEL1     0.150000       1.00800           0
     20858 MEMB     158      POPC     C210     CEL1    -0.150000       12.0110           0
     20859 MEMB     158      POPC     H101     HEL1     0.150000       1.00800           0
     20860 MEMB     158      POPC     C211     CTL2    -0.180000       12.0110           0
     20861 MEMB     158      POPC     H11R     HAL2     0.900000E-01   1.00800           0
     20862 MEMB     158      POPC     H11S     HAL2     0.900000E-01   1.00800           0
     20863 MEMB     158      POPC     C212     CTL2    -0.180000       12.0110           0
     20864 MEMB     158      POPC     H12R     HAL2     0.900000E-01   1.00800           0
     20865 MEMB     158      POPC     H12S     HAL2     0.900000E-01   1.00800           0
     20866 MEMB     158      POPC     C213     CTL2    -0.180000       12.0110           0
     20867 MEMB     158      POPC     H13R     HAL2     0.900000E-01   1.00800           0
     20868 MEMB     158      POPC     H13S     HAL2     0.900000E-01   1.00800           0
     20869 MEMB     158      POPC     C214     CTL2    -0.180000       12.0110           0
     20870 MEMB     158      POPC     H14R     HAL2     0.900000E-01   1.00800           0
     20871 MEMB     158      POPC     H14S     HAL2     0.900000E-01   1.00800           0
     20872 MEMB     158      POPC     C215     CTL2    -0.180000       12.0110           0
     20873 MEMB     158      POPC     H15R     HAL2     0.900000E-01   1.00800           0
     20874 MEMB     158      POPC     H15S     HAL2     0.900000E-01   1.00800           0
     20875 MEMB     158      POPC     C216     CTL2    -0.180000       12.0110           0
     20876 MEMB     158      POPC     H16R     HAL2     0.900000E-01   1.00800           0
     20877 MEMB     158      POPC     H16S     HAL2     0.900000E-01   1.00800           0
     20878 MEMB     158      POPC     C217     CTL2    -0.180000       12.0110           0
     20879 MEMB     158      POPC     H17R     HAL2     0.900000E-01   1.00800           0
     20880 MEMB     158      POPC     H17S     HAL2     0.900000E-01   1.00800           0
     20881 MEMB     158      POPC     C218     CTL3    -0.270000       12.0110           0
     20882 MEMB     158      POPC     H18R     HAL3     0.900000E-01   1.00800           0
     20883 MEMB     158      POPC     H18S     HAL3     0.900000E-01   1.00800           0
     20884 MEMB     158      POPC     H18T     HAL3     0.900000E-01   1.00800           0
     20885 MEMB     158      POPC     C33      CTL2    -0.180000       12.0110           0
     20886 MEMB     158      POPC     H3X      HAL2     0.900000E-01   1.00800           0
     20887 MEMB     158      POPC     H3Y      HAL2     0.900000E-01   1.00800           0
     20888 MEMB     158      POPC     C34      CTL2    -0.180000       12.0110           0
     20889 MEMB     158      POPC     H4X      HAL2     0.900000E-01   1.00800           0
     20890 MEMB     158      POPC     H4Y      HAL2     0.900000E-01   1.00800           0
     20891 MEMB     158      POPC     C35      CTL2    -0.180000       12.0110           0
     20892 MEMB     158      POPC     H5X      HAL2     0.900000E-01   1.00800           0
     20893 MEMB     158      POPC     H5Y      HAL2     0.900000E-01   1.00800           0
     20894 MEMB     158      POPC     C36      CTL2    -0.180000       12.0110           0
     20895 MEMB     158      POPC     H6X      HAL2     0.900000E-01   1.00800           0
     20896 MEMB     158      POPC     H6Y      HAL2     0.900000E-01   1.00800           0
     20897 MEMB     158      POPC     C37      CTL2    -0.180000       12.0110           0
     20898 MEMB     158      POPC     H7X      HAL2     0.900000E-01   1.00800           0
     20899 MEMB     158      POPC     H7Y      HAL2     0.900000E-01   1.00800           0
     20900 MEMB     158      POPC     C38      CTL2    -0.180000       12.0110           0
     20901 MEMB     158      POPC     H8X      HAL2     0.900000E-01   1.00800           0
     20902 MEMB     158      POPC     H8Y      HAL2     0.900000E-01   1.00800           0
     20903 MEMB     158      POPC     C39      CTL2    -0.180000       12.0110           0
     20904 MEMB     158      POPC     H9X      HAL2     0.900000E-01   1.00800           0
     20905 MEMB     158      POPC     H9Y      HAL2     0.900000E-01   1.00800           0
     20906 MEMB     158      POPC     C310     CTL2    -0.180000       12.0110           0
     20907 MEMB     158      POPC     H10X     HAL2     0.900000E-01   1.00800           0
     20908 MEMB     158      POPC     H10Y     HAL2     0.900000E-01   1.00800           0
     20909 MEMB     158      POPC     C311     CTL2    -0.180000       12.0110           0
     20910 MEMB     158      POPC     H11X     HAL2     0.900000E-01   1.00800           0
     20911 MEMB     158      POPC     H11Y     HAL2     0.900000E-01   1.00800           0
     20912 MEMB     158      POPC     C312     CTL2    -0.180000       12.0110           0
     20913 MEMB     158      POPC     H12X     HAL2     0.900000E-01   1.00800           0
     20914 MEMB     158      POPC     H12Y     HAL2     0.900000E-01   1.00800           0
     20915 MEMB     158      POPC     C313     CTL2    -0.180000       12.0110           0
     20916 MEMB     158      POPC     H13X     HAL2     0.900000E-01   1.00800           0
     20917 MEMB     158      POPC     H13Y     HAL2     0.900000E-01   1.00800           0
     20918 MEMB     158      POPC     C314     CTL2    -0.180000       12.0110           0
     20919 MEMB     158      POPC     H14X     HAL2     0.900000E-01   1.00800           0
     20920 MEMB     158      POPC     H14Y     HAL2     0.900000E-01   1.00800           0
     20921 MEMB     158      POPC     C315     CTL2    -0.180000       12.0110           0
     20922 MEMB     158      POPC     H15X     HAL2     0.900000E-01   1.00800           0
     20923 MEMB     158      POPC     H15Y     HAL2     0.900000E-01   1.00800           0
     20924 MEMB     158      POPC     C316     CTL3    -0.270000       12.0110           0
     20925 MEMB     158      POPC     H16X     HAL3     0.900000E-01   1.00800           0
     20926 MEMB     158      POPC     H16Y     HAL3     0.900000E-01   1.00800           0
     20927 MEMB     158      POPC     H16Z     HAL3     0.900000E-01   1.00800           0
     20928 MEMB     159      POPC     N        NTL     -0.600000       14.0070           0
     20929 MEMB     159      POPC     C12      CTL2    -0.100000       12.0110           0
     20930 MEMB     159      POPC     H12A     HL       0.250000       1.00800           0
     20931 MEMB     159      POPC     H12B     HL       0.250000       1.00800           0
     20932 MEMB     159      POPC     C13      CTL5    -0.350000       12.0110           0
     20933 MEMB     159      POPC     H13A     HL       0.250000       1.00800           0
     20934 MEMB     159      POPC     H13B     HL       0.250000       1.00800           0
     20935 MEMB     159      POPC     H13C     HL       0.250000       1.00800           0
     20936 MEMB     159      POPC     C14      CTL5    -0.350000       12.0110           0
     20937 MEMB     159      POPC     H14A     HL       0.250000       1.00800           0
     20938 MEMB     159      POPC     H14B     HL       0.250000       1.00800           0
     20939 MEMB     159      POPC     H14C     HL       0.250000       1.00800           0
     20940 MEMB     159      POPC     C15      CTL5    -0.350000       12.0110           0
     20941 MEMB     159      POPC     H15A     HL       0.250000       1.00800           0
     20942 MEMB     159      POPC     H15B     HL       0.250000       1.00800           0
     20943 MEMB     159      POPC     H15C     HL       0.250000       1.00800           0
     20944 MEMB     159      POPC     C11      CTL2    -0.800000E-01   12.0110           0
     20945 MEMB     159      POPC     H11A     HAL2     0.900000E-01   1.00800           0
     20946 MEMB     159      POPC     H11B     HAL2     0.900000E-01   1.00800           0
     20947 MEMB     159      POPC     P        PL        1.50000       30.9740           0
     20948 MEMB     159      POPC     O13      O2L     -0.780000       15.9994           0
     20949 MEMB     159      POPC     O14      O2L     -0.780000       15.9994           0
     20950 MEMB     159      POPC     O12      OSLP    -0.570000       15.9994           0
     20951 MEMB     159      POPC     O11      OSLP    -0.570000       15.9994           0
     20952 MEMB     159      POPC     C1       CTL2    -0.800000E-01   12.0110           0
     20953 MEMB     159      POPC     HA       HAL2     0.900000E-01   1.00800           0
     20954 MEMB     159      POPC     HB       HAL2     0.900000E-01   1.00800           0
     20955 MEMB     159      POPC     C2       CTL1     0.170000       12.0110           0
     20956 MEMB     159      POPC     HS       HAL1     0.900000E-01   1.00800           0
     20957 MEMB     159      POPC     O21      OSL     -0.490000       15.9994           0
     20958 MEMB     159      POPC     C21      CL       0.900000       12.0110           0
     20959 MEMB     159      POPC     O22      OBL     -0.630000       15.9994           0
     20960 MEMB     159      POPC     C22      CTL2    -0.220000       12.0110           0
     20961 MEMB     159      POPC     H2R      HAL2     0.900000E-01   1.00800           0
     20962 MEMB     159      POPC     H2S      HAL2     0.900000E-01   1.00800           0
     20963 MEMB     159      POPC     C3       CTL2     0.800000E-01   12.0110           0
     20964 MEMB     159      POPC     HX       HAL2     0.900000E-01   1.00800           0
     20965 MEMB     159      POPC     HY       HAL2     0.900000E-01   1.00800           0
     20966 MEMB     159      POPC     O31      OSL     -0.490000       15.9994           0
     20967 MEMB     159      POPC     C31      CL       0.900000       12.0110           0
     20968 MEMB     159      POPC     O32      OBL     -0.630000       15.9994           0
     20969 MEMB     159      POPC     C32      CTL2    -0.220000       12.0110           0
     20970 MEMB     159      POPC     H2X      HAL2     0.900000E-01   1.00800           0
     20971 MEMB     159      POPC     H2Y      HAL2     0.900000E-01   1.00800           0
     20972 MEMB     159      POPC     C23      CTL2    -0.180000       12.0110           0
     20973 MEMB     159      POPC     H3R      HAL2     0.900000E-01   1.00800           0
     20974 MEMB     159      POPC     H3S      HAL2     0.900000E-01   1.00800           0
     20975 MEMB     159      POPC     C24      CTL2    -0.180000       12.0110           0
     20976 MEMB     159      POPC     H4R      HAL2     0.900000E-01   1.00800           0
     20977 MEMB     159      POPC     H4S      HAL2     0.900000E-01   1.00800           0
     20978 MEMB     159      POPC     C25      CTL2    -0.180000       12.0110           0
     20979 MEMB     159      POPC     H5R      HAL2     0.900000E-01   1.00800           0
     20980 MEMB     159      POPC     H5S      HAL2     0.900000E-01   1.00800           0
     20981 MEMB     159      POPC     C26      CTL2    -0.180000       12.0110           0
     20982 MEMB     159      POPC     H6R      HAL2     0.900000E-01   1.00800           0
     20983 MEMB     159      POPC     H6S      HAL2     0.900000E-01   1.00800           0
     20984 MEMB     159      POPC     C27      CTL2    -0.180000       12.0110           0
     20985 MEMB     159      POPC     H7R      HAL2     0.900000E-01   1.00800           0
     20986 MEMB     159      POPC     H7S      HAL2     0.900000E-01   1.00800           0
     20987 MEMB     159      POPC     C28      CTL2    -0.180000       12.0110           0
     20988 MEMB     159      POPC     H8R      HAL2     0.900000E-01   1.00800           0
     20989 MEMB     159      POPC     H8S      HAL2     0.900000E-01   1.00800           0
     20990 MEMB     159      POPC     C29      CEL1    -0.150000       12.0110           0
     20991 MEMB     159      POPC     H91      HEL1     0.150000       1.00800           0
     20992 MEMB     159      POPC     C210     CEL1    -0.150000       12.0110           0
     20993 MEMB     159      POPC     H101     HEL1     0.150000       1.00800           0
     20994 MEMB     159      POPC     C211     CTL2    -0.180000       12.0110           0
     20995 MEMB     159      POPC     H11R     HAL2     0.900000E-01   1.00800           0
     20996 MEMB     159      POPC     H11S     HAL2     0.900000E-01   1.00800           0
     20997 MEMB     159      POPC     C212     CTL2    -0.180000       12.0110           0
     20998 MEMB     159      POPC     H12R     HAL2     0.900000E-01   1.00800           0
     20999 MEMB     159      POPC     H12S     HAL2     0.900000E-01   1.00800           0
     21000 MEMB     159      POPC     C213     CTL2    -0.180000       12.0110           0
     21001 MEMB     159      POPC     H13R     HAL2     0.900000E-01   1.00800           0
     21002 MEMB     159      POPC     H13S     HAL2     0.900000E-01   1.00800           0
     21003 MEMB     159      POPC     C214     CTL2    -0.180000       12.0110           0
     21004 MEMB     159      POPC     H14R     HAL2     0.900000E-01   1.00800           0
     21005 MEMB     159      POPC     H14S     HAL2     0.900000E-01   1.00800           0
     21006 MEMB     159      POPC     C215     CTL2    -0.180000       12.0110           0
     21007 MEMB     159      POPC     H15R     HAL2     0.900000E-01   1.00800           0
     21008 MEMB     159      POPC     H15S     HAL2     0.900000E-01   1.00800           0
     21009 MEMB     159      POPC     C216     CTL2    -0.180000       12.0110           0
     21010 MEMB     159      POPC     H16R     HAL2     0.900000E-01   1.00800           0
     21011 MEMB     159      POPC     H16S     HAL2     0.900000E-01   1.00800           0
     21012 MEMB     159      POPC     C217     CTL2    -0.180000       12.0110           0
     21013 MEMB     159      POPC     H17R     HAL2     0.900000E-01   1.00800           0
     21014 MEMB     159      POPC     H17S     HAL2     0.900000E-01   1.00800           0
     21015 MEMB     159      POPC     C218     CTL3    -0.270000       12.0110           0
     21016 MEMB     159      POPC     H18R     HAL3     0.900000E-01   1.00800           0
     21017 MEMB     159      POPC     H18S     HAL3     0.900000E-01   1.00800           0
     21018 MEMB     159      POPC     H18T     HAL3     0.900000E-01   1.00800           0
     21019 MEMB     159      POPC     C33      CTL2    -0.180000       12.0110           0
     21020 MEMB     159      POPC     H3X      HAL2     0.900000E-01   1.00800           0
     21021 MEMB     159      POPC     H3Y      HAL2     0.900000E-01   1.00800           0
     21022 MEMB     159      POPC     C34      CTL2    -0.180000       12.0110           0
     21023 MEMB     159      POPC     H4X      HAL2     0.900000E-01   1.00800           0
     21024 MEMB     159      POPC     H4Y      HAL2     0.900000E-01   1.00800           0
     21025 MEMB     159      POPC     C35      CTL2    -0.180000       12.0110           0
     21026 MEMB     159      POPC     H5X      HAL2     0.900000E-01   1.00800           0
     21027 MEMB     159      POPC     H5Y      HAL2     0.900000E-01   1.00800           0
     21028 MEMB     159      POPC     C36      CTL2    -0.180000       12.0110           0
     21029 MEMB     159      POPC     H6X      HAL2     0.900000E-01   1.00800           0
     21030 MEMB     159      POPC     H6Y      HAL2     0.900000E-01   1.00800           0
     21031 MEMB     159      POPC     C37      CTL2    -0.180000       12.0110           0
     21032 MEMB     159      POPC     H7X      HAL2     0.900000E-01   1.00800           0
     21033 MEMB     159      POPC     H7Y      HAL2     0.900000E-01   1.00800           0
     21034 MEMB     159      POPC     C38      CTL2    -0.180000       12.0110           0
     21035 MEMB     159      POPC     H8X      HAL2     0.900000E-01   1.00800           0
     21036 MEMB     159      POPC     H8Y      HAL2     0.900000E-01   1.00800           0
     21037 MEMB     159      POPC     C39      CTL2    -0.180000       12.0110           0
     21038 MEMB     159      POPC     H9X      HAL2     0.900000E-01   1.00800           0
     21039 MEMB     159      POPC     H9Y      HAL2     0.900000E-01   1.00800           0
     21040 MEMB     159      POPC     C310     CTL2    -0.180000       12.0110           0
     21041 MEMB     159      POPC     H10X     HAL2     0.900000E-01   1.00800           0
     21042 MEMB     159      POPC     H10Y     HAL2     0.900000E-01   1.00800           0
     21043 MEMB     159      POPC     C311     CTL2    -0.180000       12.0110           0
     21044 MEMB     159      POPC     H11X     HAL2     0.900000E-01   1.00800           0
     21045 MEMB     159      POPC     H11Y     HAL2     0.900000E-01   1.00800           0
     21046 MEMB     159      POPC     C312     CTL2    -0.180000       12.0110           0
     21047 MEMB     159      POPC     H12X     HAL2     0.900000E-01   1.00800           0
     21048 MEMB     159      POPC     H12Y     HAL2     0.900000E-01   1.00800           0
     21049 MEMB     159      POPC     C313     CTL2    -0.180000       12.0110           0
     21050 MEMB     159      POPC     H13X     HAL2     0.900000E-01   1.00800           0
     21051 MEMB     159      POPC     H13Y     HAL2     0.900000E-01   1.00800           0
     21052 MEMB     159      POPC     C314     CTL2    -0.180000       12.0110           0
     21053 MEMB     159      POPC     H14X     HAL2     0.900000E-01   1.00800           0
     21054 MEMB     159      POPC     H14Y     HAL2     0.900000E-01   1.00800           0
     21055 MEMB     159      POPC     C315     CTL2    -0.180000       12.0110           0
     21056 MEMB     159      POPC     H15X     HAL2     0.900000E-01   1.00800           0
     21057 MEMB     159      POPC     H15Y     HAL2     0.900000E-01   1.00800           0
     21058 MEMB     159      POPC     C316     CTL3    -0.270000       12.0110           0
     21059 MEMB     159      POPC     H16X     HAL3     0.900000E-01   1.00800           0
     21060 MEMB     159      POPC     H16Y     HAL3     0.900000E-01   1.00800           0
     21061 MEMB     159      POPC     H16Z     HAL3     0.900000E-01   1.00800           0
     21062 MEMB     160      POPS     N        NH3L    -0.300000       14.0070           0
     21063 MEMB     160      POPS     HN1      HCL      0.330000       1.00800           0
     21064 MEMB     160      POPS     HN2      HCL      0.330000       1.00800           0
     21065 MEMB     160      POPS     HN3      HCL      0.330000       1.00800           0
     21066 MEMB     160      POPS     C12      CTL1     0.210000       12.0110           0
     21067 MEMB     160      POPS     H12A     HBL      0.100000       1.00800           0
     21068 MEMB     160      POPS     C13      CCL      0.340000       12.0110           0
     21069 MEMB     160      POPS     O13A     OCL     -0.670000       15.9994           0
     21070 MEMB     160      POPS     O13B     OCL     -0.670000       15.9994           0
     21071 MEMB     160      POPS     C11      CTL2    -0.800000E-01   12.0110           0
     21072 MEMB     160      POPS     H11A     HAL2     0.900000E-01   1.00800           0
     21073 MEMB     160      POPS     H11B     HAL2     0.900000E-01   1.00800           0
     21074 MEMB     160      POPS     P        PL        1.50000       30.9740           0
     21075 MEMB     160      POPS     O13      O2L     -0.780000       15.9994           0
     21076 MEMB     160      POPS     O14      O2L     -0.780000       15.9994           0
     21077 MEMB     160      POPS     O12      OSLP    -0.570000       15.9994           0
     21078 MEMB     160      POPS     O11      OSLP    -0.570000       15.9994           0
     21079 MEMB     160      POPS     C1       CTL2    -0.800000E-01   12.0110           0
     21080 MEMB     160      POPS     HA       HAL2     0.900000E-01   1.00800           0
     21081 MEMB     160      POPS     HB       HAL2     0.900000E-01   1.00800           0
     21082 MEMB     160      POPS     C2       CTL1     0.170000       12.0110           0
     21083 MEMB     160      POPS     HS       HAL1     0.900000E-01   1.00800           0
     21084 MEMB     160      POPS     O21      OSL     -0.490000       15.9994           0
     21085 MEMB     160      POPS     C21      CL       0.900000       12.0110           0
     21086 MEMB     160      POPS     O22      OBL     -0.630000       15.9994           0
     21087 MEMB     160      POPS     C22      CTL2    -0.220000       12.0110           0
     21088 MEMB     160      POPS     H2R      HAL2     0.900000E-01   1.00800           0
     21089 MEMB     160      POPS     H2S      HAL2     0.900000E-01   1.00800           0
     21090 MEMB     160      POPS     C3       CTL2     0.800000E-01   12.0110           0
     21091 MEMB     160      POPS     HX       HAL2     0.900000E-01   1.00800           0
     21092 MEMB     160      POPS     HY       HAL2     0.900000E-01   1.00800           0
     21093 MEMB     160      POPS     O31      OSL     -0.490000       15.9994           0
     21094 MEMB     160      POPS     C31      CL       0.900000       12.0110           0
     21095 MEMB     160      POPS     O32      OBL     -0.630000       15.9994           0
     21096 MEMB     160      POPS     C32      CTL2    -0.220000       12.0110           0
     21097 MEMB     160      POPS     H2X      HAL2     0.900000E-01   1.00800           0
     21098 MEMB     160      POPS     H2Y      HAL2     0.900000E-01   1.00800           0
     21099 MEMB     160      POPS     C23      CTL2    -0.180000       12.0110           0
     21100 MEMB     160      POPS     H3R      HAL2     0.900000E-01   1.00800           0
     21101 MEMB     160      POPS     H3S      HAL2     0.900000E-01   1.00800           0
     21102 MEMB     160      POPS     C24      CTL2    -0.180000       12.0110           0
     21103 MEMB     160      POPS     H4R      HAL2     0.900000E-01   1.00800           0
     21104 MEMB     160      POPS     H4S      HAL2     0.900000E-01   1.00800           0
     21105 MEMB     160      POPS     C25      CTL2    -0.180000       12.0110           0
     21106 MEMB     160      POPS     H5R      HAL2     0.900000E-01   1.00800           0
     21107 MEMB     160      POPS     H5S      HAL2     0.900000E-01   1.00800           0
     21108 MEMB     160      POPS     C26      CTL2    -0.180000       12.0110           0
     21109 MEMB     160      POPS     H6R      HAL2     0.900000E-01   1.00800           0
     21110 MEMB     160      POPS     H6S      HAL2     0.900000E-01   1.00800           0
     21111 MEMB     160      POPS     C27      CTL2    -0.180000       12.0110           0
     21112 MEMB     160      POPS     H7R      HAL2     0.900000E-01   1.00800           0
     21113 MEMB     160      POPS     H7S      HAL2     0.900000E-01   1.00800           0
     21114 MEMB     160      POPS     C28      CTL2    -0.180000       12.0110           0
     21115 MEMB     160      POPS     H8R      HAL2     0.900000E-01   1.00800           0
     21116 MEMB     160      POPS     H8S      HAL2     0.900000E-01   1.00800           0
     21117 MEMB     160      POPS     C29      CEL1    -0.150000       12.0110           0
     21118 MEMB     160      POPS     H91      HEL1     0.150000       1.00800           0
     21119 MEMB     160      POPS     C210     CEL1    -0.150000       12.0110           0
     21120 MEMB     160      POPS     H101     HEL1     0.150000       1.00800           0
     21121 MEMB     160      POPS     C211     CTL2    -0.180000       12.0110           0
     21122 MEMB     160      POPS     H11R     HAL2     0.900000E-01   1.00800           0
     21123 MEMB     160      POPS     H11S     HAL2     0.900000E-01   1.00800           0
     21124 MEMB     160      POPS     C212     CTL2    -0.180000       12.0110           0
     21125 MEMB     160      POPS     H12R     HAL2     0.900000E-01   1.00800           0
     21126 MEMB     160      POPS     H12S     HAL2     0.900000E-01   1.00800           0
     21127 MEMB     160      POPS     C213     CTL2    -0.180000       12.0110           0
     21128 MEMB     160      POPS     H13R     HAL2     0.900000E-01   1.00800           0
     21129 MEMB     160      POPS     H13S     HAL2     0.900000E-01   1.00800           0
     21130 MEMB     160      POPS     C214     CTL2    -0.180000       12.0110           0
     21131 MEMB     160      POPS     H14R     HAL2     0.900000E-01   1.00800           0
     21132 MEMB     160      POPS     H14S     HAL2     0.900000E-01   1.00800           0
     21133 MEMB     160      POPS     C215     CTL2    -0.180000       12.0110           0
     21134 MEMB     160      POPS     H15R     HAL2     0.900000E-01   1.00800           0
     21135 MEMB     160      POPS     H15S     HAL2     0.900000E-01   1.00800           0
     21136 MEMB     160      POPS     C216     CTL2    -0.180000       12.0110           0
     21137 MEMB     160      POPS     H16R     HAL2     0.900000E-01   1.00800           0
     21138 MEMB     160      POPS     H16S     HAL2     0.900000E-01   1.00800           0
     21139 MEMB     160      POPS     C217     CTL2    -0.180000       12.0110           0
     21140 MEMB     160      POPS     H17R     HAL2     0.900000E-01   1.00800           0
     21141 MEMB     160      POPS     H17S     HAL2     0.900000E-01   1.00800           0
     21142 MEMB     160      POPS     C218     CTL3    -0.270000       12.0110           0
     21143 MEMB     160      POPS     H18R     HAL3     0.900000E-01   1.00800           0
     21144 MEMB     160      POPS     H18S     HAL3     0.900000E-01   1.00800           0
     21145 MEMB     160      POPS     H18T     HAL3     0.900000E-01   1.00800           0
     21146 MEMB     160      POPS     C33      CTL2    -0.180000       12.0110           0
     21147 MEMB     160      POPS     H3X      HAL2     0.900000E-01   1.00800           0
     21148 MEMB     160      POPS     H3Y      HAL2     0.900000E-01   1.00800           0
     21149 MEMB     160      POPS     C34      CTL2    -0.180000       12.0110           0
     21150 MEMB     160      POPS     H4X      HAL2     0.900000E-01   1.00800           0
     21151 MEMB     160      POPS     H4Y      HAL2     0.900000E-01   1.00800           0
     21152 MEMB     160      POPS     C35      CTL2    -0.180000       12.0110           0
     21153 MEMB     160      POPS     H5X      HAL2     0.900000E-01   1.00800           0
     21154 MEMB     160      POPS     H5Y      HAL2     0.900000E-01   1.00800           0
     21155 MEMB     160      POPS     C36      CTL2    -0.180000       12.0110           0
     21156 MEMB     160      POPS     H6X      HAL2     0.900000E-01   1.00800           0
     21157 MEMB     160      POPS     H6Y      HAL2     0.900000E-01   1.00800           0
     21158 MEMB     160      POPS     C37      CTL2    -0.180000       12.0110           0
     21159 MEMB     160      POPS     H7X      HAL2     0.900000E-01   1.00800           0
     21160 MEMB     160      POPS     H7Y      HAL2     0.900000E-01   1.00800           0
     21161 MEMB     160      POPS     C38      CTL2    -0.180000       12.0110           0
     21162 MEMB     160      POPS     H8X      HAL2     0.900000E-01   1.00800           0
     21163 MEMB     160      POPS     H8Y      HAL2     0.900000E-01   1.00800           0
     21164 MEMB     160      POPS     C39      CTL2    -0.180000       12.0110           0
     21165 MEMB     160      POPS     H9X      HAL2     0.900000E-01   1.00800           0
     21166 MEMB     160      POPS     H9Y      HAL2     0.900000E-01   1.00800           0
     21167 MEMB     160      POPS     C310     CTL2    -0.180000       12.0110           0
     21168 MEMB     160      POPS     H10X     HAL2     0.900000E-01   1.00800           0
     21169 MEMB     160      POPS     H10Y     HAL2     0.900000E-01   1.00800           0
     21170 MEMB     160      POPS     C311     CTL2    -0.180000       12.0110           0
     21171 MEMB     160      POPS     H11X     HAL2     0.900000E-01   1.00800           0
     21172 MEMB     160      POPS     H11Y     HAL2     0.900000E-01   1.00800           0
     21173 MEMB     160      POPS     C312     CTL2    -0.180000       12.0110           0
     21174 MEMB     160      POPS     H12X     HAL2     0.900000E-01   1.00800           0
     21175 MEMB     160      POPS     H12Y     HAL2     0.900000E-01   1.00800           0
     21176 MEMB     160      POPS     C313     CTL2    -0.180000       12.0110           0
     21177 MEMB     160      POPS     H13X     HAL2     0.900000E-01   1.00800           0
     21178 MEMB     160      POPS     H13Y     HAL2     0.900000E-01   1.00800           0
     21179 MEMB     160      POPS     C314     CTL2    -0.180000       12.0110           0
     21180 MEMB     160      POPS     H14X     HAL2     0.900000E-01   1.00800           0
     21181 MEMB     160      POPS     H14Y     HAL2     0.900000E-01   1.00800           0
     21182 MEMB     160      POPS     C315     CTL2    -0.180000       12.0110           0
     21183 MEMB     160      POPS     H15X     HAL2     0.900000E-01   1.00800           0
     21184 MEMB     160      POPS     H15Y     HAL2     0.900000E-01   1.00800           0
     21185 MEMB     160      POPS     C316     CTL3    -0.270000       12.0110           0
     21186 MEMB     160      POPS     H16X     HAL3     0.900000E-01   1.00800           0
     21187 MEMB     160      POPS     H16Y     HAL3     0.900000E-01   1.00800           0
     21188 MEMB     160      POPS     H16Z     HAL3     0.900000E-01   1.00800           0
     21189 MEMB     161      POPC     N        NTL     -0.600000       14.0070           0
     21190 MEMB     161      POPC     C12      CTL2    -0.100000       12.0110           0
     21191 MEMB     161      POPC     H12A     HL       0.250000       1.00800           0
     21192 MEMB     161      POPC     H12B     HL       0.250000       1.00800           0
     21193 MEMB     161      POPC     C13      CTL5    -0.350000       12.0110           0
     21194 MEMB     161      POPC     H13A     HL       0.250000       1.00800           0
     21195 MEMB     161      POPC     H13B     HL       0.250000       1.00800           0
     21196 MEMB     161      POPC     H13C     HL       0.250000       1.00800           0
     21197 MEMB     161      POPC     C14      CTL5    -0.350000       12.0110           0
     21198 MEMB     161      POPC     H14A     HL       0.250000       1.00800           0
     21199 MEMB     161      POPC     H14B     HL       0.250000       1.00800           0
     21200 MEMB     161      POPC     H14C     HL       0.250000       1.00800           0
     21201 MEMB     161      POPC     C15      CTL5    -0.350000       12.0110           0
     21202 MEMB     161      POPC     H15A     HL       0.250000       1.00800           0
     21203 MEMB     161      POPC     H15B     HL       0.250000       1.00800           0
     21204 MEMB     161      POPC     H15C     HL       0.250000       1.00800           0
     21205 MEMB     161      POPC     C11      CTL2    -0.800000E-01   12.0110           0
     21206 MEMB     161      POPC     H11A     HAL2     0.900000E-01   1.00800           0
     21207 MEMB     161      POPC     H11B     HAL2     0.900000E-01   1.00800           0
     21208 MEMB     161      POPC     P        PL        1.50000       30.9740           0
     21209 MEMB     161      POPC     O13      O2L     -0.780000       15.9994           0
     21210 MEMB     161      POPC     O14      O2L     -0.780000       15.9994           0
     21211 MEMB     161      POPC     O12      OSLP    -0.570000       15.9994           0
     21212 MEMB     161      POPC     O11      OSLP    -0.570000       15.9994           0
     21213 MEMB     161      POPC     C1       CTL2    -0.800000E-01   12.0110           0
     21214 MEMB     161      POPC     HA       HAL2     0.900000E-01   1.00800           0
     21215 MEMB     161      POPC     HB       HAL2     0.900000E-01   1.00800           0
     21216 MEMB     161      POPC     C2       CTL1     0.170000       12.0110           0
     21217 MEMB     161      POPC     HS       HAL1     0.900000E-01   1.00800           0
     21218 MEMB     161      POPC     O21      OSL     -0.490000       15.9994           0
     21219 MEMB     161      POPC     C21      CL       0.900000       12.0110           0
     21220 MEMB     161      POPC     O22      OBL     -0.630000       15.9994           0
     21221 MEMB     161      POPC     C22      CTL2    -0.220000       12.0110           0
     21222 MEMB     161      POPC     H2R      HAL2     0.900000E-01   1.00800           0
     21223 MEMB     161      POPC     H2S      HAL2     0.900000E-01   1.00800           0
     21224 MEMB     161      POPC     C3       CTL2     0.800000E-01   12.0110           0
     21225 MEMB     161      POPC     HX       HAL2     0.900000E-01   1.00800           0
     21226 MEMB     161      POPC     HY       HAL2     0.900000E-01   1.00800           0
     21227 MEMB     161      POPC     O31      OSL     -0.490000       15.9994           0
     21228 MEMB     161      POPC     C31      CL       0.900000       12.0110           0
     21229 MEMB     161      POPC     O32      OBL     -0.630000       15.9994           0
     21230 MEMB     161      POPC     C32      CTL2    -0.220000       12.0110           0
     21231 MEMB     161      POPC     H2X      HAL2     0.900000E-01   1.00800           0
     21232 MEMB     161      POPC     H2Y      HAL2     0.900000E-01   1.00800           0
     21233 MEMB     161      POPC     C23      CTL2    -0.180000       12.0110           0
     21234 MEMB     161      POPC     H3R      HAL2     0.900000E-01   1.00800           0
     21235 MEMB     161      POPC     H3S      HAL2     0.900000E-01   1.00800           0
     21236 MEMB     161      POPC     C24      CTL2    -0.180000       12.0110           0
     21237 MEMB     161      POPC     H4R      HAL2     0.900000E-01   1.00800           0
     21238 MEMB     161      POPC     H4S      HAL2     0.900000E-01   1.00800           0
     21239 MEMB     161      POPC     C25      CTL2    -0.180000       12.0110           0
     21240 MEMB     161      POPC     H5R      HAL2     0.900000E-01   1.00800           0
     21241 MEMB     161      POPC     H5S      HAL2     0.900000E-01   1.00800           0
     21242 MEMB     161      POPC     C26      CTL2    -0.180000       12.0110           0
     21243 MEMB     161      POPC     H6R      HAL2     0.900000E-01   1.00800           0
     21244 MEMB     161      POPC     H6S      HAL2     0.900000E-01   1.00800           0
     21245 MEMB     161      POPC     C27      CTL2    -0.180000       12.0110           0
     21246 MEMB     161      POPC     H7R      HAL2     0.900000E-01   1.00800           0
     21247 MEMB     161      POPC     H7S      HAL2     0.900000E-01   1.00800           0
     21248 MEMB     161      POPC     C28      CTL2    -0.180000       12.0110           0
     21249 MEMB     161      POPC     H8R      HAL2     0.900000E-01   1.00800           0
     21250 MEMB     161      POPC     H8S      HAL2     0.900000E-01   1.00800           0
     21251 MEMB     161      POPC     C29      CEL1    -0.150000       12.0110           0
     21252 MEMB     161      POPC     H91      HEL1     0.150000       1.00800           0
     21253 MEMB     161      POPC     C210     CEL1    -0.150000       12.0110           0
     21254 MEMB     161      POPC     H101     HEL1     0.150000       1.00800           0
     21255 MEMB     161      POPC     C211     CTL2    -0.180000       12.0110           0
     21256 MEMB     161      POPC     H11R     HAL2     0.900000E-01   1.00800           0
     21257 MEMB     161      POPC     H11S     HAL2     0.900000E-01   1.00800           0
     21258 MEMB     161      POPC     C212     CTL2    -0.180000       12.0110           0
     21259 MEMB     161      POPC     H12R     HAL2     0.900000E-01   1.00800           0
     21260 MEMB     161      POPC     H12S     HAL2     0.900000E-01   1.00800           0
     21261 MEMB     161      POPC     C213     CTL2    -0.180000       12.0110           0
     21262 MEMB     161      POPC     H13R     HAL2     0.900000E-01   1.00800           0
     21263 MEMB     161      POPC     H13S     HAL2     0.900000E-01   1.00800           0
     21264 MEMB     161      POPC     C214     CTL2    -0.180000       12.0110           0
     21265 MEMB     161      POPC     H14R     HAL2     0.900000E-01   1.00800           0
     21266 MEMB     161      POPC     H14S     HAL2     0.900000E-01   1.00800           0
     21267 MEMB     161      POPC     C215     CTL2    -0.180000       12.0110           0
     21268 MEMB     161      POPC     H15R     HAL2     0.900000E-01   1.00800           0
     21269 MEMB     161      POPC     H15S     HAL2     0.900000E-01   1.00800           0
     21270 MEMB     161      POPC     C216     CTL2    -0.180000       12.0110           0
     21271 MEMB     161      POPC     H16R     HAL2     0.900000E-01   1.00800           0
     21272 MEMB     161      POPC     H16S     HAL2     0.900000E-01   1.00800           0
     21273 MEMB     161      POPC     C217     CTL2    -0.180000       12.0110           0
     21274 MEMB     161      POPC     H17R     HAL2     0.900000E-01   1.00800           0
     21275 MEMB     161      POPC     H17S     HAL2     0.900000E-01   1.00800           0
     21276 MEMB     161      POPC     C218     CTL3    -0.270000       12.0110           0
     21277 MEMB     161      POPC     H18R     HAL3     0.900000E-01   1.00800           0
     21278 MEMB     161      POPC     H18S     HAL3     0.900000E-01   1.00800           0
     21279 MEMB     161      POPC     H18T     HAL3     0.900000E-01   1.00800           0
     21280 MEMB     161      POPC     C33      CTL2    -0.180000       12.0110           0
     21281 MEMB     161      POPC     H3X      HAL2     0.900000E-01   1.00800           0
     21282 MEMB     161      POPC     H3Y      HAL2     0.900000E-01   1.00800           0
     21283 MEMB     161      POPC     C34      CTL2    -0.180000       12.0110           0
     21284 MEMB     161      POPC     H4X      HAL2     0.900000E-01   1.00800           0
     21285 MEMB     161      POPC     H4Y      HAL2     0.900000E-01   1.00800           0
     21286 MEMB     161      POPC     C35      CTL2    -0.180000       12.0110           0
     21287 MEMB     161      POPC     H5X      HAL2     0.900000E-01   1.00800           0
     21288 MEMB     161      POPC     H5Y      HAL2     0.900000E-01   1.00800           0
     21289 MEMB     161      POPC     C36      CTL2    -0.180000       12.0110           0
     21290 MEMB     161      POPC     H6X      HAL2     0.900000E-01   1.00800           0
     21291 MEMB     161      POPC     H6Y      HAL2     0.900000E-01   1.00800           0
     21292 MEMB     161      POPC     C37      CTL2    -0.180000       12.0110           0
     21293 MEMB     161      POPC     H7X      HAL2     0.900000E-01   1.00800           0
     21294 MEMB     161      POPC     H7Y      HAL2     0.900000E-01   1.00800           0
     21295 MEMB     161      POPC     C38      CTL2    -0.180000       12.0110           0
     21296 MEMB     161      POPC     H8X      HAL2     0.900000E-01   1.00800           0
     21297 MEMB     161      POPC     H8Y      HAL2     0.900000E-01   1.00800           0
     21298 MEMB     161      POPC     C39      CTL2    -0.180000       12.0110           0
     21299 MEMB     161      POPC     H9X      HAL2     0.900000E-01   1.00800           0
     21300 MEMB     161      POPC     H9Y      HAL2     0.900000E-01   1.00800           0
     21301 MEMB     161      POPC     C310     CTL2    -0.180000       12.0110           0
     21302 MEMB     161      POPC     H10X     HAL2     0.900000E-01   1.00800           0
     21303 MEMB     161      POPC     H10Y     HAL2     0.900000E-01   1.00800           0
     21304 MEMB     161      POPC     C311     CTL2    -0.180000       12.0110           0
     21305 MEMB     161      POPC     H11X     HAL2     0.900000E-01   1.00800           0
     21306 MEMB     161      POPC     H11Y     HAL2     0.900000E-01   1.00800           0
     21307 MEMB     161      POPC     C312     CTL2    -0.180000       12.0110           0
     21308 MEMB     161      POPC     H12X     HAL2     0.900000E-01   1.00800           0
     21309 MEMB     161      POPC     H12Y     HAL2     0.900000E-01   1.00800           0
     21310 MEMB     161      POPC     C313     CTL2    -0.180000       12.0110           0
     21311 MEMB     161      POPC     H13X     HAL2     0.900000E-01   1.00800           0
     21312 MEMB     161      POPC     H13Y     HAL2     0.900000E-01   1.00800           0
     21313 MEMB     161      POPC     C314     CTL2    -0.180000       12.0110           0
     21314 MEMB     161      POPC     H14X     HAL2     0.900000E-01   1.00800           0
     21315 MEMB     161      POPC     H14Y     HAL2     0.900000E-01   1.00800           0
     21316 MEMB     161      POPC     C315     CTL2    -0.180000       12.0110           0
     21317 MEMB     161      POPC     H15X     HAL2     0.900000E-01   1.00800           0
     21318 MEMB     161      POPC     H15Y     HAL2     0.900000E-01   1.00800           0
     21319 MEMB     161      POPC     C316     CTL3    -0.270000       12.0110           0
     21320 MEMB     161      POPC     H16X     HAL3     0.900000E-01   1.00800           0
     21321 MEMB     161      POPC     H16Y     HAL3     0.900000E-01   1.00800           0
     21322 MEMB     161      POPC     H16Z     HAL3     0.900000E-01   1.00800           0
     21323 MEMB     162      POPC     N        NTL     -0.600000       14.0070           0
     21324 MEMB     162      POPC     C12      CTL2    -0.100000       12.0110           0
     21325 MEMB     162      POPC     H12A     HL       0.250000       1.00800           0
     21326 MEMB     162      POPC     H12B     HL       0.250000       1.00800           0
     21327 MEMB     162      POPC     C13      CTL5    -0.350000       12.0110           0
     21328 MEMB     162      POPC     H13A     HL       0.250000       1.00800           0
     21329 MEMB     162      POPC     H13B     HL       0.250000       1.00800           0
     21330 MEMB     162      POPC     H13C     HL       0.250000       1.00800           0
     21331 MEMB     162      POPC     C14      CTL5    -0.350000       12.0110           0
     21332 MEMB     162      POPC     H14A     HL       0.250000       1.00800           0
     21333 MEMB     162      POPC     H14B     HL       0.250000       1.00800           0
     21334 MEMB     162      POPC     H14C     HL       0.250000       1.00800           0
     21335 MEMB     162      POPC     C15      CTL5    -0.350000       12.0110           0
     21336 MEMB     162      POPC     H15A     HL       0.250000       1.00800           0
     21337 MEMB     162      POPC     H15B     HL       0.250000       1.00800           0
     21338 MEMB     162      POPC     H15C     HL       0.250000       1.00800           0
     21339 MEMB     162      POPC     C11      CTL2    -0.800000E-01   12.0110           0
     21340 MEMB     162      POPC     H11A     HAL2     0.900000E-01   1.00800           0
     21341 MEMB     162      POPC     H11B     HAL2     0.900000E-01   1.00800           0
     21342 MEMB     162      POPC     P        PL        1.50000       30.9740           0
     21343 MEMB     162      POPC     O13      O2L     -0.780000       15.9994           0
     21344 MEMB     162      POPC     O14      O2L     -0.780000       15.9994           0
     21345 MEMB     162      POPC     O12      OSLP    -0.570000       15.9994           0
     21346 MEMB     162      POPC     O11      OSLP    -0.570000       15.9994           0
     21347 MEMB     162      POPC     C1       CTL2    -0.800000E-01   12.0110           0
     21348 MEMB     162      POPC     HA       HAL2     0.900000E-01   1.00800           0
     21349 MEMB     162      POPC     HB       HAL2     0.900000E-01   1.00800           0
     21350 MEMB     162      POPC     C2       CTL1     0.170000       12.0110           0
     21351 MEMB     162      POPC     HS       HAL1     0.900000E-01   1.00800           0
     21352 MEMB     162      POPC     O21      OSL     -0.490000       15.9994           0
     21353 MEMB     162      POPC     C21      CL       0.900000       12.0110           0
     21354 MEMB     162      POPC     O22      OBL     -0.630000       15.9994           0
     21355 MEMB     162      POPC     C22      CTL2    -0.220000       12.0110           0
     21356 MEMB     162      POPC     H2R      HAL2     0.900000E-01   1.00800           0
     21357 MEMB     162      POPC     H2S      HAL2     0.900000E-01   1.00800           0
     21358 MEMB     162      POPC     C3       CTL2     0.800000E-01   12.0110           0
     21359 MEMB     162      POPC     HX       HAL2     0.900000E-01   1.00800           0
     21360 MEMB     162      POPC     HY       HAL2     0.900000E-01   1.00800           0
     21361 MEMB     162      POPC     O31      OSL     -0.490000       15.9994           0
     21362 MEMB     162      POPC     C31      CL       0.900000       12.0110           0
     21363 MEMB     162      POPC     O32      OBL     -0.630000       15.9994           0
     21364 MEMB     162      POPC     C32      CTL2    -0.220000       12.0110           0
     21365 MEMB     162      POPC     H2X      HAL2     0.900000E-01   1.00800           0
     21366 MEMB     162      POPC     H2Y      HAL2     0.900000E-01   1.00800           0
     21367 MEMB     162      POPC     C23      CTL2    -0.180000       12.0110           0
     21368 MEMB     162      POPC     H3R      HAL2     0.900000E-01   1.00800           0
     21369 MEMB     162      POPC     H3S      HAL2     0.900000E-01   1.00800           0
     21370 MEMB     162      POPC     C24      CTL2    -0.180000       12.0110           0
     21371 MEMB     162      POPC     H4R      HAL2     0.900000E-01   1.00800           0
     21372 MEMB     162      POPC     H4S      HAL2     0.900000E-01   1.00800           0
     21373 MEMB     162      POPC     C25      CTL2    -0.180000       12.0110           0
     21374 MEMB     162      POPC     H5R      HAL2     0.900000E-01   1.00800           0
     21375 MEMB     162      POPC     H5S      HAL2     0.900000E-01   1.00800           0
     21376 MEMB     162      POPC     C26      CTL2    -0.180000       12.0110           0
     21377 MEMB     162      POPC     H6R      HAL2     0.900000E-01   1.00800           0
     21378 MEMB     162      POPC     H6S      HAL2     0.900000E-01   1.00800           0
     21379 MEMB     162      POPC     C27      CTL2    -0.180000       12.0110           0
     21380 MEMB     162      POPC     H7R      HAL2     0.900000E-01   1.00800           0
     21381 MEMB     162      POPC     H7S      HAL2     0.900000E-01   1.00800           0
     21382 MEMB     162      POPC     C28      CTL2    -0.180000       12.0110           0
     21383 MEMB     162      POPC     H8R      HAL2     0.900000E-01   1.00800           0
     21384 MEMB     162      POPC     H8S      HAL2     0.900000E-01   1.00800           0
     21385 MEMB     162      POPC     C29      CEL1    -0.150000       12.0110           0
     21386 MEMB     162      POPC     H91      HEL1     0.150000       1.00800           0
     21387 MEMB     162      POPC     C210     CEL1    -0.150000       12.0110           0
     21388 MEMB     162      POPC     H101     HEL1     0.150000       1.00800           0
     21389 MEMB     162      POPC     C211     CTL2    -0.180000       12.0110           0
     21390 MEMB     162      POPC     H11R     HAL2     0.900000E-01   1.00800           0
     21391 MEMB     162      POPC     H11S     HAL2     0.900000E-01   1.00800           0
     21392 MEMB     162      POPC     C212     CTL2    -0.180000       12.0110           0
     21393 MEMB     162      POPC     H12R     HAL2     0.900000E-01   1.00800           0
     21394 MEMB     162      POPC     H12S     HAL2     0.900000E-01   1.00800           0
     21395 MEMB     162      POPC     C213     CTL2    -0.180000       12.0110           0
     21396 MEMB     162      POPC     H13R     HAL2     0.900000E-01   1.00800           0
     21397 MEMB     162      POPC     H13S     HAL2     0.900000E-01   1.00800           0
     21398 MEMB     162      POPC     C214     CTL2    -0.180000       12.0110           0
     21399 MEMB     162      POPC     H14R     HAL2     0.900000E-01   1.00800           0
     21400 MEMB     162      POPC     H14S     HAL2     0.900000E-01   1.00800           0
     21401 MEMB     162      POPC     C215     CTL2    -0.180000       12.0110           0
     21402 MEMB     162      POPC     H15R     HAL2     0.900000E-01   1.00800           0
     21403 MEMB     162      POPC     H15S     HAL2     0.900000E-01   1.00800           0
     21404 MEMB     162      POPC     C216     CTL2    -0.180000       12.0110           0
     21405 MEMB     162      POPC     H16R     HAL2     0.900000E-01   1.00800           0
     21406 MEMB     162      POPC     H16S     HAL2     0.900000E-01   1.00800           0
     21407 MEMB     162      POPC     C217     CTL2    -0.180000       12.0110           0
     21408 MEMB     162      POPC     H17R     HAL2     0.900000E-01   1.00800           0
     21409 MEMB     162      POPC     H17S     HAL2     0.900000E-01   1.00800           0
     21410 MEMB     162      POPC     C218     CTL3    -0.270000       12.0110           0
     21411 MEMB     162      POPC     H18R     HAL3     0.900000E-01   1.00800           0
     21412 MEMB     162      POPC     H18S     HAL3     0.900000E-01   1.00800           0
     21413 MEMB     162      POPC     H18T     HAL3     0.900000E-01   1.00800           0
     21414 MEMB     162      POPC     C33      CTL2    -0.180000       12.0110           0
     21415 MEMB     162      POPC     H3X      HAL2     0.900000E-01   1.00800           0
     21416 MEMB     162      POPC     H3Y      HAL2     0.900000E-01   1.00800           0
     21417 MEMB     162      POPC     C34      CTL2    -0.180000       12.0110           0
     21418 MEMB     162      POPC     H4X      HAL2     0.900000E-01   1.00800           0
     21419 MEMB     162      POPC     H4Y      HAL2     0.900000E-01   1.00800           0
     21420 MEMB     162      POPC     C35      CTL2    -0.180000       12.0110           0
     21421 MEMB     162      POPC     H5X      HAL2     0.900000E-01   1.00800           0
     21422 MEMB     162      POPC     H5Y      HAL2     0.900000E-01   1.00800           0
     21423 MEMB     162      POPC     C36      CTL2    -0.180000       12.0110           0
     21424 MEMB     162      POPC     H6X      HAL2     0.900000E-01   1.00800           0
     21425 MEMB     162      POPC     H6Y      HAL2     0.900000E-01   1.00800           0
     21426 MEMB     162      POPC     C37      CTL2    -0.180000       12.0110           0
     21427 MEMB     162      POPC     H7X      HAL2     0.900000E-01   1.00800           0
     21428 MEMB     162      POPC     H7Y      HAL2     0.900000E-01   1.00800           0
     21429 MEMB     162      POPC     C38      CTL2    -0.180000       12.0110           0
     21430 MEMB     162      POPC     H8X      HAL2     0.900000E-01   1.00800           0
     21431 MEMB     162      POPC     H8Y      HAL2     0.900000E-01   1.00800           0
     21432 MEMB     162      POPC     C39      CTL2    -0.180000       12.0110           0
     21433 MEMB     162      POPC     H9X      HAL2     0.900000E-01   1.00800           0
     21434 MEMB     162      POPC     H9Y      HAL2     0.900000E-01   1.00800           0
     21435 MEMB     162      POPC     C310     CTL2    -0.180000       12.0110           0
     21436 MEMB     162      POPC     H10X     HAL2     0.900000E-01   1.00800           0
     21437 MEMB     162      POPC     H10Y     HAL2     0.900000E-01   1.00800           0
     21438 MEMB     162      POPC     C311     CTL2    -0.180000       12.0110           0
     21439 MEMB     162      POPC     H11X     HAL2     0.900000E-01   1.00800           0
     21440 MEMB     162      POPC     H11Y     HAL2     0.900000E-01   1.00800           0
     21441 MEMB     162      POPC     C312     CTL2    -0.180000       12.0110           0
     21442 MEMB     162      POPC     H12X     HAL2     0.900000E-01   1.00800           0
     21443 MEMB     162      POPC     H12Y     HAL2     0.900000E-01   1.00800           0
     21444 MEMB     162      POPC     C313     CTL2    -0.180000       12.0110           0
     21445 MEMB     162      POPC     H13X     HAL2     0.900000E-01   1.00800           0
     21446 MEMB     162      POPC     H13Y     HAL2     0.900000E-01   1.00800           0
     21447 MEMB     162      POPC     C314     CTL2    -0.180000       12.0110           0
     21448 MEMB     162      POPC     H14X     HAL2     0.900000E-01   1.00800           0
     21449 MEMB     162      POPC     H14Y     HAL2     0.900000E-01   1.00800           0
     21450 MEMB     162      POPC     C315     CTL2    -0.180000       12.0110           0
     21451 MEMB     162      POPC     H15X     HAL2     0.900000E-01   1.00800           0
     21452 MEMB     162      POPC     H15Y     HAL2     0.900000E-01   1.00800           0
     21453 MEMB     162      POPC     C316     CTL3    -0.270000       12.0110           0
     21454 MEMB     162      POPC     H16X     HAL3     0.900000E-01   1.00800           0
     21455 MEMB     162      POPC     H16Y     HAL3     0.900000E-01   1.00800           0
     21456 MEMB     162      POPC     H16Z     HAL3     0.900000E-01   1.00800           0
     21457 MEMB     163      POPC     N        NTL     -0.600000       14.0070           0
     21458 MEMB     163      POPC     C12      CTL2    -0.100000       12.0110           0
     21459 MEMB     163      POPC     H12A     HL       0.250000       1.00800           0
     21460 MEMB     163      POPC     H12B     HL       0.250000       1.00800           0
     21461 MEMB     163      POPC     C13      CTL5    -0.350000       12.0110           0
     21462 MEMB     163      POPC     H13A     HL       0.250000       1.00800           0
     21463 MEMB     163      POPC     H13B     HL       0.250000       1.00800           0
     21464 MEMB     163      POPC     H13C     HL       0.250000       1.00800           0
     21465 MEMB     163      POPC     C14      CTL5    -0.350000       12.0110           0
     21466 MEMB     163      POPC     H14A     HL       0.250000       1.00800           0
     21467 MEMB     163      POPC     H14B     HL       0.250000       1.00800           0
     21468 MEMB     163      POPC     H14C     HL       0.250000       1.00800           0
     21469 MEMB     163      POPC     C15      CTL5    -0.350000       12.0110           0
     21470 MEMB     163      POPC     H15A     HL       0.250000       1.00800           0
     21471 MEMB     163      POPC     H15B     HL       0.250000       1.00800           0
     21472 MEMB     163      POPC     H15C     HL       0.250000       1.00800           0
     21473 MEMB     163      POPC     C11      CTL2    -0.800000E-01   12.0110           0
     21474 MEMB     163      POPC     H11A     HAL2     0.900000E-01   1.00800           0
     21475 MEMB     163      POPC     H11B     HAL2     0.900000E-01   1.00800           0
     21476 MEMB     163      POPC     P        PL        1.50000       30.9740           0
     21477 MEMB     163      POPC     O13      O2L     -0.780000       15.9994           0
     21478 MEMB     163      POPC     O14      O2L     -0.780000       15.9994           0
     21479 MEMB     163      POPC     O12      OSLP    -0.570000       15.9994           0
     21480 MEMB     163      POPC     O11      OSLP    -0.570000       15.9994           0
     21481 MEMB     163      POPC     C1       CTL2    -0.800000E-01   12.0110           0
     21482 MEMB     163      POPC     HA       HAL2     0.900000E-01   1.00800           0
     21483 MEMB     163      POPC     HB       HAL2     0.900000E-01   1.00800           0
     21484 MEMB     163      POPC     C2       CTL1     0.170000       12.0110           0
     21485 MEMB     163      POPC     HS       HAL1     0.900000E-01   1.00800           0
     21486 MEMB     163      POPC     O21      OSL     -0.490000       15.9994           0
     21487 MEMB     163      POPC     C21      CL       0.900000       12.0110           0
     21488 MEMB     163      POPC     O22      OBL     -0.630000       15.9994           0
     21489 MEMB     163      POPC     C22      CTL2    -0.220000       12.0110           0
     21490 MEMB     163      POPC     H2R      HAL2     0.900000E-01   1.00800           0
     21491 MEMB     163      POPC     H2S      HAL2     0.900000E-01   1.00800           0
     21492 MEMB     163      POPC     C3       CTL2     0.800000E-01   12.0110           0
     21493 MEMB     163      POPC     HX       HAL2     0.900000E-01   1.00800           0
     21494 MEMB     163      POPC     HY       HAL2     0.900000E-01   1.00800           0
     21495 MEMB     163      POPC     O31      OSL     -0.490000       15.9994           0
     21496 MEMB     163      POPC     C31      CL       0.900000       12.0110           0
     21497 MEMB     163      POPC     O32      OBL     -0.630000       15.9994           0
     21498 MEMB     163      POPC     C32      CTL2    -0.220000       12.0110           0
     21499 MEMB     163      POPC     H2X      HAL2     0.900000E-01   1.00800           0
     21500 MEMB     163      POPC     H2Y      HAL2     0.900000E-01   1.00800           0
     21501 MEMB     163      POPC     C23      CTL2    -0.180000       12.0110           0
     21502 MEMB     163      POPC     H3R      HAL2     0.900000E-01   1.00800           0
     21503 MEMB     163      POPC     H3S      HAL2     0.900000E-01   1.00800           0
     21504 MEMB     163      POPC     C24      CTL2    -0.180000       12.0110           0
     21505 MEMB     163      POPC     H4R      HAL2     0.900000E-01   1.00800           0
     21506 MEMB     163      POPC     H4S      HAL2     0.900000E-01   1.00800           0
     21507 MEMB     163      POPC     C25      CTL2    -0.180000       12.0110           0
     21508 MEMB     163      POPC     H5R      HAL2     0.900000E-01   1.00800           0
     21509 MEMB     163      POPC     H5S      HAL2     0.900000E-01   1.00800           0
     21510 MEMB     163      POPC     C26      CTL2    -0.180000       12.0110           0
     21511 MEMB     163      POPC     H6R      HAL2     0.900000E-01   1.00800           0
     21512 MEMB     163      POPC     H6S      HAL2     0.900000E-01   1.00800           0
     21513 MEMB     163      POPC     C27      CTL2    -0.180000       12.0110           0
     21514 MEMB     163      POPC     H7R      HAL2     0.900000E-01   1.00800           0
     21515 MEMB     163      POPC     H7S      HAL2     0.900000E-01   1.00800           0
     21516 MEMB     163      POPC     C28      CTL2    -0.180000       12.0110           0
     21517 MEMB     163      POPC     H8R      HAL2     0.900000E-01   1.00800           0
     21518 MEMB     163      POPC     H8S      HAL2     0.900000E-01   1.00800           0
     21519 MEMB     163      POPC     C29      CEL1    -0.150000       12.0110           0
     21520 MEMB     163      POPC     H91      HEL1     0.150000       1.00800           0
     21521 MEMB     163      POPC     C210     CEL1    -0.150000       12.0110           0
     21522 MEMB     163      POPC     H101     HEL1     0.150000       1.00800           0
     21523 MEMB     163      POPC     C211     CTL2    -0.180000       12.0110           0
     21524 MEMB     163      POPC     H11R     HAL2     0.900000E-01   1.00800           0
     21525 MEMB     163      POPC     H11S     HAL2     0.900000E-01   1.00800           0
     21526 MEMB     163      POPC     C212     CTL2    -0.180000       12.0110           0
     21527 MEMB     163      POPC     H12R     HAL2     0.900000E-01   1.00800           0
     21528 MEMB     163      POPC     H12S     HAL2     0.900000E-01   1.00800           0
     21529 MEMB     163      POPC     C213     CTL2    -0.180000       12.0110           0
     21530 MEMB     163      POPC     H13R     HAL2     0.900000E-01   1.00800           0
     21531 MEMB     163      POPC     H13S     HAL2     0.900000E-01   1.00800           0
     21532 MEMB     163      POPC     C214     CTL2    -0.180000       12.0110           0
     21533 MEMB     163      POPC     H14R     HAL2     0.900000E-01   1.00800           0
     21534 MEMB     163      POPC     H14S     HAL2     0.900000E-01   1.00800           0
     21535 MEMB     163      POPC     C215     CTL2    -0.180000       12.0110           0
     21536 MEMB     163      POPC     H15R     HAL2     0.900000E-01   1.00800           0
     21537 MEMB     163      POPC     H15S     HAL2     0.900000E-01   1.00800           0
     21538 MEMB     163      POPC     C216     CTL2    -0.180000       12.0110           0
     21539 MEMB     163      POPC     H16R     HAL2     0.900000E-01   1.00800           0
     21540 MEMB     163      POPC     H16S     HAL2     0.900000E-01   1.00800           0
     21541 MEMB     163      POPC     C217     CTL2    -0.180000       12.0110           0
     21542 MEMB     163      POPC     H17R     HAL2     0.900000E-01   1.00800           0
     21543 MEMB     163      POPC     H17S     HAL2     0.900000E-01   1.00800           0
     21544 MEMB     163      POPC     C218     CTL3    -0.270000       12.0110           0
     21545 MEMB     163      POPC     H18R     HAL3     0.900000E-01   1.00800           0
     21546 MEMB     163      POPC     H18S     HAL3     0.900000E-01   1.00800           0
     21547 MEMB     163      POPC     H18T     HAL3     0.900000E-01   1.00800           0
     21548 MEMB     163      POPC     C33      CTL2    -0.180000       12.0110           0
     21549 MEMB     163      POPC     H3X      HAL2     0.900000E-01   1.00800           0
     21550 MEMB     163      POPC     H3Y      HAL2     0.900000E-01   1.00800           0
     21551 MEMB     163      POPC     C34      CTL2    -0.180000       12.0110           0
     21552 MEMB     163      POPC     H4X      HAL2     0.900000E-01   1.00800           0
     21553 MEMB     163      POPC     H4Y      HAL2     0.900000E-01   1.00800           0
     21554 MEMB     163      POPC     C35      CTL2    -0.180000       12.0110           0
     21555 MEMB     163      POPC     H5X      HAL2     0.900000E-01   1.00800           0
     21556 MEMB     163      POPC     H5Y      HAL2     0.900000E-01   1.00800           0
     21557 MEMB     163      POPC     C36      CTL2    -0.180000       12.0110           0
     21558 MEMB     163      POPC     H6X      HAL2     0.900000E-01   1.00800           0
     21559 MEMB     163      POPC     H6Y      HAL2     0.900000E-01   1.00800           0
     21560 MEMB     163      POPC     C37      CTL2    -0.180000       12.0110           0
     21561 MEMB     163      POPC     H7X      HAL2     0.900000E-01   1.00800           0
     21562 MEMB     163      POPC     H7Y      HAL2     0.900000E-01   1.00800           0
     21563 MEMB     163      POPC     C38      CTL2    -0.180000       12.0110           0
     21564 MEMB     163      POPC     H8X      HAL2     0.900000E-01   1.00800           0
     21565 MEMB     163      POPC     H8Y      HAL2     0.900000E-01   1.00800           0
     21566 MEMB     163      POPC     C39      CTL2    -0.180000       12.0110           0
     21567 MEMB     163      POPC     H9X      HAL2     0.900000E-01   1.00800           0
     21568 MEMB     163      POPC     H9Y      HAL2     0.900000E-01   1.00800           0
     21569 MEMB     163      POPC     C310     CTL2    -0.180000       12.0110           0
     21570 MEMB     163      POPC     H10X     HAL2     0.900000E-01   1.00800           0
     21571 MEMB     163      POPC     H10Y     HAL2     0.900000E-01   1.00800           0
     21572 MEMB     163      POPC     C311     CTL2    -0.180000       12.0110           0
     21573 MEMB     163      POPC     H11X     HAL2     0.900000E-01   1.00800           0
     21574 MEMB     163      POPC     H11Y     HAL2     0.900000E-01   1.00800           0
     21575 MEMB     163      POPC     C312     CTL2    -0.180000       12.0110           0
     21576 MEMB     163      POPC     H12X     HAL2     0.900000E-01   1.00800           0
     21577 MEMB     163      POPC     H12Y     HAL2     0.900000E-01   1.00800           0
     21578 MEMB     163      POPC     C313     CTL2    -0.180000       12.0110           0
     21579 MEMB     163      POPC     H13X     HAL2     0.900000E-01   1.00800           0
     21580 MEMB     163      POPC     H13Y     HAL2     0.900000E-01   1.00800           0
     21581 MEMB     163      POPC     C314     CTL2    -0.180000       12.0110           0
     21582 MEMB     163      POPC     H14X     HAL2     0.900000E-01   1.00800           0
     21583 MEMB     163      POPC     H14Y     HAL2     0.900000E-01   1.00800           0
     21584 MEMB     163      POPC     C315     CTL2    -0.180000       12.0110           0
     21585 MEMB     163      POPC     H15X     HAL2     0.900000E-01   1.00800           0
     21586 MEMB     163      POPC     H15Y     HAL2     0.900000E-01   1.00800           0
     21587 MEMB     163      POPC     C316     CTL3    -0.270000       12.0110           0
     21588 MEMB     163      POPC     H16X     HAL3     0.900000E-01   1.00800           0
     21589 MEMB     163      POPC     H16Y     HAL3     0.900000E-01   1.00800           0
     21590 MEMB     163      POPC     H16Z     HAL3     0.900000E-01   1.00800           0
     21591 MEMB     164      POPC     N        NTL     -0.600000       14.0070           0
     21592 MEMB     164      POPC     C12      CTL2    -0.100000       12.0110           0
     21593 MEMB     164      POPC     H12A     HL       0.250000       1.00800           0
     21594 MEMB     164      POPC     H12B     HL       0.250000       1.00800           0
     21595 MEMB     164      POPC     C13      CTL5    -0.350000       12.0110           0
     21596 MEMB     164      POPC     H13A     HL       0.250000       1.00800           0
     21597 MEMB     164      POPC     H13B     HL       0.250000       1.00800           0
     21598 MEMB     164      POPC     H13C     HL       0.250000       1.00800           0
     21599 MEMB     164      POPC     C14      CTL5    -0.350000       12.0110           0
     21600 MEMB     164      POPC     H14A     HL       0.250000       1.00800           0
     21601 MEMB     164      POPC     H14B     HL       0.250000       1.00800           0
     21602 MEMB     164      POPC     H14C     HL       0.250000       1.00800           0
     21603 MEMB     164      POPC     C15      CTL5    -0.350000       12.0110           0
     21604 MEMB     164      POPC     H15A     HL       0.250000       1.00800           0
     21605 MEMB     164      POPC     H15B     HL       0.250000       1.00800           0
     21606 MEMB     164      POPC     H15C     HL       0.250000       1.00800           0
     21607 MEMB     164      POPC     C11      CTL2    -0.800000E-01   12.0110           0
     21608 MEMB     164      POPC     H11A     HAL2     0.900000E-01   1.00800           0
     21609 MEMB     164      POPC     H11B     HAL2     0.900000E-01   1.00800           0
     21610 MEMB     164      POPC     P        PL        1.50000       30.9740           0
     21611 MEMB     164      POPC     O13      O2L     -0.780000       15.9994           0
     21612 MEMB     164      POPC     O14      O2L     -0.780000       15.9994           0
     21613 MEMB     164      POPC     O12      OSLP    -0.570000       15.9994           0
     21614 MEMB     164      POPC     O11      OSLP    -0.570000       15.9994           0
     21615 MEMB     164      POPC     C1       CTL2    -0.800000E-01   12.0110           0
     21616 MEMB     164      POPC     HA       HAL2     0.900000E-01   1.00800           0
     21617 MEMB     164      POPC     HB       HAL2     0.900000E-01   1.00800           0
     21618 MEMB     164      POPC     C2       CTL1     0.170000       12.0110           0
     21619 MEMB     164      POPC     HS       HAL1     0.900000E-01   1.00800           0
     21620 MEMB     164      POPC     O21      OSL     -0.490000       15.9994           0
     21621 MEMB     164      POPC     C21      CL       0.900000       12.0110           0
     21622 MEMB     164      POPC     O22      OBL     -0.630000       15.9994           0
     21623 MEMB     164      POPC     C22      CTL2    -0.220000       12.0110           0
     21624 MEMB     164      POPC     H2R      HAL2     0.900000E-01   1.00800           0
     21625 MEMB     164      POPC     H2S      HAL2     0.900000E-01   1.00800           0
     21626 MEMB     164      POPC     C3       CTL2     0.800000E-01   12.0110           0
     21627 MEMB     164      POPC     HX       HAL2     0.900000E-01   1.00800           0
     21628 MEMB     164      POPC     HY       HAL2     0.900000E-01   1.00800           0
     21629 MEMB     164      POPC     O31      OSL     -0.490000       15.9994           0
     21630 MEMB     164      POPC     C31      CL       0.900000       12.0110           0
     21631 MEMB     164      POPC     O32      OBL     -0.630000       15.9994           0
     21632 MEMB     164      POPC     C32      CTL2    -0.220000       12.0110           0
     21633 MEMB     164      POPC     H2X      HAL2     0.900000E-01   1.00800           0
     21634 MEMB     164      POPC     H2Y      HAL2     0.900000E-01   1.00800           0
     21635 MEMB     164      POPC     C23      CTL2    -0.180000       12.0110           0
     21636 MEMB     164      POPC     H3R      HAL2     0.900000E-01   1.00800           0
     21637 MEMB     164      POPC     H3S      HAL2     0.900000E-01   1.00800           0
     21638 MEMB     164      POPC     C24      CTL2    -0.180000       12.0110           0
     21639 MEMB     164      POPC     H4R      HAL2     0.900000E-01   1.00800           0
     21640 MEMB     164      POPC     H4S      HAL2     0.900000E-01   1.00800           0
     21641 MEMB     164      POPC     C25      CTL2    -0.180000       12.0110           0
     21642 MEMB     164      POPC     H5R      HAL2     0.900000E-01   1.00800           0
     21643 MEMB     164      POPC     H5S      HAL2     0.900000E-01   1.00800           0
     21644 MEMB     164      POPC     C26      CTL2    -0.180000       12.0110           0
     21645 MEMB     164      POPC     H6R      HAL2     0.900000E-01   1.00800           0
     21646 MEMB     164      POPC     H6S      HAL2     0.900000E-01   1.00800           0
     21647 MEMB     164      POPC     C27      CTL2    -0.180000       12.0110           0
     21648 MEMB     164      POPC     H7R      HAL2     0.900000E-01   1.00800           0
     21649 MEMB     164      POPC     H7S      HAL2     0.900000E-01   1.00800           0
     21650 MEMB     164      POPC     C28      CTL2    -0.180000       12.0110           0
     21651 MEMB     164      POPC     H8R      HAL2     0.900000E-01   1.00800           0
     21652 MEMB     164      POPC     H8S      HAL2     0.900000E-01   1.00800           0
     21653 MEMB     164      POPC     C29      CEL1    -0.150000       12.0110           0
     21654 MEMB     164      POPC     H91      HEL1     0.150000       1.00800           0
     21655 MEMB     164      POPC     C210     CEL1    -0.150000       12.0110           0
     21656 MEMB     164      POPC     H101     HEL1     0.150000       1.00800           0
     21657 MEMB     164      POPC     C211     CTL2    -0.180000       12.0110           0
     21658 MEMB     164      POPC     H11R     HAL2     0.900000E-01   1.00800           0
     21659 MEMB     164      POPC     H11S     HAL2     0.900000E-01   1.00800           0
     21660 MEMB     164      POPC     C212     CTL2    -0.180000       12.0110           0
     21661 MEMB     164      POPC     H12R     HAL2     0.900000E-01   1.00800           0
     21662 MEMB     164      POPC     H12S     HAL2     0.900000E-01   1.00800           0
     21663 MEMB     164      POPC     C213     CTL2    -0.180000       12.0110           0
     21664 MEMB     164      POPC     H13R     HAL2     0.900000E-01   1.00800           0
     21665 MEMB     164      POPC     H13S     HAL2     0.900000E-01   1.00800           0
     21666 MEMB     164      POPC     C214     CTL2    -0.180000       12.0110           0
     21667 MEMB     164      POPC     H14R     HAL2     0.900000E-01   1.00800           0
     21668 MEMB     164      POPC     H14S     HAL2     0.900000E-01   1.00800           0
     21669 MEMB     164      POPC     C215     CTL2    -0.180000       12.0110           0
     21670 MEMB     164      POPC     H15R     HAL2     0.900000E-01   1.00800           0
     21671 MEMB     164      POPC     H15S     HAL2     0.900000E-01   1.00800           0
     21672 MEMB     164      POPC     C216     CTL2    -0.180000       12.0110           0
     21673 MEMB     164      POPC     H16R     HAL2     0.900000E-01   1.00800           0
     21674 MEMB     164      POPC     H16S     HAL2     0.900000E-01   1.00800           0
     21675 MEMB     164      POPC     C217     CTL2    -0.180000       12.0110           0
     21676 MEMB     164      POPC     H17R     HAL2     0.900000E-01   1.00800           0
     21677 MEMB     164      POPC     H17S     HAL2     0.900000E-01   1.00800           0
     21678 MEMB     164      POPC     C218     CTL3    -0.270000       12.0110           0
     21679 MEMB     164      POPC     H18R     HAL3     0.900000E-01   1.00800           0
     21680 MEMB     164      POPC     H18S     HAL3     0.900000E-01   1.00800           0
     21681 MEMB     164      POPC     H18T     HAL3     0.900000E-01   1.00800           0
     21682 MEMB     164      POPC     C33      CTL2    -0.180000       12.0110           0
     21683 MEMB     164      POPC     H3X      HAL2     0.900000E-01   1.00800           0
     21684 MEMB     164      POPC     H3Y      HAL2     0.900000E-01   1.00800           0
     21685 MEMB     164      POPC     C34      CTL2    -0.180000       12.0110           0
     21686 MEMB     164      POPC     H4X      HAL2     0.900000E-01   1.00800           0
     21687 MEMB     164      POPC     H4Y      HAL2     0.900000E-01   1.00800           0
     21688 MEMB     164      POPC     C35      CTL2    -0.180000       12.0110           0
     21689 MEMB     164      POPC     H5X      HAL2     0.900000E-01   1.00800           0
     21690 MEMB     164      POPC     H5Y      HAL2     0.900000E-01   1.00800           0
     21691 MEMB     164      POPC     C36      CTL2    -0.180000       12.0110           0
     21692 MEMB     164      POPC     H6X      HAL2     0.900000E-01   1.00800           0
     21693 MEMB     164      POPC     H6Y      HAL2     0.900000E-01   1.00800           0
     21694 MEMB     164      POPC     C37      CTL2    -0.180000       12.0110           0
     21695 MEMB     164      POPC     H7X      HAL2     0.900000E-01   1.00800           0
     21696 MEMB     164      POPC     H7Y      HAL2     0.900000E-01   1.00800           0
     21697 MEMB     164      POPC     C38      CTL2    -0.180000       12.0110           0
     21698 MEMB     164      POPC     H8X      HAL2     0.900000E-01   1.00800           0
     21699 MEMB     164      POPC     H8Y      HAL2     0.900000E-01   1.00800           0
     21700 MEMB     164      POPC     C39      CTL2    -0.180000       12.0110           0
     21701 MEMB     164      POPC     H9X      HAL2     0.900000E-01   1.00800           0
     21702 MEMB     164      POPC     H9Y      HAL2     0.900000E-01   1.00800           0
     21703 MEMB     164      POPC     C310     CTL2    -0.180000       12.0110           0
     21704 MEMB     164      POPC     H10X     HAL2     0.900000E-01   1.00800           0
     21705 MEMB     164      POPC     H10Y     HAL2     0.900000E-01   1.00800           0
     21706 MEMB     164      POPC     C311     CTL2    -0.180000       12.0110           0
     21707 MEMB     164      POPC     H11X     HAL2     0.900000E-01   1.00800           0
     21708 MEMB     164      POPC     H11Y     HAL2     0.900000E-01   1.00800           0
     21709 MEMB     164      POPC     C312     CTL2    -0.180000       12.0110           0
     21710 MEMB     164      POPC     H12X     HAL2     0.900000E-01   1.00800           0
     21711 MEMB     164      POPC     H12Y     HAL2     0.900000E-01   1.00800           0
     21712 MEMB     164      POPC     C313     CTL2    -0.180000       12.0110           0
     21713 MEMB     164      POPC     H13X     HAL2     0.900000E-01   1.00800           0
     21714 MEMB     164      POPC     H13Y     HAL2     0.900000E-01   1.00800           0
     21715 MEMB     164      POPC     C314     CTL2    -0.180000       12.0110           0
     21716 MEMB     164      POPC     H14X     HAL2     0.900000E-01   1.00800           0
     21717 MEMB     164      POPC     H14Y     HAL2     0.900000E-01   1.00800           0
     21718 MEMB     164      POPC     C315     CTL2    -0.180000       12.0110           0
     21719 MEMB     164      POPC     H15X     HAL2     0.900000E-01   1.00800           0
     21720 MEMB     164      POPC     H15Y     HAL2     0.900000E-01   1.00800           0
     21721 MEMB     164      POPC     C316     CTL3    -0.270000       12.0110           0
     21722 MEMB     164      POPC     H16X     HAL3     0.900000E-01   1.00800           0
     21723 MEMB     164      POPC     H16Y     HAL3     0.900000E-01   1.00800           0
     21724 MEMB     164      POPC     H16Z     HAL3     0.900000E-01   1.00800           0
     21725 MEMB     165      POPC     N        NTL     -0.600000       14.0070           0
     21726 MEMB     165      POPC     C12      CTL2    -0.100000       12.0110           0
     21727 MEMB     165      POPC     H12A     HL       0.250000       1.00800           0
     21728 MEMB     165      POPC     H12B     HL       0.250000       1.00800           0
     21729 MEMB     165      POPC     C13      CTL5    -0.350000       12.0110           0
     21730 MEMB     165      POPC     H13A     HL       0.250000       1.00800           0
     21731 MEMB     165      POPC     H13B     HL       0.250000       1.00800           0
     21732 MEMB     165      POPC     H13C     HL       0.250000       1.00800           0
     21733 MEMB     165      POPC     C14      CTL5    -0.350000       12.0110           0
     21734 MEMB     165      POPC     H14A     HL       0.250000       1.00800           0
     21735 MEMB     165      POPC     H14B     HL       0.250000       1.00800           0
     21736 MEMB     165      POPC     H14C     HL       0.250000       1.00800           0
     21737 MEMB     165      POPC     C15      CTL5    -0.350000       12.0110           0
     21738 MEMB     165      POPC     H15A     HL       0.250000       1.00800           0
     21739 MEMB     165      POPC     H15B     HL       0.250000       1.00800           0
     21740 MEMB     165      POPC     H15C     HL       0.250000       1.00800           0
     21741 MEMB     165      POPC     C11      CTL2    -0.800000E-01   12.0110           0
     21742 MEMB     165      POPC     H11A     HAL2     0.900000E-01   1.00800           0
     21743 MEMB     165      POPC     H11B     HAL2     0.900000E-01   1.00800           0
     21744 MEMB     165      POPC     P        PL        1.50000       30.9740           0
     21745 MEMB     165      POPC     O13      O2L     -0.780000       15.9994           0
     21746 MEMB     165      POPC     O14      O2L     -0.780000       15.9994           0
     21747 MEMB     165      POPC     O12      OSLP    -0.570000       15.9994           0
     21748 MEMB     165      POPC     O11      OSLP    -0.570000       15.9994           0
     21749 MEMB     165      POPC     C1       CTL2    -0.800000E-01   12.0110           0
     21750 MEMB     165      POPC     HA       HAL2     0.900000E-01   1.00800           0
     21751 MEMB     165      POPC     HB       HAL2     0.900000E-01   1.00800           0
     21752 MEMB     165      POPC     C2       CTL1     0.170000       12.0110           0
     21753 MEMB     165      POPC     HS       HAL1     0.900000E-01   1.00800           0
     21754 MEMB     165      POPC     O21      OSL     -0.490000       15.9994           0
     21755 MEMB     165      POPC     C21      CL       0.900000       12.0110           0
     21756 MEMB     165      POPC     O22      OBL     -0.630000       15.9994           0
     21757 MEMB     165      POPC     C22      CTL2    -0.220000       12.0110           0
     21758 MEMB     165      POPC     H2R      HAL2     0.900000E-01   1.00800           0
     21759 MEMB     165      POPC     H2S      HAL2     0.900000E-01   1.00800           0
     21760 MEMB     165      POPC     C3       CTL2     0.800000E-01   12.0110           0
     21761 MEMB     165      POPC     HX       HAL2     0.900000E-01   1.00800           0
     21762 MEMB     165      POPC     HY       HAL2     0.900000E-01   1.00800           0
     21763 MEMB     165      POPC     O31      OSL     -0.490000       15.9994           0
     21764 MEMB     165      POPC     C31      CL       0.900000       12.0110           0
     21765 MEMB     165      POPC     O32      OBL     -0.630000       15.9994           0
     21766 MEMB     165      POPC     C32      CTL2    -0.220000       12.0110           0
     21767 MEMB     165      POPC     H2X      HAL2     0.900000E-01   1.00800           0
     21768 MEMB     165      POPC     H2Y      HAL2     0.900000E-01   1.00800           0
     21769 MEMB     165      POPC     C23      CTL2    -0.180000       12.0110           0
     21770 MEMB     165      POPC     H3R      HAL2     0.900000E-01   1.00800           0
     21771 MEMB     165      POPC     H3S      HAL2     0.900000E-01   1.00800           0
     21772 MEMB     165      POPC     C24      CTL2    -0.180000       12.0110           0
     21773 MEMB     165      POPC     H4R      HAL2     0.900000E-01   1.00800           0
     21774 MEMB     165      POPC     H4S      HAL2     0.900000E-01   1.00800           0
     21775 MEMB     165      POPC     C25      CTL2    -0.180000       12.0110           0
     21776 MEMB     165      POPC     H5R      HAL2     0.900000E-01   1.00800           0
     21777 MEMB     165      POPC     H5S      HAL2     0.900000E-01   1.00800           0
     21778 MEMB     165      POPC     C26      CTL2    -0.180000       12.0110           0
     21779 MEMB     165      POPC     H6R      HAL2     0.900000E-01   1.00800           0
     21780 MEMB     165      POPC     H6S      HAL2     0.900000E-01   1.00800           0
     21781 MEMB     165      POPC     C27      CTL2    -0.180000       12.0110           0
     21782 MEMB     165      POPC     H7R      HAL2     0.900000E-01   1.00800           0
     21783 MEMB     165      POPC     H7S      HAL2     0.900000E-01   1.00800           0
     21784 MEMB     165      POPC     C28      CTL2    -0.180000       12.0110           0
     21785 MEMB     165      POPC     H8R      HAL2     0.900000E-01   1.00800           0
     21786 MEMB     165      POPC     H8S      HAL2     0.900000E-01   1.00800           0
     21787 MEMB     165      POPC     C29      CEL1    -0.150000       12.0110           0
     21788 MEMB     165      POPC     H91      HEL1     0.150000       1.00800           0
     21789 MEMB     165      POPC     C210     CEL1    -0.150000       12.0110           0
     21790 MEMB     165      POPC     H101     HEL1     0.150000       1.00800           0
     21791 MEMB     165      POPC     C211     CTL2    -0.180000       12.0110           0
     21792 MEMB     165      POPC     H11R     HAL2     0.900000E-01   1.00800           0
     21793 MEMB     165      POPC     H11S     HAL2     0.900000E-01   1.00800           0
     21794 MEMB     165      POPC     C212     CTL2    -0.180000       12.0110           0
     21795 MEMB     165      POPC     H12R     HAL2     0.900000E-01   1.00800           0
     21796 MEMB     165      POPC     H12S     HAL2     0.900000E-01   1.00800           0
     21797 MEMB     165      POPC     C213     CTL2    -0.180000       12.0110           0
     21798 MEMB     165      POPC     H13R     HAL2     0.900000E-01   1.00800           0
     21799 MEMB     165      POPC     H13S     HAL2     0.900000E-01   1.00800           0
     21800 MEMB     165      POPC     C214     CTL2    -0.180000       12.0110           0
     21801 MEMB     165      POPC     H14R     HAL2     0.900000E-01   1.00800           0
     21802 MEMB     165      POPC     H14S     HAL2     0.900000E-01   1.00800           0
     21803 MEMB     165      POPC     C215     CTL2    -0.180000       12.0110           0
     21804 MEMB     165      POPC     H15R     HAL2     0.900000E-01   1.00800           0
     21805 MEMB     165      POPC     H15S     HAL2     0.900000E-01   1.00800           0
     21806 MEMB     165      POPC     C216     CTL2    -0.180000       12.0110           0
     21807 MEMB     165      POPC     H16R     HAL2     0.900000E-01   1.00800           0
     21808 MEMB     165      POPC     H16S     HAL2     0.900000E-01   1.00800           0
     21809 MEMB     165      POPC     C217     CTL2    -0.180000       12.0110           0
     21810 MEMB     165      POPC     H17R     HAL2     0.900000E-01   1.00800           0
     21811 MEMB     165      POPC     H17S     HAL2     0.900000E-01   1.00800           0
     21812 MEMB     165      POPC     C218     CTL3    -0.270000       12.0110           0
     21813 MEMB     165      POPC     H18R     HAL3     0.900000E-01   1.00800           0
     21814 MEMB     165      POPC     H18S     HAL3     0.900000E-01   1.00800           0
     21815 MEMB     165      POPC     H18T     HAL3     0.900000E-01   1.00800           0
     21816 MEMB     165      POPC     C33      CTL2    -0.180000       12.0110           0
     21817 MEMB     165      POPC     H3X      HAL2     0.900000E-01   1.00800           0
     21818 MEMB     165      POPC     H3Y      HAL2     0.900000E-01   1.00800           0
     21819 MEMB     165      POPC     C34      CTL2    -0.180000       12.0110           0
     21820 MEMB     165      POPC     H4X      HAL2     0.900000E-01   1.00800           0
     21821 MEMB     165      POPC     H4Y      HAL2     0.900000E-01   1.00800           0
     21822 MEMB     165      POPC     C35      CTL2    -0.180000       12.0110           0
     21823 MEMB     165      POPC     H5X      HAL2     0.900000E-01   1.00800           0
     21824 MEMB     165      POPC     H5Y      HAL2     0.900000E-01   1.00800           0
     21825 MEMB     165      POPC     C36      CTL2    -0.180000       12.0110           0
     21826 MEMB     165      POPC     H6X      HAL2     0.900000E-01   1.00800           0
     21827 MEMB     165      POPC     H6Y      HAL2     0.900000E-01   1.00800           0
     21828 MEMB     165      POPC     C37      CTL2    -0.180000       12.0110           0
     21829 MEMB     165      POPC     H7X      HAL2     0.900000E-01   1.00800           0
     21830 MEMB     165      POPC     H7Y      HAL2     0.900000E-01   1.00800           0
     21831 MEMB     165      POPC     C38      CTL2    -0.180000       12.0110           0
     21832 MEMB     165      POPC     H8X      HAL2     0.900000E-01   1.00800           0
     21833 MEMB     165      POPC     H8Y      HAL2     0.900000E-01   1.00800           0
     21834 MEMB     165      POPC     C39      CTL2    -0.180000       12.0110           0
     21835 MEMB     165      POPC     H9X      HAL2     0.900000E-01   1.00800           0
     21836 MEMB     165      POPC     H9Y      HAL2     0.900000E-01   1.00800           0
     21837 MEMB     165      POPC     C310     CTL2    -0.180000       12.0110           0
     21838 MEMB     165      POPC     H10X     HAL2     0.900000E-01   1.00800           0
     21839 MEMB     165      POPC     H10Y     HAL2     0.900000E-01   1.00800           0
     21840 MEMB     165      POPC     C311     CTL2    -0.180000       12.0110           0
     21841 MEMB     165      POPC     H11X     HAL2     0.900000E-01   1.00800           0
     21842 MEMB     165      POPC     H11Y     HAL2     0.900000E-01   1.00800           0
     21843 MEMB     165      POPC     C312     CTL2    -0.180000       12.0110           0
     21844 MEMB     165      POPC     H12X     HAL2     0.900000E-01   1.00800           0
     21845 MEMB     165      POPC     H12Y     HAL2     0.900000E-01   1.00800           0
     21846 MEMB     165      POPC     C313     CTL2    -0.180000       12.0110           0
     21847 MEMB     165      POPC     H13X     HAL2     0.900000E-01   1.00800           0
     21848 MEMB     165      POPC     H13Y     HAL2     0.900000E-01   1.00800           0
     21849 MEMB     165      POPC     C314     CTL2    -0.180000       12.0110           0
     21850 MEMB     165      POPC     H14X     HAL2     0.900000E-01   1.00800           0
     21851 MEMB     165      POPC     H14Y     HAL2     0.900000E-01   1.00800           0
     21852 MEMB     165      POPC     C315     CTL2    -0.180000       12.0110           0
     21853 MEMB     165      POPC     H15X     HAL2     0.900000E-01   1.00800           0
     21854 MEMB     165      POPC     H15Y     HAL2     0.900000E-01   1.00800           0
     21855 MEMB     165      POPC     C316     CTL3    -0.270000       12.0110           0
     21856 MEMB     165      POPC     H16X     HAL3     0.900000E-01   1.00800           0
     21857 MEMB     165      POPC     H16Y     HAL3     0.900000E-01   1.00800           0
     21858 MEMB     165      POPC     H16Z     HAL3     0.900000E-01   1.00800           0
     21859 MEMB     166      POPC     N        NTL     -0.600000       14.0070           0
     21860 MEMB     166      POPC     C12      CTL2    -0.100000       12.0110           0
     21861 MEMB     166      POPC     H12A     HL       0.250000       1.00800           0
     21862 MEMB     166      POPC     H12B     HL       0.250000       1.00800           0
     21863 MEMB     166      POPC     C13      CTL5    -0.350000       12.0110           0
     21864 MEMB     166      POPC     H13A     HL       0.250000       1.00800           0
     21865 MEMB     166      POPC     H13B     HL       0.250000       1.00800           0
     21866 MEMB     166      POPC     H13C     HL       0.250000       1.00800           0
     21867 MEMB     166      POPC     C14      CTL5    -0.350000       12.0110           0
     21868 MEMB     166      POPC     H14A     HL       0.250000       1.00800           0
     21869 MEMB     166      POPC     H14B     HL       0.250000       1.00800           0
     21870 MEMB     166      POPC     H14C     HL       0.250000       1.00800           0
     21871 MEMB     166      POPC     C15      CTL5    -0.350000       12.0110           0
     21872 MEMB     166      POPC     H15A     HL       0.250000       1.00800           0
     21873 MEMB     166      POPC     H15B     HL       0.250000       1.00800           0
     21874 MEMB     166      POPC     H15C     HL       0.250000       1.00800           0
     21875 MEMB     166      POPC     C11      CTL2    -0.800000E-01   12.0110           0
     21876 MEMB     166      POPC     H11A     HAL2     0.900000E-01   1.00800           0
     21877 MEMB     166      POPC     H11B     HAL2     0.900000E-01   1.00800           0
     21878 MEMB     166      POPC     P        PL        1.50000       30.9740           0
     21879 MEMB     166      POPC     O13      O2L     -0.780000       15.9994           0
     21880 MEMB     166      POPC     O14      O2L     -0.780000       15.9994           0
     21881 MEMB     166      POPC     O12      OSLP    -0.570000       15.9994           0
     21882 MEMB     166      POPC     O11      OSLP    -0.570000       15.9994           0
     21883 MEMB     166      POPC     C1       CTL2    -0.800000E-01   12.0110           0
     21884 MEMB     166      POPC     HA       HAL2     0.900000E-01   1.00800           0
     21885 MEMB     166      POPC     HB       HAL2     0.900000E-01   1.00800           0
     21886 MEMB     166      POPC     C2       CTL1     0.170000       12.0110           0
     21887 MEMB     166      POPC     HS       HAL1     0.900000E-01   1.00800           0
     21888 MEMB     166      POPC     O21      OSL     -0.490000       15.9994           0
     21889 MEMB     166      POPC     C21      CL       0.900000       12.0110           0
     21890 MEMB     166      POPC     O22      OBL     -0.630000       15.9994           0
     21891 MEMB     166      POPC     C22      CTL2    -0.220000       12.0110           0
     21892 MEMB     166      POPC     H2R      HAL2     0.900000E-01   1.00800           0
     21893 MEMB     166      POPC     H2S      HAL2     0.900000E-01   1.00800           0
     21894 MEMB     166      POPC     C3       CTL2     0.800000E-01   12.0110           0
     21895 MEMB     166      POPC     HX       HAL2     0.900000E-01   1.00800           0
     21896 MEMB     166      POPC     HY       HAL2     0.900000E-01   1.00800           0
     21897 MEMB     166      POPC     O31      OSL     -0.490000       15.9994           0
     21898 MEMB     166      POPC     C31      CL       0.900000       12.0110           0
     21899 MEMB     166      POPC     O32      OBL     -0.630000       15.9994           0
     21900 MEMB     166      POPC     C32      CTL2    -0.220000       12.0110           0
     21901 MEMB     166      POPC     H2X      HAL2     0.900000E-01   1.00800           0
     21902 MEMB     166      POPC     H2Y      HAL2     0.900000E-01   1.00800           0
     21903 MEMB     166      POPC     C23      CTL2    -0.180000       12.0110           0
     21904 MEMB     166      POPC     H3R      HAL2     0.900000E-01   1.00800           0
     21905 MEMB     166      POPC     H3S      HAL2     0.900000E-01   1.00800           0
     21906 MEMB     166      POPC     C24      CTL2    -0.180000       12.0110           0
     21907 MEMB     166      POPC     H4R      HAL2     0.900000E-01   1.00800           0
     21908 MEMB     166      POPC     H4S      HAL2     0.900000E-01   1.00800           0
     21909 MEMB     166      POPC     C25      CTL2    -0.180000       12.0110           0
     21910 MEMB     166      POPC     H5R      HAL2     0.900000E-01   1.00800           0
     21911 MEMB     166      POPC     H5S      HAL2     0.900000E-01   1.00800           0
     21912 MEMB     166      POPC     C26      CTL2    -0.180000       12.0110           0
     21913 MEMB     166      POPC     H6R      HAL2     0.900000E-01   1.00800           0
     21914 MEMB     166      POPC     H6S      HAL2     0.900000E-01   1.00800           0
     21915 MEMB     166      POPC     C27      CTL2    -0.180000       12.0110           0
     21916 MEMB     166      POPC     H7R      HAL2     0.900000E-01   1.00800           0
     21917 MEMB     166      POPC     H7S      HAL2     0.900000E-01   1.00800           0
     21918 MEMB     166      POPC     C28      CTL2    -0.180000       12.0110           0
     21919 MEMB     166      POPC     H8R      HAL2     0.900000E-01   1.00800           0
     21920 MEMB     166      POPC     H8S      HAL2     0.900000E-01   1.00800           0
     21921 MEMB     166      POPC     C29      CEL1    -0.150000       12.0110           0
     21922 MEMB     166      POPC     H91      HEL1     0.150000       1.00800           0
     21923 MEMB     166      POPC     C210     CEL1    -0.150000       12.0110           0
     21924 MEMB     166      POPC     H101     HEL1     0.150000       1.00800           0
     21925 MEMB     166      POPC     C211     CTL2    -0.180000       12.0110           0
     21926 MEMB     166      POPC     H11R     HAL2     0.900000E-01   1.00800           0
     21927 MEMB     166      POPC     H11S     HAL2     0.900000E-01   1.00800           0
     21928 MEMB     166      POPC     C212     CTL2    -0.180000       12.0110           0
     21929 MEMB     166      POPC     H12R     HAL2     0.900000E-01   1.00800           0
     21930 MEMB     166      POPC     H12S     HAL2     0.900000E-01   1.00800           0
     21931 MEMB     166      POPC     C213     CTL2    -0.180000       12.0110           0
     21932 MEMB     166      POPC     H13R     HAL2     0.900000E-01   1.00800           0
     21933 MEMB     166      POPC     H13S     HAL2     0.900000E-01   1.00800           0
     21934 MEMB     166      POPC     C214     CTL2    -0.180000       12.0110           0
     21935 MEMB     166      POPC     H14R     HAL2     0.900000E-01   1.00800           0
     21936 MEMB     166      POPC     H14S     HAL2     0.900000E-01   1.00800           0
     21937 MEMB     166      POPC     C215     CTL2    -0.180000       12.0110           0
     21938 MEMB     166      POPC     H15R     HAL2     0.900000E-01   1.00800           0
     21939 MEMB     166      POPC     H15S     HAL2     0.900000E-01   1.00800           0
     21940 MEMB     166      POPC     C216     CTL2    -0.180000       12.0110           0
     21941 MEMB     166      POPC     H16R     HAL2     0.900000E-01   1.00800           0
     21942 MEMB     166      POPC     H16S     HAL2     0.900000E-01   1.00800           0
     21943 MEMB     166      POPC     C217     CTL2    -0.180000       12.0110           0
     21944 MEMB     166      POPC     H17R     HAL2     0.900000E-01   1.00800           0
     21945 MEMB     166      POPC     H17S     HAL2     0.900000E-01   1.00800           0
     21946 MEMB     166      POPC     C218     CTL3    -0.270000       12.0110           0
     21947 MEMB     166      POPC     H18R     HAL3     0.900000E-01   1.00800           0
     21948 MEMB     166      POPC     H18S     HAL3     0.900000E-01   1.00800           0
     21949 MEMB     166      POPC     H18T     HAL3     0.900000E-01   1.00800           0
     21950 MEMB     166      POPC     C33      CTL2    -0.180000       12.0110           0
     21951 MEMB     166      POPC     H3X      HAL2     0.900000E-01   1.00800           0
     21952 MEMB     166      POPC     H3Y      HAL2     0.900000E-01   1.00800           0
     21953 MEMB     166      POPC     C34      CTL2    -0.180000       12.0110           0
     21954 MEMB     166      POPC     H4X      HAL2     0.900000E-01   1.00800           0
     21955 MEMB     166      POPC     H4Y      HAL2     0.900000E-01   1.00800           0
     21956 MEMB     166      POPC     C35      CTL2    -0.180000       12.0110           0
     21957 MEMB     166      POPC     H5X      HAL2     0.900000E-01   1.00800           0
     21958 MEMB     166      POPC     H5Y      HAL2     0.900000E-01   1.00800           0
     21959 MEMB     166      POPC     C36      CTL2    -0.180000       12.0110           0
     21960 MEMB     166      POPC     H6X      HAL2     0.900000E-01   1.00800           0
     21961 MEMB     166      POPC     H6Y      HAL2     0.900000E-01   1.00800           0
     21962 MEMB     166      POPC     C37      CTL2    -0.180000       12.0110           0
     21963 MEMB     166      POPC     H7X      HAL2     0.900000E-01   1.00800           0
     21964 MEMB     166      POPC     H7Y      HAL2     0.900000E-01   1.00800           0
     21965 MEMB     166      POPC     C38      CTL2    -0.180000       12.0110           0
     21966 MEMB     166      POPC     H8X      HAL2     0.900000E-01   1.00800           0
     21967 MEMB     166      POPC     H8Y      HAL2     0.900000E-01   1.00800           0
     21968 MEMB     166      POPC     C39      CTL2    -0.180000       12.0110           0
     21969 MEMB     166      POPC     H9X      HAL2     0.900000E-01   1.00800           0
     21970 MEMB     166      POPC     H9Y      HAL2     0.900000E-01   1.00800           0
     21971 MEMB     166      POPC     C310     CTL2    -0.180000       12.0110           0
     21972 MEMB     166      POPC     H10X     HAL2     0.900000E-01   1.00800           0
     21973 MEMB     166      POPC     H10Y     HAL2     0.900000E-01   1.00800           0
     21974 MEMB     166      POPC     C311     CTL2    -0.180000       12.0110           0
     21975 MEMB     166      POPC     H11X     HAL2     0.900000E-01   1.00800           0
     21976 MEMB     166      POPC     H11Y     HAL2     0.900000E-01   1.00800           0
     21977 MEMB     166      POPC     C312     CTL2    -0.180000       12.0110           0
     21978 MEMB     166      POPC     H12X     HAL2     0.900000E-01   1.00800           0
     21979 MEMB     166      POPC     H12Y     HAL2     0.900000E-01   1.00800           0
     21980 MEMB     166      POPC     C313     CTL2    -0.180000       12.0110           0
     21981 MEMB     166      POPC     H13X     HAL2     0.900000E-01   1.00800           0
     21982 MEMB     166      POPC     H13Y     HAL2     0.900000E-01   1.00800           0
     21983 MEMB     166      POPC     C314     CTL2    -0.180000       12.0110           0
     21984 MEMB     166      POPC     H14X     HAL2     0.900000E-01   1.00800           0
     21985 MEMB     166      POPC     H14Y     HAL2     0.900000E-01   1.00800           0
     21986 MEMB     166      POPC     C315     CTL2    -0.180000       12.0110           0
     21987 MEMB     166      POPC     H15X     HAL2     0.900000E-01   1.00800           0
     21988 MEMB     166      POPC     H15Y     HAL2     0.900000E-01   1.00800           0
     21989 MEMB     166      POPC     C316     CTL3    -0.270000       12.0110           0
     21990 MEMB     166      POPC     H16X     HAL3     0.900000E-01   1.00800           0
     21991 MEMB     166      POPC     H16Y     HAL3     0.900000E-01   1.00800           0
     21992 MEMB     166      POPC     H16Z     HAL3     0.900000E-01   1.00800           0
     21993 MEMB     167      POPC     N        NTL     -0.600000       14.0070           0
     21994 MEMB     167      POPC     C12      CTL2    -0.100000       12.0110           0
     21995 MEMB     167      POPC     H12A     HL       0.250000       1.00800           0
     21996 MEMB     167      POPC     H12B     HL       0.250000       1.00800           0
     21997 MEMB     167      POPC     C13      CTL5    -0.350000       12.0110           0
     21998 MEMB     167      POPC     H13A     HL       0.250000       1.00800           0
     21999 MEMB     167      POPC     H13B     HL       0.250000       1.00800           0
     22000 MEMB     167      POPC     H13C     HL       0.250000       1.00800           0
     22001 MEMB     167      POPC     C14      CTL5    -0.350000       12.0110           0
     22002 MEMB     167      POPC     H14A     HL       0.250000       1.00800           0
     22003 MEMB     167      POPC     H14B     HL       0.250000       1.00800           0
     22004 MEMB     167      POPC     H14C     HL       0.250000       1.00800           0
     22005 MEMB     167      POPC     C15      CTL5    -0.350000       12.0110           0
     22006 MEMB     167      POPC     H15A     HL       0.250000       1.00800           0
     22007 MEMB     167      POPC     H15B     HL       0.250000       1.00800           0
     22008 MEMB     167      POPC     H15C     HL       0.250000       1.00800           0
     22009 MEMB     167      POPC     C11      CTL2    -0.800000E-01   12.0110           0
     22010 MEMB     167      POPC     H11A     HAL2     0.900000E-01   1.00800           0
     22011 MEMB     167      POPC     H11B     HAL2     0.900000E-01   1.00800           0
     22012 MEMB     167      POPC     P        PL        1.50000       30.9740           0
     22013 MEMB     167      POPC     O13      O2L     -0.780000       15.9994           0
     22014 MEMB     167      POPC     O14      O2L     -0.780000       15.9994           0
     22015 MEMB     167      POPC     O12      OSLP    -0.570000       15.9994           0
     22016 MEMB     167      POPC     O11      OSLP    -0.570000       15.9994           0
     22017 MEMB     167      POPC     C1       CTL2    -0.800000E-01   12.0110           0
     22018 MEMB     167      POPC     HA       HAL2     0.900000E-01   1.00800           0
     22019 MEMB     167      POPC     HB       HAL2     0.900000E-01   1.00800           0
     22020 MEMB     167      POPC     C2       CTL1     0.170000       12.0110           0
     22021 MEMB     167      POPC     HS       HAL1     0.900000E-01   1.00800           0
     22022 MEMB     167      POPC     O21      OSL     -0.490000       15.9994           0
     22023 MEMB     167      POPC     C21      CL       0.900000       12.0110           0
     22024 MEMB     167      POPC     O22      OBL     -0.630000       15.9994           0
     22025 MEMB     167      POPC     C22      CTL2    -0.220000       12.0110           0
     22026 MEMB     167      POPC     H2R      HAL2     0.900000E-01   1.00800           0
     22027 MEMB     167      POPC     H2S      HAL2     0.900000E-01   1.00800           0
     22028 MEMB     167      POPC     C3       CTL2     0.800000E-01   12.0110           0
     22029 MEMB     167      POPC     HX       HAL2     0.900000E-01   1.00800           0
     22030 MEMB     167      POPC     HY       HAL2     0.900000E-01   1.00800           0
     22031 MEMB     167      POPC     O31      OSL     -0.490000       15.9994           0
     22032 MEMB     167      POPC     C31      CL       0.900000       12.0110           0
     22033 MEMB     167      POPC     O32      OBL     -0.630000       15.9994           0
     22034 MEMB     167      POPC     C32      CTL2    -0.220000       12.0110           0
     22035 MEMB     167      POPC     H2X      HAL2     0.900000E-01   1.00800           0
     22036 MEMB     167      POPC     H2Y      HAL2     0.900000E-01   1.00800           0
     22037 MEMB     167      POPC     C23      CTL2    -0.180000       12.0110           0
     22038 MEMB     167      POPC     H3R      HAL2     0.900000E-01   1.00800           0
     22039 MEMB     167      POPC     H3S      HAL2     0.900000E-01   1.00800           0
     22040 MEMB     167      POPC     C24      CTL2    -0.180000       12.0110           0
     22041 MEMB     167      POPC     H4R      HAL2     0.900000E-01   1.00800           0
     22042 MEMB     167      POPC     H4S      HAL2     0.900000E-01   1.00800           0
     22043 MEMB     167      POPC     C25      CTL2    -0.180000       12.0110           0
     22044 MEMB     167      POPC     H5R      HAL2     0.900000E-01   1.00800           0
     22045 MEMB     167      POPC     H5S      HAL2     0.900000E-01   1.00800           0
     22046 MEMB     167      POPC     C26      CTL2    -0.180000       12.0110           0
     22047 MEMB     167      POPC     H6R      HAL2     0.900000E-01   1.00800           0
     22048 MEMB     167      POPC     H6S      HAL2     0.900000E-01   1.00800           0
     22049 MEMB     167      POPC     C27      CTL2    -0.180000       12.0110           0
     22050 MEMB     167      POPC     H7R      HAL2     0.900000E-01   1.00800           0
     22051 MEMB     167      POPC     H7S      HAL2     0.900000E-01   1.00800           0
     22052 MEMB     167      POPC     C28      CTL2    -0.180000       12.0110           0
     22053 MEMB     167      POPC     H8R      HAL2     0.900000E-01   1.00800           0
     22054 MEMB     167      POPC     H8S      HAL2     0.900000E-01   1.00800           0
     22055 MEMB     167      POPC     C29      CEL1    -0.150000       12.0110           0
     22056 MEMB     167      POPC     H91      HEL1     0.150000       1.00800           0
     22057 MEMB     167      POPC     C210     CEL1    -0.150000       12.0110           0
     22058 MEMB     167      POPC     H101     HEL1     0.150000       1.00800           0
     22059 MEMB     167      POPC     C211     CTL2    -0.180000       12.0110           0
     22060 MEMB     167      POPC     H11R     HAL2     0.900000E-01   1.00800           0
     22061 MEMB     167      POPC     H11S     HAL2     0.900000E-01   1.00800           0
     22062 MEMB     167      POPC     C212     CTL2    -0.180000       12.0110           0
     22063 MEMB     167      POPC     H12R     HAL2     0.900000E-01   1.00800           0
     22064 MEMB     167      POPC     H12S     HAL2     0.900000E-01   1.00800           0
     22065 MEMB     167      POPC     C213     CTL2    -0.180000       12.0110           0
     22066 MEMB     167      POPC     H13R     HAL2     0.900000E-01   1.00800           0
     22067 MEMB     167      POPC     H13S     HAL2     0.900000E-01   1.00800           0
     22068 MEMB     167      POPC     C214     CTL2    -0.180000       12.0110           0
     22069 MEMB     167      POPC     H14R     HAL2     0.900000E-01   1.00800           0
     22070 MEMB     167      POPC     H14S     HAL2     0.900000E-01   1.00800           0
     22071 MEMB     167      POPC     C215     CTL2    -0.180000       12.0110           0
     22072 MEMB     167      POPC     H15R     HAL2     0.900000E-01   1.00800           0
     22073 MEMB     167      POPC     H15S     HAL2     0.900000E-01   1.00800           0
     22074 MEMB     167      POPC     C216     CTL2    -0.180000       12.0110           0
     22075 MEMB     167      POPC     H16R     HAL2     0.900000E-01   1.00800           0
     22076 MEMB     167      POPC     H16S     HAL2     0.900000E-01   1.00800           0
     22077 MEMB     167      POPC     C217     CTL2    -0.180000       12.0110           0
     22078 MEMB     167      POPC     H17R     HAL2     0.900000E-01   1.00800           0
     22079 MEMB     167      POPC     H17S     HAL2     0.900000E-01   1.00800           0
     22080 MEMB     167      POPC     C218     CTL3    -0.270000       12.0110           0
     22081 MEMB     167      POPC     H18R     HAL3     0.900000E-01   1.00800           0
     22082 MEMB     167      POPC     H18S     HAL3     0.900000E-01   1.00800           0
     22083 MEMB     167      POPC     H18T     HAL3     0.900000E-01   1.00800           0
     22084 MEMB     167      POPC     C33      CTL2    -0.180000       12.0110           0
     22085 MEMB     167      POPC     H3X      HAL2     0.900000E-01   1.00800           0
     22086 MEMB     167      POPC     H3Y      HAL2     0.900000E-01   1.00800           0
     22087 MEMB     167      POPC     C34      CTL2    -0.180000       12.0110           0
     22088 MEMB     167      POPC     H4X      HAL2     0.900000E-01   1.00800           0
     22089 MEMB     167      POPC     H4Y      HAL2     0.900000E-01   1.00800           0
     22090 MEMB     167      POPC     C35      CTL2    -0.180000       12.0110           0
     22091 MEMB     167      POPC     H5X      HAL2     0.900000E-01   1.00800           0
     22092 MEMB     167      POPC     H5Y      HAL2     0.900000E-01   1.00800           0
     22093 MEMB     167      POPC     C36      CTL2    -0.180000       12.0110           0
     22094 MEMB     167      POPC     H6X      HAL2     0.900000E-01   1.00800           0
     22095 MEMB     167      POPC     H6Y      HAL2     0.900000E-01   1.00800           0
     22096 MEMB     167      POPC     C37      CTL2    -0.180000       12.0110           0
     22097 MEMB     167      POPC     H7X      HAL2     0.900000E-01   1.00800           0
     22098 MEMB     167      POPC     H7Y      HAL2     0.900000E-01   1.00800           0
     22099 MEMB     167      POPC     C38      CTL2    -0.180000       12.0110           0
     22100 MEMB     167      POPC     H8X      HAL2     0.900000E-01   1.00800           0
     22101 MEMB     167      POPC     H8Y      HAL2     0.900000E-01   1.00800           0
     22102 MEMB     167      POPC     C39      CTL2    -0.180000       12.0110           0
     22103 MEMB     167      POPC     H9X      HAL2     0.900000E-01   1.00800           0
     22104 MEMB     167      POPC     H9Y      HAL2     0.900000E-01   1.00800           0
     22105 MEMB     167      POPC     C310     CTL2    -0.180000       12.0110           0
     22106 MEMB     167      POPC     H10X     HAL2     0.900000E-01   1.00800           0
     22107 MEMB     167      POPC     H10Y     HAL2     0.900000E-01   1.00800           0
     22108 MEMB     167      POPC     C311     CTL2    -0.180000       12.0110           0
     22109 MEMB     167      POPC     H11X     HAL2     0.900000E-01   1.00800           0
     22110 MEMB     167      POPC     H11Y     HAL2     0.900000E-01   1.00800           0
     22111 MEMB     167      POPC     C312     CTL2    -0.180000       12.0110           0
     22112 MEMB     167      POPC     H12X     HAL2     0.900000E-01   1.00800           0
     22113 MEMB     167      POPC     H12Y     HAL2     0.900000E-01   1.00800           0
     22114 MEMB     167      POPC     C313     CTL2    -0.180000       12.0110           0
     22115 MEMB     167      POPC     H13X     HAL2     0.900000E-01   1.00800           0
     22116 MEMB     167      POPC     H13Y     HAL2     0.900000E-01   1.00800           0
     22117 MEMB     167      POPC     C314     CTL2    -0.180000       12.0110           0
     22118 MEMB     167      POPC     H14X     HAL2     0.900000E-01   1.00800           0
     22119 MEMB     167      POPC     H14Y     HAL2     0.900000E-01   1.00800           0
     22120 MEMB     167      POPC     C315     CTL2    -0.180000       12.0110           0
     22121 MEMB     167      POPC     H15X     HAL2     0.900000E-01   1.00800           0
     22122 MEMB     167      POPC     H15Y     HAL2     0.900000E-01   1.00800           0
     22123 MEMB     167      POPC     C316     CTL3    -0.270000       12.0110           0
     22124 MEMB     167      POPC     H16X     HAL3     0.900000E-01   1.00800           0
     22125 MEMB     167      POPC     H16Y     HAL3     0.900000E-01   1.00800           0
     22126 MEMB     167      POPC     H16Z     HAL3     0.900000E-01   1.00800           0
     22127 MEMB     168      POPC     N        NTL     -0.600000       14.0070           0
     22128 MEMB     168      POPC     C12      CTL2    -0.100000       12.0110           0
     22129 MEMB     168      POPC     H12A     HL       0.250000       1.00800           0
     22130 MEMB     168      POPC     H12B     HL       0.250000       1.00800           0
     22131 MEMB     168      POPC     C13      CTL5    -0.350000       12.0110           0
     22132 MEMB     168      POPC     H13A     HL       0.250000       1.00800           0
     22133 MEMB     168      POPC     H13B     HL       0.250000       1.00800           0
     22134 MEMB     168      POPC     H13C     HL       0.250000       1.00800           0
     22135 MEMB     168      POPC     C14      CTL5    -0.350000       12.0110           0
     22136 MEMB     168      POPC     H14A     HL       0.250000       1.00800           0
     22137 MEMB     168      POPC     H14B     HL       0.250000       1.00800           0
     22138 MEMB     168      POPC     H14C     HL       0.250000       1.00800           0
     22139 MEMB     168      POPC     C15      CTL5    -0.350000       12.0110           0
     22140 MEMB     168      POPC     H15A     HL       0.250000       1.00800           0
     22141 MEMB     168      POPC     H15B     HL       0.250000       1.00800           0
     22142 MEMB     168      POPC     H15C     HL       0.250000       1.00800           0
     22143 MEMB     168      POPC     C11      CTL2    -0.800000E-01   12.0110           0
     22144 MEMB     168      POPC     H11A     HAL2     0.900000E-01   1.00800           0
     22145 MEMB     168      POPC     H11B     HAL2     0.900000E-01   1.00800           0
     22146 MEMB     168      POPC     P        PL        1.50000       30.9740           0
     22147 MEMB     168      POPC     O13      O2L     -0.780000       15.9994           0
     22148 MEMB     168      POPC     O14      O2L     -0.780000       15.9994           0
     22149 MEMB     168      POPC     O12      OSLP    -0.570000       15.9994           0
     22150 MEMB     168      POPC     O11      OSLP    -0.570000       15.9994           0
     22151 MEMB     168      POPC     C1       CTL2    -0.800000E-01   12.0110           0
     22152 MEMB     168      POPC     HA       HAL2     0.900000E-01   1.00800           0
     22153 MEMB     168      POPC     HB       HAL2     0.900000E-01   1.00800           0
     22154 MEMB     168      POPC     C2       CTL1     0.170000       12.0110           0
     22155 MEMB     168      POPC     HS       HAL1     0.900000E-01   1.00800           0
     22156 MEMB     168      POPC     O21      OSL     -0.490000       15.9994           0
     22157 MEMB     168      POPC     C21      CL       0.900000       12.0110           0
     22158 MEMB     168      POPC     O22      OBL     -0.630000       15.9994           0
     22159 MEMB     168      POPC     C22      CTL2    -0.220000       12.0110           0
     22160 MEMB     168      POPC     H2R      HAL2     0.900000E-01   1.00800           0
     22161 MEMB     168      POPC     H2S      HAL2     0.900000E-01   1.00800           0
     22162 MEMB     168      POPC     C3       CTL2     0.800000E-01   12.0110           0
     22163 MEMB     168      POPC     HX       HAL2     0.900000E-01   1.00800           0
     22164 MEMB     168      POPC     HY       HAL2     0.900000E-01   1.00800           0
     22165 MEMB     168      POPC     O31      OSL     -0.490000       15.9994           0
     22166 MEMB     168      POPC     C31      CL       0.900000       12.0110           0
     22167 MEMB     168      POPC     O32      OBL     -0.630000       15.9994           0
     22168 MEMB     168      POPC     C32      CTL2    -0.220000       12.0110           0
     22169 MEMB     168      POPC     H2X      HAL2     0.900000E-01   1.00800           0
     22170 MEMB     168      POPC     H2Y      HAL2     0.900000E-01   1.00800           0
     22171 MEMB     168      POPC     C23      CTL2    -0.180000       12.0110           0
     22172 MEMB     168      POPC     H3R      HAL2     0.900000E-01   1.00800           0
     22173 MEMB     168      POPC     H3S      HAL2     0.900000E-01   1.00800           0
     22174 MEMB     168      POPC     C24      CTL2    -0.180000       12.0110           0
     22175 MEMB     168      POPC     H4R      HAL2     0.900000E-01   1.00800           0
     22176 MEMB     168      POPC     H4S      HAL2     0.900000E-01   1.00800           0
     22177 MEMB     168      POPC     C25      CTL2    -0.180000       12.0110           0
     22178 MEMB     168      POPC     H5R      HAL2     0.900000E-01   1.00800           0
     22179 MEMB     168      POPC     H5S      HAL2     0.900000E-01   1.00800           0
     22180 MEMB     168      POPC     C26      CTL2    -0.180000       12.0110           0
     22181 MEMB     168      POPC     H6R      HAL2     0.900000E-01   1.00800           0
     22182 MEMB     168      POPC     H6S      HAL2     0.900000E-01   1.00800           0
     22183 MEMB     168      POPC     C27      CTL2    -0.180000       12.0110           0
     22184 MEMB     168      POPC     H7R      HAL2     0.900000E-01   1.00800           0
     22185 MEMB     168      POPC     H7S      HAL2     0.900000E-01   1.00800           0
     22186 MEMB     168      POPC     C28      CTL2    -0.180000       12.0110           0
     22187 MEMB     168      POPC     H8R      HAL2     0.900000E-01   1.00800           0
     22188 MEMB     168      POPC     H8S      HAL2     0.900000E-01   1.00800           0
     22189 MEMB     168      POPC     C29      CEL1    -0.150000       12.0110           0
     22190 MEMB     168      POPC     H91      HEL1     0.150000       1.00800           0
     22191 MEMB     168      POPC     C210     CEL1    -0.150000       12.0110           0
     22192 MEMB     168      POPC     H101     HEL1     0.150000       1.00800           0
     22193 MEMB     168      POPC     C211     CTL2    -0.180000       12.0110           0
     22194 MEMB     168      POPC     H11R     HAL2     0.900000E-01   1.00800           0
     22195 MEMB     168      POPC     H11S     HAL2     0.900000E-01   1.00800           0
     22196 MEMB     168      POPC     C212     CTL2    -0.180000       12.0110           0
     22197 MEMB     168      POPC     H12R     HAL2     0.900000E-01   1.00800           0
     22198 MEMB     168      POPC     H12S     HAL2     0.900000E-01   1.00800           0
     22199 MEMB     168      POPC     C213     CTL2    -0.180000       12.0110           0
     22200 MEMB     168      POPC     H13R     HAL2     0.900000E-01   1.00800           0
     22201 MEMB     168      POPC     H13S     HAL2     0.900000E-01   1.00800           0
     22202 MEMB     168      POPC     C214     CTL2    -0.180000       12.0110           0
     22203 MEMB     168      POPC     H14R     HAL2     0.900000E-01   1.00800           0
     22204 MEMB     168      POPC     H14S     HAL2     0.900000E-01   1.00800           0
     22205 MEMB     168      POPC     C215     CTL2    -0.180000       12.0110           0
     22206 MEMB     168      POPC     H15R     HAL2     0.900000E-01   1.00800           0
     22207 MEMB     168      POPC     H15S     HAL2     0.900000E-01   1.00800           0
     22208 MEMB     168      POPC     C216     CTL2    -0.180000       12.0110           0
     22209 MEMB     168      POPC     H16R     HAL2     0.900000E-01   1.00800           0
     22210 MEMB     168      POPC     H16S     HAL2     0.900000E-01   1.00800           0
     22211 MEMB     168      POPC     C217     CTL2    -0.180000       12.0110           0
     22212 MEMB     168      POPC     H17R     HAL2     0.900000E-01   1.00800           0
     22213 MEMB     168      POPC     H17S     HAL2     0.900000E-01   1.00800           0
     22214 MEMB     168      POPC     C218     CTL3    -0.270000       12.0110           0
     22215 MEMB     168      POPC     H18R     HAL3     0.900000E-01   1.00800           0
     22216 MEMB     168      POPC     H18S     HAL3     0.900000E-01   1.00800           0
     22217 MEMB     168      POPC     H18T     HAL3     0.900000E-01   1.00800           0
     22218 MEMB     168      POPC     C33      CTL2    -0.180000       12.0110           0
     22219 MEMB     168      POPC     H3X      HAL2     0.900000E-01   1.00800           0
     22220 MEMB     168      POPC     H3Y      HAL2     0.900000E-01   1.00800           0
     22221 MEMB     168      POPC     C34      CTL2    -0.180000       12.0110           0
     22222 MEMB     168      POPC     H4X      HAL2     0.900000E-01   1.00800           0
     22223 MEMB     168      POPC     H4Y      HAL2     0.900000E-01   1.00800           0
     22224 MEMB     168      POPC     C35      CTL2    -0.180000       12.0110           0
     22225 MEMB     168      POPC     H5X      HAL2     0.900000E-01   1.00800           0
     22226 MEMB     168      POPC     H5Y      HAL2     0.900000E-01   1.00800           0
     22227 MEMB     168      POPC     C36      CTL2    -0.180000       12.0110           0
     22228 MEMB     168      POPC     H6X      HAL2     0.900000E-01   1.00800           0
     22229 MEMB     168      POPC     H6Y      HAL2     0.900000E-01   1.00800           0
     22230 MEMB     168      POPC     C37      CTL2    -0.180000       12.0110           0
     22231 MEMB     168      POPC     H7X      HAL2     0.900000E-01   1.00800           0
     22232 MEMB     168      POPC     H7Y      HAL2     0.900000E-01   1.00800           0
     22233 MEMB     168      POPC     C38      CTL2    -0.180000       12.0110           0
     22234 MEMB     168      POPC     H8X      HAL2     0.900000E-01   1.00800           0
     22235 MEMB     168      POPC     H8Y      HAL2     0.900000E-01   1.00800           0
     22236 MEMB     168      POPC     C39      CTL2    -0.180000       12.0110           0
     22237 MEMB     168      POPC     H9X      HAL2     0.900000E-01   1.00800           0
     22238 MEMB     168      POPC     H9Y      HAL2     0.900000E-01   1.00800           0
     22239 MEMB     168      POPC     C310     CTL2    -0.180000       12.0110           0
     22240 MEMB     168      POPC     H10X     HAL2     0.900000E-01   1.00800           0
     22241 MEMB     168      POPC     H10Y     HAL2     0.900000E-01   1.00800           0
     22242 MEMB     168      POPC     C311     CTL2    -0.180000       12.0110           0
     22243 MEMB     168      POPC     H11X     HAL2     0.900000E-01   1.00800           0
     22244 MEMB     168      POPC     H11Y     HAL2     0.900000E-01   1.00800           0
     22245 MEMB     168      POPC     C312     CTL2    -0.180000       12.0110           0
     22246 MEMB     168      POPC     H12X     HAL2     0.900000E-01   1.00800           0
     22247 MEMB     168      POPC     H12Y     HAL2     0.900000E-01   1.00800           0
     22248 MEMB     168      POPC     C313     CTL2    -0.180000       12.0110           0
     22249 MEMB     168      POPC     H13X     HAL2     0.900000E-01   1.00800           0
     22250 MEMB     168      POPC     H13Y     HAL2     0.900000E-01   1.00800           0
     22251 MEMB     168      POPC     C314     CTL2    -0.180000       12.0110           0
     22252 MEMB     168      POPC     H14X     HAL2     0.900000E-01   1.00800           0
     22253 MEMB     168      POPC     H14Y     HAL2     0.900000E-01   1.00800           0
     22254 MEMB     168      POPC     C315     CTL2    -0.180000       12.0110           0
     22255 MEMB     168      POPC     H15X     HAL2     0.900000E-01   1.00800           0
     22256 MEMB     168      POPC     H15Y     HAL2     0.900000E-01   1.00800           0
     22257 MEMB     168      POPC     C316     CTL3    -0.270000       12.0110           0
     22258 MEMB     168      POPC     H16X     HAL3     0.900000E-01   1.00800           0
     22259 MEMB     168      POPC     H16Y     HAL3     0.900000E-01   1.00800           0
     22260 MEMB     168      POPC     H16Z     HAL3     0.900000E-01   1.00800           0
     22261 MEMB     169      POPC     N        NTL     -0.600000       14.0070           0
     22262 MEMB     169      POPC     C12      CTL2    -0.100000       12.0110           0
     22263 MEMB     169      POPC     H12A     HL       0.250000       1.00800           0
     22264 MEMB     169      POPC     H12B     HL       0.250000       1.00800           0
     22265 MEMB     169      POPC     C13      CTL5    -0.350000       12.0110           0
     22266 MEMB     169      POPC     H13A     HL       0.250000       1.00800           0
     22267 MEMB     169      POPC     H13B     HL       0.250000       1.00800           0
     22268 MEMB     169      POPC     H13C     HL       0.250000       1.00800           0
     22269 MEMB     169      POPC     C14      CTL5    -0.350000       12.0110           0
     22270 MEMB     169      POPC     H14A     HL       0.250000       1.00800           0
     22271 MEMB     169      POPC     H14B     HL       0.250000       1.00800           0
     22272 MEMB     169      POPC     H14C     HL       0.250000       1.00800           0
     22273 MEMB     169      POPC     C15      CTL5    -0.350000       12.0110           0
     22274 MEMB     169      POPC     H15A     HL       0.250000       1.00800           0
     22275 MEMB     169      POPC     H15B     HL       0.250000       1.00800           0
     22276 MEMB     169      POPC     H15C     HL       0.250000       1.00800           0
     22277 MEMB     169      POPC     C11      CTL2    -0.800000E-01   12.0110           0
     22278 MEMB     169      POPC     H11A     HAL2     0.900000E-01   1.00800           0
     22279 MEMB     169      POPC     H11B     HAL2     0.900000E-01   1.00800           0
     22280 MEMB     169      POPC     P        PL        1.50000       30.9740           0
     22281 MEMB     169      POPC     O13      O2L     -0.780000       15.9994           0
     22282 MEMB     169      POPC     O14      O2L     -0.780000       15.9994           0
     22283 MEMB     169      POPC     O12      OSLP    -0.570000       15.9994           0
     22284 MEMB     169      POPC     O11      OSLP    -0.570000       15.9994           0
     22285 MEMB     169      POPC     C1       CTL2    -0.800000E-01   12.0110           0
     22286 MEMB     169      POPC     HA       HAL2     0.900000E-01   1.00800           0
     22287 MEMB     169      POPC     HB       HAL2     0.900000E-01   1.00800           0
     22288 MEMB     169      POPC     C2       CTL1     0.170000       12.0110           0
     22289 MEMB     169      POPC     HS       HAL1     0.900000E-01   1.00800           0
     22290 MEMB     169      POPC     O21      OSL     -0.490000       15.9994           0
     22291 MEMB     169      POPC     C21      CL       0.900000       12.0110           0
     22292 MEMB     169      POPC     O22      OBL     -0.630000       15.9994           0
     22293 MEMB     169      POPC     C22      CTL2    -0.220000       12.0110           0
     22294 MEMB     169      POPC     H2R      HAL2     0.900000E-01   1.00800           0
     22295 MEMB     169      POPC     H2S      HAL2     0.900000E-01   1.00800           0
     22296 MEMB     169      POPC     C3       CTL2     0.800000E-01   12.0110           0
     22297 MEMB     169      POPC     HX       HAL2     0.900000E-01   1.00800           0
     22298 MEMB     169      POPC     HY       HAL2     0.900000E-01   1.00800           0
     22299 MEMB     169      POPC     O31      OSL     -0.490000       15.9994           0
     22300 MEMB     169      POPC     C31      CL       0.900000       12.0110           0
     22301 MEMB     169      POPC     O32      OBL     -0.630000       15.9994           0
     22302 MEMB     169      POPC     C32      CTL2    -0.220000       12.0110           0
     22303 MEMB     169      POPC     H2X      HAL2     0.900000E-01   1.00800           0
     22304 MEMB     169      POPC     H2Y      HAL2     0.900000E-01   1.00800           0
     22305 MEMB     169      POPC     C23      CTL2    -0.180000       12.0110           0
     22306 MEMB     169      POPC     H3R      HAL2     0.900000E-01   1.00800           0
     22307 MEMB     169      POPC     H3S      HAL2     0.900000E-01   1.00800           0
     22308 MEMB     169      POPC     C24      CTL2    -0.180000       12.0110           0
     22309 MEMB     169      POPC     H4R      HAL2     0.900000E-01   1.00800           0
     22310 MEMB     169      POPC     H4S      HAL2     0.900000E-01   1.00800           0
     22311 MEMB     169      POPC     C25      CTL2    -0.180000       12.0110           0
     22312 MEMB     169      POPC     H5R      HAL2     0.900000E-01   1.00800           0
     22313 MEMB     169      POPC     H5S      HAL2     0.900000E-01   1.00800           0
     22314 MEMB     169      POPC     C26      CTL2    -0.180000       12.0110           0
     22315 MEMB     169      POPC     H6R      HAL2     0.900000E-01   1.00800           0
     22316 MEMB     169      POPC     H6S      HAL2     0.900000E-01   1.00800           0
     22317 MEMB     169      POPC     C27      CTL2    -0.180000       12.0110           0
     22318 MEMB     169      POPC     H7R      HAL2     0.900000E-01   1.00800           0
     22319 MEMB     169      POPC     H7S      HAL2     0.900000E-01   1.00800           0
     22320 MEMB     169      POPC     C28      CTL2    -0.180000       12.0110           0
     22321 MEMB     169      POPC     H8R      HAL2     0.900000E-01   1.00800           0
     22322 MEMB     169      POPC     H8S      HAL2     0.900000E-01   1.00800           0
     22323 MEMB     169      POPC     C29      CEL1    -0.150000       12.0110           0
     22324 MEMB     169      POPC     H91      HEL1     0.150000       1.00800           0
     22325 MEMB     169      POPC     C210     CEL1    -0.150000       12.0110           0
     22326 MEMB     169      POPC     H101     HEL1     0.150000       1.00800           0
     22327 MEMB     169      POPC     C211     CTL2    -0.180000       12.0110           0
     22328 MEMB     169      POPC     H11R     HAL2     0.900000E-01   1.00800           0
     22329 MEMB     169      POPC     H11S     HAL2     0.900000E-01   1.00800           0
     22330 MEMB     169      POPC     C212     CTL2    -0.180000       12.0110           0
     22331 MEMB     169      POPC     H12R     HAL2     0.900000E-01   1.00800           0
     22332 MEMB     169      POPC     H12S     HAL2     0.900000E-01   1.00800           0
     22333 MEMB     169      POPC     C213     CTL2    -0.180000       12.0110           0
     22334 MEMB     169      POPC     H13R     HAL2     0.900000E-01   1.00800           0
     22335 MEMB     169      POPC     H13S     HAL2     0.900000E-01   1.00800           0
     22336 MEMB     169      POPC     C214     CTL2    -0.180000       12.0110           0
     22337 MEMB     169      POPC     H14R     HAL2     0.900000E-01   1.00800           0
     22338 MEMB     169      POPC     H14S     HAL2     0.900000E-01   1.00800           0
     22339 MEMB     169      POPC     C215     CTL2    -0.180000       12.0110           0
     22340 MEMB     169      POPC     H15R     HAL2     0.900000E-01   1.00800           0
     22341 MEMB     169      POPC     H15S     HAL2     0.900000E-01   1.00800           0
     22342 MEMB     169      POPC     C216     CTL2    -0.180000       12.0110           0
     22343 MEMB     169      POPC     H16R     HAL2     0.900000E-01   1.00800           0
     22344 MEMB     169      POPC     H16S     HAL2     0.900000E-01   1.00800           0
     22345 MEMB     169      POPC     C217     CTL2    -0.180000       12.0110           0
     22346 MEMB     169      POPC     H17R     HAL2     0.900000E-01   1.00800           0
     22347 MEMB     169      POPC     H17S     HAL2     0.900000E-01   1.00800           0
     22348 MEMB     169      POPC     C218     CTL3    -0.270000       12.0110           0
     22349 MEMB     169      POPC     H18R     HAL3     0.900000E-01   1.00800           0
     22350 MEMB     169      POPC     H18S     HAL3     0.900000E-01   1.00800           0
     22351 MEMB     169      POPC     H18T     HAL3     0.900000E-01   1.00800           0
     22352 MEMB     169      POPC     C33      CTL2    -0.180000       12.0110           0
     22353 MEMB     169      POPC     H3X      HAL2     0.900000E-01   1.00800           0
     22354 MEMB     169      POPC     H3Y      HAL2     0.900000E-01   1.00800           0
     22355 MEMB     169      POPC     C34      CTL2    -0.180000       12.0110           0
     22356 MEMB     169      POPC     H4X      HAL2     0.900000E-01   1.00800           0
     22357 MEMB     169      POPC     H4Y      HAL2     0.900000E-01   1.00800           0
     22358 MEMB     169      POPC     C35      CTL2    -0.180000       12.0110           0
     22359 MEMB     169      POPC     H5X      HAL2     0.900000E-01   1.00800           0
     22360 MEMB     169      POPC     H5Y      HAL2     0.900000E-01   1.00800           0
     22361 MEMB     169      POPC     C36      CTL2    -0.180000       12.0110           0
     22362 MEMB     169      POPC     H6X      HAL2     0.900000E-01   1.00800           0
     22363 MEMB     169      POPC     H6Y      HAL2     0.900000E-01   1.00800           0
     22364 MEMB     169      POPC     C37      CTL2    -0.180000       12.0110           0
     22365 MEMB     169      POPC     H7X      HAL2     0.900000E-01   1.00800           0
     22366 MEMB     169      POPC     H7Y      HAL2     0.900000E-01   1.00800           0
     22367 MEMB     169      POPC     C38      CTL2    -0.180000       12.0110           0
     22368 MEMB     169      POPC     H8X      HAL2     0.900000E-01   1.00800           0
     22369 MEMB     169      POPC     H8Y      HAL2     0.900000E-01   1.00800           0
     22370 MEMB     169      POPC     C39      CTL2    -0.180000       12.0110           0
     22371 MEMB     169      POPC     H9X      HAL2     0.900000E-01   1.00800           0
     22372 MEMB     169      POPC     H9Y      HAL2     0.900000E-01   1.00800           0
     22373 MEMB     169      POPC     C310     CTL2    -0.180000       12.0110           0
     22374 MEMB     169      POPC     H10X     HAL2     0.900000E-01   1.00800           0
     22375 MEMB     169      POPC     H10Y     HAL2     0.900000E-01   1.00800           0
     22376 MEMB     169      POPC     C311     CTL2    -0.180000       12.0110           0
     22377 MEMB     169      POPC     H11X     HAL2     0.900000E-01   1.00800           0
     22378 MEMB     169      POPC     H11Y     HAL2     0.900000E-01   1.00800           0
     22379 MEMB     169      POPC     C312     CTL2    -0.180000       12.0110           0
     22380 MEMB     169      POPC     H12X     HAL2     0.900000E-01   1.00800           0
     22381 MEMB     169      POPC     H12Y     HAL2     0.900000E-01   1.00800           0
     22382 MEMB     169      POPC     C313     CTL2    -0.180000       12.0110           0
     22383 MEMB     169      POPC     H13X     HAL2     0.900000E-01   1.00800           0
     22384 MEMB     169      POPC     H13Y     HAL2     0.900000E-01   1.00800           0
     22385 MEMB     169      POPC     C314     CTL2    -0.180000       12.0110           0
     22386 MEMB     169      POPC     H14X     HAL2     0.900000E-01   1.00800           0
     22387 MEMB     169      POPC     H14Y     HAL2     0.900000E-01   1.00800           0
     22388 MEMB     169      POPC     C315     CTL2    -0.180000       12.0110           0
     22389 MEMB     169      POPC     H15X     HAL2     0.900000E-01   1.00800           0
     22390 MEMB     169      POPC     H15Y     HAL2     0.900000E-01   1.00800           0
     22391 MEMB     169      POPC     C316     CTL3    -0.270000       12.0110           0
     22392 MEMB     169      POPC     H16X     HAL3     0.900000E-01   1.00800           0
     22393 MEMB     169      POPC     H16Y     HAL3     0.900000E-01   1.00800           0
     22394 MEMB     169      POPC     H16Z     HAL3     0.900000E-01   1.00800           0
     22395 MEMB     170      POPS     N        NH3L    -0.300000       14.0070           0
     22396 MEMB     170      POPS     HN1      HCL      0.330000       1.00800           0
     22397 MEMB     170      POPS     HN2      HCL      0.330000       1.00800           0
     22398 MEMB     170      POPS     HN3      HCL      0.330000       1.00800           0
     22399 MEMB     170      POPS     C12      CTL1     0.210000       12.0110           0
     22400 MEMB     170      POPS     H12A     HBL      0.100000       1.00800           0
     22401 MEMB     170      POPS     C13      CCL      0.340000       12.0110           0
     22402 MEMB     170      POPS     O13A     OCL     -0.670000       15.9994           0
     22403 MEMB     170      POPS     O13B     OCL     -0.670000       15.9994           0
     22404 MEMB     170      POPS     C11      CTL2    -0.800000E-01   12.0110           0
     22405 MEMB     170      POPS     H11A     HAL2     0.900000E-01   1.00800           0
     22406 MEMB     170      POPS     H11B     HAL2     0.900000E-01   1.00800           0
     22407 MEMB     170      POPS     P        PL        1.50000       30.9740           0
     22408 MEMB     170      POPS     O13      O2L     -0.780000       15.9994           0
     22409 MEMB     170      POPS     O14      O2L     -0.780000       15.9994           0
     22410 MEMB     170      POPS     O12      OSLP    -0.570000       15.9994           0
     22411 MEMB     170      POPS     O11      OSLP    -0.570000       15.9994           0
     22412 MEMB     170      POPS     C1       CTL2    -0.800000E-01   12.0110           0
     22413 MEMB     170      POPS     HA       HAL2     0.900000E-01   1.00800           0
     22414 MEMB     170      POPS     HB       HAL2     0.900000E-01   1.00800           0
     22415 MEMB     170      POPS     C2       CTL1     0.170000       12.0110           0
     22416 MEMB     170      POPS     HS       HAL1     0.900000E-01   1.00800           0
     22417 MEMB     170      POPS     O21      OSL     -0.490000       15.9994           0
     22418 MEMB     170      POPS     C21      CL       0.900000       12.0110           0
     22419 MEMB     170      POPS     O22      OBL     -0.630000       15.9994           0
     22420 MEMB     170      POPS     C22      CTL2    -0.220000       12.0110           0
     22421 MEMB     170      POPS     H2R      HAL2     0.900000E-01   1.00800           0
     22422 MEMB     170      POPS     H2S      HAL2     0.900000E-01   1.00800           0
     22423 MEMB     170      POPS     C3       CTL2     0.800000E-01   12.0110           0
     22424 MEMB     170      POPS     HX       HAL2     0.900000E-01   1.00800           0
     22425 MEMB     170      POPS     HY       HAL2     0.900000E-01   1.00800           0
     22426 MEMB     170      POPS     O31      OSL     -0.490000       15.9994           0
     22427 MEMB     170      POPS     C31      CL       0.900000       12.0110           0
     22428 MEMB     170      POPS     O32      OBL     -0.630000       15.9994           0
     22429 MEMB     170      POPS     C32      CTL2    -0.220000       12.0110           0
     22430 MEMB     170      POPS     H2X      HAL2     0.900000E-01   1.00800           0
     22431 MEMB     170      POPS     H2Y      HAL2     0.900000E-01   1.00800           0
     22432 MEMB     170      POPS     C23      CTL2    -0.180000       12.0110           0
     22433 MEMB     170      POPS     H3R      HAL2     0.900000E-01   1.00800           0
     22434 MEMB     170      POPS     H3S      HAL2     0.900000E-01   1.00800           0
     22435 MEMB     170      POPS     C24      CTL2    -0.180000       12.0110           0
     22436 MEMB     170      POPS     H4R      HAL2     0.900000E-01   1.00800           0
     22437 MEMB     170      POPS     H4S      HAL2     0.900000E-01   1.00800           0
     22438 MEMB     170      POPS     C25      CTL2    -0.180000       12.0110           0
     22439 MEMB     170      POPS     H5R      HAL2     0.900000E-01   1.00800           0
     22440 MEMB     170      POPS     H5S      HAL2     0.900000E-01   1.00800           0
     22441 MEMB     170      POPS     C26      CTL2    -0.180000       12.0110           0
     22442 MEMB     170      POPS     H6R      HAL2     0.900000E-01   1.00800           0
     22443 MEMB     170      POPS     H6S      HAL2     0.900000E-01   1.00800           0
     22444 MEMB     170      POPS     C27      CTL2    -0.180000       12.0110           0
     22445 MEMB     170      POPS     H7R      HAL2     0.900000E-01   1.00800           0
     22446 MEMB     170      POPS     H7S      HAL2     0.900000E-01   1.00800           0
     22447 MEMB     170      POPS     C28      CTL2    -0.180000       12.0110           0
     22448 MEMB     170      POPS     H8R      HAL2     0.900000E-01   1.00800           0
     22449 MEMB     170      POPS     H8S      HAL2     0.900000E-01   1.00800           0
     22450 MEMB     170      POPS     C29      CEL1    -0.150000       12.0110           0
     22451 MEMB     170      POPS     H91      HEL1     0.150000       1.00800           0
     22452 MEMB     170      POPS     C210     CEL1    -0.150000       12.0110           0
     22453 MEMB     170      POPS     H101     HEL1     0.150000       1.00800           0
     22454 MEMB     170      POPS     C211     CTL2    -0.180000       12.0110           0
     22455 MEMB     170      POPS     H11R     HAL2     0.900000E-01   1.00800           0
     22456 MEMB     170      POPS     H11S     HAL2     0.900000E-01   1.00800           0
     22457 MEMB     170      POPS     C212     CTL2    -0.180000       12.0110           0
     22458 MEMB     170      POPS     H12R     HAL2     0.900000E-01   1.00800           0
     22459 MEMB     170      POPS     H12S     HAL2     0.900000E-01   1.00800           0
     22460 MEMB     170      POPS     C213     CTL2    -0.180000       12.0110           0
     22461 MEMB     170      POPS     H13R     HAL2     0.900000E-01   1.00800           0
     22462 MEMB     170      POPS     H13S     HAL2     0.900000E-01   1.00800           0
     22463 MEMB     170      POPS     C214     CTL2    -0.180000       12.0110           0
     22464 MEMB     170      POPS     H14R     HAL2     0.900000E-01   1.00800           0
     22465 MEMB     170      POPS     H14S     HAL2     0.900000E-01   1.00800           0
     22466 MEMB     170      POPS     C215     CTL2    -0.180000       12.0110           0
     22467 MEMB     170      POPS     H15R     HAL2     0.900000E-01   1.00800           0
     22468 MEMB     170      POPS     H15S     HAL2     0.900000E-01   1.00800           0
     22469 MEMB     170      POPS     C216     CTL2    -0.180000       12.0110           0
     22470 MEMB     170      POPS     H16R     HAL2     0.900000E-01   1.00800           0
     22471 MEMB     170      POPS     H16S     HAL2     0.900000E-01   1.00800           0
     22472 MEMB     170      POPS     C217     CTL2    -0.180000       12.0110           0
     22473 MEMB     170      POPS     H17R     HAL2     0.900000E-01   1.00800           0
     22474 MEMB     170      POPS     H17S     HAL2     0.900000E-01   1.00800           0
     22475 MEMB     170      POPS     C218     CTL3    -0.270000       12.0110           0
     22476 MEMB     170      POPS     H18R     HAL3     0.900000E-01   1.00800           0
     22477 MEMB     170      POPS     H18S     HAL3     0.900000E-01   1.00800           0
     22478 MEMB     170      POPS     H18T     HAL3     0.900000E-01   1.00800           0
     22479 MEMB     170      POPS     C33      CTL2    -0.180000       12.0110           0
     22480 MEMB     170      POPS     H3X      HAL2     0.900000E-01   1.00800           0
     22481 MEMB     170      POPS     H3Y      HAL2     0.900000E-01   1.00800           0
     22482 MEMB     170      POPS     C34      CTL2    -0.180000       12.0110           0
     22483 MEMB     170      POPS     H4X      HAL2     0.900000E-01   1.00800           0
     22484 MEMB     170      POPS     H4Y      HAL2     0.900000E-01   1.00800           0
     22485 MEMB     170      POPS     C35      CTL2    -0.180000       12.0110           0
     22486 MEMB     170      POPS     H5X      HAL2     0.900000E-01   1.00800           0
     22487 MEMB     170      POPS     H5Y      HAL2     0.900000E-01   1.00800           0
     22488 MEMB     170      POPS     C36      CTL2    -0.180000       12.0110           0
     22489 MEMB     170      POPS     H6X      HAL2     0.900000E-01   1.00800           0
     22490 MEMB     170      POPS     H6Y      HAL2     0.900000E-01   1.00800           0
     22491 MEMB     170      POPS     C37      CTL2    -0.180000       12.0110           0
     22492 MEMB     170      POPS     H7X      HAL2     0.900000E-01   1.00800           0
     22493 MEMB     170      POPS     H7Y      HAL2     0.900000E-01   1.00800           0
     22494 MEMB     170      POPS     C38      CTL2    -0.180000       12.0110           0
     22495 MEMB     170      POPS     H8X      HAL2     0.900000E-01   1.00800           0
     22496 MEMB     170      POPS     H8Y      HAL2     0.900000E-01   1.00800           0
     22497 MEMB     170      POPS     C39      CTL2    -0.180000       12.0110           0
     22498 MEMB     170      POPS     H9X      HAL2     0.900000E-01   1.00800           0
     22499 MEMB     170      POPS     H9Y      HAL2     0.900000E-01   1.00800           0
     22500 MEMB     170      POPS     C310     CTL2    -0.180000       12.0110           0
     22501 MEMB     170      POPS     H10X     HAL2     0.900000E-01   1.00800           0
     22502 MEMB     170      POPS     H10Y     HAL2     0.900000E-01   1.00800           0
     22503 MEMB     170      POPS     C311     CTL2    -0.180000       12.0110           0
     22504 MEMB     170      POPS     H11X     HAL2     0.900000E-01   1.00800           0
     22505 MEMB     170      POPS     H11Y     HAL2     0.900000E-01   1.00800           0
     22506 MEMB     170      POPS     C312     CTL2    -0.180000       12.0110           0
     22507 MEMB     170      POPS     H12X     HAL2     0.900000E-01   1.00800           0
     22508 MEMB     170      POPS     H12Y     HAL2     0.900000E-01   1.00800           0
     22509 MEMB     170      POPS     C313     CTL2    -0.180000       12.0110           0
     22510 MEMB     170      POPS     H13X     HAL2     0.900000E-01   1.00800           0
     22511 MEMB     170      POPS     H13Y     HAL2     0.900000E-01   1.00800           0
     22512 MEMB     170      POPS     C314     CTL2    -0.180000       12.0110           0
     22513 MEMB     170      POPS     H14X     HAL2     0.900000E-01   1.00800           0
     22514 MEMB     170      POPS     H14Y     HAL2     0.900000E-01   1.00800           0
     22515 MEMB     170      POPS     C315     CTL2    -0.180000       12.0110           0
     22516 MEMB     170      POPS     H15X     HAL2     0.900000E-01   1.00800           0
     22517 MEMB     170      POPS     H15Y     HAL2     0.900000E-01   1.00800           0
     22518 MEMB     170      POPS     C316     CTL3    -0.270000       12.0110           0
     22519 MEMB     170      POPS     H16X     HAL3     0.900000E-01   1.00800           0
     22520 MEMB     170      POPS     H16Y     HAL3     0.900000E-01   1.00800           0
     22521 MEMB     170      POPS     H16Z     HAL3     0.900000E-01   1.00800           0
     22522 MEMB     171      POPC     N        NTL     -0.600000       14.0070           0
     22523 MEMB     171      POPC     C12      CTL2    -0.100000       12.0110           0
     22524 MEMB     171      POPC     H12A     HL       0.250000       1.00800           0
     22525 MEMB     171      POPC     H12B     HL       0.250000       1.00800           0
     22526 MEMB     171      POPC     C13      CTL5    -0.350000       12.0110           0
     22527 MEMB     171      POPC     H13A     HL       0.250000       1.00800           0
     22528 MEMB     171      POPC     H13B     HL       0.250000       1.00800           0
     22529 MEMB     171      POPC     H13C     HL       0.250000       1.00800           0
     22530 MEMB     171      POPC     C14      CTL5    -0.350000       12.0110           0
     22531 MEMB     171      POPC     H14A     HL       0.250000       1.00800           0
     22532 MEMB     171      POPC     H14B     HL       0.250000       1.00800           0
     22533 MEMB     171      POPC     H14C     HL       0.250000       1.00800           0
     22534 MEMB     171      POPC     C15      CTL5    -0.350000       12.0110           0
     22535 MEMB     171      POPC     H15A     HL       0.250000       1.00800           0
     22536 MEMB     171      POPC     H15B     HL       0.250000       1.00800           0
     22537 MEMB     171      POPC     H15C     HL       0.250000       1.00800           0
     22538 MEMB     171      POPC     C11      CTL2    -0.800000E-01   12.0110           0
     22539 MEMB     171      POPC     H11A     HAL2     0.900000E-01   1.00800           0
     22540 MEMB     171      POPC     H11B     HAL2     0.900000E-01   1.00800           0
     22541 MEMB     171      POPC     P        PL        1.50000       30.9740           0
     22542 MEMB     171      POPC     O13      O2L     -0.780000       15.9994           0
     22543 MEMB     171      POPC     O14      O2L     -0.780000       15.9994           0
     22544 MEMB     171      POPC     O12      OSLP    -0.570000       15.9994           0
     22545 MEMB     171      POPC     O11      OSLP    -0.570000       15.9994           0
     22546 MEMB     171      POPC     C1       CTL2    -0.800000E-01   12.0110           0
     22547 MEMB     171      POPC     HA       HAL2     0.900000E-01   1.00800           0
     22548 MEMB     171      POPC     HB       HAL2     0.900000E-01   1.00800           0
     22549 MEMB     171      POPC     C2       CTL1     0.170000       12.0110           0
     22550 MEMB     171      POPC     HS       HAL1     0.900000E-01   1.00800           0
     22551 MEMB     171      POPC     O21      OSL     -0.490000       15.9994           0
     22552 MEMB     171      POPC     C21      CL       0.900000       12.0110           0
     22553 MEMB     171      POPC     O22      OBL     -0.630000       15.9994           0
     22554 MEMB     171      POPC     C22      CTL2    -0.220000       12.0110           0
     22555 MEMB     171      POPC     H2R      HAL2     0.900000E-01   1.00800           0
     22556 MEMB     171      POPC     H2S      HAL2     0.900000E-01   1.00800           0
     22557 MEMB     171      POPC     C3       CTL2     0.800000E-01   12.0110           0
     22558 MEMB     171      POPC     HX       HAL2     0.900000E-01   1.00800           0
     22559 MEMB     171      POPC     HY       HAL2     0.900000E-01   1.00800           0
     22560 MEMB     171      POPC     O31      OSL     -0.490000       15.9994           0
     22561 MEMB     171      POPC     C31      CL       0.900000       12.0110           0
     22562 MEMB     171      POPC     O32      OBL     -0.630000       15.9994           0
     22563 MEMB     171      POPC     C32      CTL2    -0.220000       12.0110           0
     22564 MEMB     171      POPC     H2X      HAL2     0.900000E-01   1.00800           0
     22565 MEMB     171      POPC     H2Y      HAL2     0.900000E-01   1.00800           0
     22566 MEMB     171      POPC     C23      CTL2    -0.180000       12.0110           0
     22567 MEMB     171      POPC     H3R      HAL2     0.900000E-01   1.00800           0
     22568 MEMB     171      POPC     H3S      HAL2     0.900000E-01   1.00800           0
     22569 MEMB     171      POPC     C24      CTL2    -0.180000       12.0110           0
     22570 MEMB     171      POPC     H4R      HAL2     0.900000E-01   1.00800           0
     22571 MEMB     171      POPC     H4S      HAL2     0.900000E-01   1.00800           0
     22572 MEMB     171      POPC     C25      CTL2    -0.180000       12.0110           0
     22573 MEMB     171      POPC     H5R      HAL2     0.900000E-01   1.00800           0
     22574 MEMB     171      POPC     H5S      HAL2     0.900000E-01   1.00800           0
     22575 MEMB     171      POPC     C26      CTL2    -0.180000       12.0110           0
     22576 MEMB     171      POPC     H6R      HAL2     0.900000E-01   1.00800           0
     22577 MEMB     171      POPC     H6S      HAL2     0.900000E-01   1.00800           0
     22578 MEMB     171      POPC     C27      CTL2    -0.180000       12.0110           0
     22579 MEMB     171      POPC     H7R      HAL2     0.900000E-01   1.00800           0
     22580 MEMB     171      POPC     H7S      HAL2     0.900000E-01   1.00800           0
     22581 MEMB     171      POPC     C28      CTL2    -0.180000       12.0110           0
     22582 MEMB     171      POPC     H8R      HAL2     0.900000E-01   1.00800           0
     22583 MEMB     171      POPC     H8S      HAL2     0.900000E-01   1.00800           0
     22584 MEMB     171      POPC     C29      CEL1    -0.150000       12.0110           0
     22585 MEMB     171      POPC     H91      HEL1     0.150000       1.00800           0
     22586 MEMB     171      POPC     C210     CEL1    -0.150000       12.0110           0
     22587 MEMB     171      POPC     H101     HEL1     0.150000       1.00800           0
     22588 MEMB     171      POPC     C211     CTL2    -0.180000       12.0110           0
     22589 MEMB     171      POPC     H11R     HAL2     0.900000E-01   1.00800           0
     22590 MEMB     171      POPC     H11S     HAL2     0.900000E-01   1.00800           0
     22591 MEMB     171      POPC     C212     CTL2    -0.180000       12.0110           0
     22592 MEMB     171      POPC     H12R     HAL2     0.900000E-01   1.00800           0
     22593 MEMB     171      POPC     H12S     HAL2     0.900000E-01   1.00800           0
     22594 MEMB     171      POPC     C213     CTL2    -0.180000       12.0110           0
     22595 MEMB     171      POPC     H13R     HAL2     0.900000E-01   1.00800           0
     22596 MEMB     171      POPC     H13S     HAL2     0.900000E-01   1.00800           0
     22597 MEMB     171      POPC     C214     CTL2    -0.180000       12.0110           0
     22598 MEMB     171      POPC     H14R     HAL2     0.900000E-01   1.00800           0
     22599 MEMB     171      POPC     H14S     HAL2     0.900000E-01   1.00800           0
     22600 MEMB     171      POPC     C215     CTL2    -0.180000       12.0110           0
     22601 MEMB     171      POPC     H15R     HAL2     0.900000E-01   1.00800           0
     22602 MEMB     171      POPC     H15S     HAL2     0.900000E-01   1.00800           0
     22603 MEMB     171      POPC     C216     CTL2    -0.180000       12.0110           0
     22604 MEMB     171      POPC     H16R     HAL2     0.900000E-01   1.00800           0
     22605 MEMB     171      POPC     H16S     HAL2     0.900000E-01   1.00800           0
     22606 MEMB     171      POPC     C217     CTL2    -0.180000       12.0110           0
     22607 MEMB     171      POPC     H17R     HAL2     0.900000E-01   1.00800           0
     22608 MEMB     171      POPC     H17S     HAL2     0.900000E-01   1.00800           0
     22609 MEMB     171      POPC     C218     CTL3    -0.270000       12.0110           0
     22610 MEMB     171      POPC     H18R     HAL3     0.900000E-01   1.00800           0
     22611 MEMB     171      POPC     H18S     HAL3     0.900000E-01   1.00800           0
     22612 MEMB     171      POPC     H18T     HAL3     0.900000E-01   1.00800           0
     22613 MEMB     171      POPC     C33      CTL2    -0.180000       12.0110           0
     22614 MEMB     171      POPC     H3X      HAL2     0.900000E-01   1.00800           0
     22615 MEMB     171      POPC     H3Y      HAL2     0.900000E-01   1.00800           0
     22616 MEMB     171      POPC     C34      CTL2    -0.180000       12.0110           0
     22617 MEMB     171      POPC     H4X      HAL2     0.900000E-01   1.00800           0
     22618 MEMB     171      POPC     H4Y      HAL2     0.900000E-01   1.00800           0
     22619 MEMB     171      POPC     C35      CTL2    -0.180000       12.0110           0
     22620 MEMB     171      POPC     H5X      HAL2     0.900000E-01   1.00800           0
     22621 MEMB     171      POPC     H5Y      HAL2     0.900000E-01   1.00800           0
     22622 MEMB     171      POPC     C36      CTL2    -0.180000       12.0110           0
     22623 MEMB     171      POPC     H6X      HAL2     0.900000E-01   1.00800           0
     22624 MEMB     171      POPC     H6Y      HAL2     0.900000E-01   1.00800           0
     22625 MEMB     171      POPC     C37      CTL2    -0.180000       12.0110           0
     22626 MEMB     171      POPC     H7X      HAL2     0.900000E-01   1.00800           0
     22627 MEMB     171      POPC     H7Y      HAL2     0.900000E-01   1.00800           0
     22628 MEMB     171      POPC     C38      CTL2    -0.180000       12.0110           0
     22629 MEMB     171      POPC     H8X      HAL2     0.900000E-01   1.00800           0
     22630 MEMB     171      POPC     H8Y      HAL2     0.900000E-01   1.00800           0
     22631 MEMB     171      POPC     C39      CTL2    -0.180000       12.0110           0
     22632 MEMB     171      POPC     H9X      HAL2     0.900000E-01   1.00800           0
     22633 MEMB     171      POPC     H9Y      HAL2     0.900000E-01   1.00800           0
     22634 MEMB     171      POPC     C310     CTL2    -0.180000       12.0110           0
     22635 MEMB     171      POPC     H10X     HAL2     0.900000E-01   1.00800           0
     22636 MEMB     171      POPC     H10Y     HAL2     0.900000E-01   1.00800           0
     22637 MEMB     171      POPC     C311     CTL2    -0.180000       12.0110           0
     22638 MEMB     171      POPC     H11X     HAL2     0.900000E-01   1.00800           0
     22639 MEMB     171      POPC     H11Y     HAL2     0.900000E-01   1.00800           0
     22640 MEMB     171      POPC     C312     CTL2    -0.180000       12.0110           0
     22641 MEMB     171      POPC     H12X     HAL2     0.900000E-01   1.00800           0
     22642 MEMB     171      POPC     H12Y     HAL2     0.900000E-01   1.00800           0
     22643 MEMB     171      POPC     C313     CTL2    -0.180000       12.0110           0
     22644 MEMB     171      POPC     H13X     HAL2     0.900000E-01   1.00800           0
     22645 MEMB     171      POPC     H13Y     HAL2     0.900000E-01   1.00800           0
     22646 MEMB     171      POPC     C314     CTL2    -0.180000       12.0110           0
     22647 MEMB     171      POPC     H14X     HAL2     0.900000E-01   1.00800           0
     22648 MEMB     171      POPC     H14Y     HAL2     0.900000E-01   1.00800           0
     22649 MEMB     171      POPC     C315     CTL2    -0.180000       12.0110           0
     22650 MEMB     171      POPC     H15X     HAL2     0.900000E-01   1.00800           0
     22651 MEMB     171      POPC     H15Y     HAL2     0.900000E-01   1.00800           0
     22652 MEMB     171      POPC     C316     CTL3    -0.270000       12.0110           0
     22653 MEMB     171      POPC     H16X     HAL3     0.900000E-01   1.00800           0
     22654 MEMB     171      POPC     H16Y     HAL3     0.900000E-01   1.00800           0
     22655 MEMB     171      POPC     H16Z     HAL3     0.900000E-01   1.00800           0
     22656 MEMB     172      POPC     N        NTL     -0.600000       14.0070           0
     22657 MEMB     172      POPC     C12      CTL2    -0.100000       12.0110           0
     22658 MEMB     172      POPC     H12A     HL       0.250000       1.00800           0
     22659 MEMB     172      POPC     H12B     HL       0.250000       1.00800           0
     22660 MEMB     172      POPC     C13      CTL5    -0.350000       12.0110           0
     22661 MEMB     172      POPC     H13A     HL       0.250000       1.00800           0
     22662 MEMB     172      POPC     H13B     HL       0.250000       1.00800           0
     22663 MEMB     172      POPC     H13C     HL       0.250000       1.00800           0
     22664 MEMB     172      POPC     C14      CTL5    -0.350000       12.0110           0
     22665 MEMB     172      POPC     H14A     HL       0.250000       1.00800           0
     22666 MEMB     172      POPC     H14B     HL       0.250000       1.00800           0
     22667 MEMB     172      POPC     H14C     HL       0.250000       1.00800           0
     22668 MEMB     172      POPC     C15      CTL5    -0.350000       12.0110           0
     22669 MEMB     172      POPC     H15A     HL       0.250000       1.00800           0
     22670 MEMB     172      POPC     H15B     HL       0.250000       1.00800           0
     22671 MEMB     172      POPC     H15C     HL       0.250000       1.00800           0
     22672 MEMB     172      POPC     C11      CTL2    -0.800000E-01   12.0110           0
     22673 MEMB     172      POPC     H11A     HAL2     0.900000E-01   1.00800           0
     22674 MEMB     172      POPC     H11B     HAL2     0.900000E-01   1.00800           0
     22675 MEMB     172      POPC     P        PL        1.50000       30.9740           0
     22676 MEMB     172      POPC     O13      O2L     -0.780000       15.9994           0
     22677 MEMB     172      POPC     O14      O2L     -0.780000       15.9994           0
     22678 MEMB     172      POPC     O12      OSLP    -0.570000       15.9994           0
     22679 MEMB     172      POPC     O11      OSLP    -0.570000       15.9994           0
     22680 MEMB     172      POPC     C1       CTL2    -0.800000E-01   12.0110           0
     22681 MEMB     172      POPC     HA       HAL2     0.900000E-01   1.00800           0
     22682 MEMB     172      POPC     HB       HAL2     0.900000E-01   1.00800           0
     22683 MEMB     172      POPC     C2       CTL1     0.170000       12.0110           0
     22684 MEMB     172      POPC     HS       HAL1     0.900000E-01   1.00800           0
     22685 MEMB     172      POPC     O21      OSL     -0.490000       15.9994           0
     22686 MEMB     172      POPC     C21      CL       0.900000       12.0110           0
     22687 MEMB     172      POPC     O22      OBL     -0.630000       15.9994           0
     22688 MEMB     172      POPC     C22      CTL2    -0.220000       12.0110           0
     22689 MEMB     172      POPC     H2R      HAL2     0.900000E-01   1.00800           0
     22690 MEMB     172      POPC     H2S      HAL2     0.900000E-01   1.00800           0
     22691 MEMB     172      POPC     C3       CTL2     0.800000E-01   12.0110           0
     22692 MEMB     172      POPC     HX       HAL2     0.900000E-01   1.00800           0
     22693 MEMB     172      POPC     HY       HAL2     0.900000E-01   1.00800           0
     22694 MEMB     172      POPC     O31      OSL     -0.490000       15.9994           0
     22695 MEMB     172      POPC     C31      CL       0.900000       12.0110           0
     22696 MEMB     172      POPC     O32      OBL     -0.630000       15.9994           0
     22697 MEMB     172      POPC     C32      CTL2    -0.220000       12.0110           0
     22698 MEMB     172      POPC     H2X      HAL2     0.900000E-01   1.00800           0
     22699 MEMB     172      POPC     H2Y      HAL2     0.900000E-01   1.00800           0
     22700 MEMB     172      POPC     C23      CTL2    -0.180000       12.0110           0
     22701 MEMB     172      POPC     H3R      HAL2     0.900000E-01   1.00800           0
     22702 MEMB     172      POPC     H3S      HAL2     0.900000E-01   1.00800           0
     22703 MEMB     172      POPC     C24      CTL2    -0.180000       12.0110           0
     22704 MEMB     172      POPC     H4R      HAL2     0.900000E-01   1.00800           0
     22705 MEMB     172      POPC     H4S      HAL2     0.900000E-01   1.00800           0
     22706 MEMB     172      POPC     C25      CTL2    -0.180000       12.0110           0
     22707 MEMB     172      POPC     H5R      HAL2     0.900000E-01   1.00800           0
     22708 MEMB     172      POPC     H5S      HAL2     0.900000E-01   1.00800           0
     22709 MEMB     172      POPC     C26      CTL2    -0.180000       12.0110           0
     22710 MEMB     172      POPC     H6R      HAL2     0.900000E-01   1.00800           0
     22711 MEMB     172      POPC     H6S      HAL2     0.900000E-01   1.00800           0
     22712 MEMB     172      POPC     C27      CTL2    -0.180000       12.0110           0
     22713 MEMB     172      POPC     H7R      HAL2     0.900000E-01   1.00800           0
     22714 MEMB     172      POPC     H7S      HAL2     0.900000E-01   1.00800           0
     22715 MEMB     172      POPC     C28      CTL2    -0.180000       12.0110           0
     22716 MEMB     172      POPC     H8R      HAL2     0.900000E-01   1.00800           0
     22717 MEMB     172      POPC     H8S      HAL2     0.900000E-01   1.00800           0
     22718 MEMB     172      POPC     C29      CEL1    -0.150000       12.0110           0
     22719 MEMB     172      POPC     H91      HEL1     0.150000       1.00800           0
     22720 MEMB     172      POPC     C210     CEL1    -0.150000       12.0110           0
     22721 MEMB     172      POPC     H101     HEL1     0.150000       1.00800           0
     22722 MEMB     172      POPC     C211     CTL2    -0.180000       12.0110           0
     22723 MEMB     172      POPC     H11R     HAL2     0.900000E-01   1.00800           0
     22724 MEMB     172      POPC     H11S     HAL2     0.900000E-01   1.00800           0
     22725 MEMB     172      POPC     C212     CTL2    -0.180000       12.0110           0
     22726 MEMB     172      POPC     H12R     HAL2     0.900000E-01   1.00800           0
     22727 MEMB     172      POPC     H12S     HAL2     0.900000E-01   1.00800           0
     22728 MEMB     172      POPC     C213     CTL2    -0.180000       12.0110           0
     22729 MEMB     172      POPC     H13R     HAL2     0.900000E-01   1.00800           0
     22730 MEMB     172      POPC     H13S     HAL2     0.900000E-01   1.00800           0
     22731 MEMB     172      POPC     C214     CTL2    -0.180000       12.0110           0
     22732 MEMB     172      POPC     H14R     HAL2     0.900000E-01   1.00800           0
     22733 MEMB     172      POPC     H14S     HAL2     0.900000E-01   1.00800           0
     22734 MEMB     172      POPC     C215     CTL2    -0.180000       12.0110           0
     22735 MEMB     172      POPC     H15R     HAL2     0.900000E-01   1.00800           0
     22736 MEMB     172      POPC     H15S     HAL2     0.900000E-01   1.00800           0
     22737 MEMB     172      POPC     C216     CTL2    -0.180000       12.0110           0
     22738 MEMB     172      POPC     H16R     HAL2     0.900000E-01   1.00800           0
     22739 MEMB     172      POPC     H16S     HAL2     0.900000E-01   1.00800           0
     22740 MEMB     172      POPC     C217     CTL2    -0.180000       12.0110           0
     22741 MEMB     172      POPC     H17R     HAL2     0.900000E-01   1.00800           0
     22742 MEMB     172      POPC     H17S     HAL2     0.900000E-01   1.00800           0
     22743 MEMB     172      POPC     C218     CTL3    -0.270000       12.0110           0
     22744 MEMB     172      POPC     H18R     HAL3     0.900000E-01   1.00800           0
     22745 MEMB     172      POPC     H18S     HAL3     0.900000E-01   1.00800           0
     22746 MEMB     172      POPC     H18T     HAL3     0.900000E-01   1.00800           0
     22747 MEMB     172      POPC     C33      CTL2    -0.180000       12.0110           0
     22748 MEMB     172      POPC     H3X      HAL2     0.900000E-01   1.00800           0
     22749 MEMB     172      POPC     H3Y      HAL2     0.900000E-01   1.00800           0
     22750 MEMB     172      POPC     C34      CTL2    -0.180000       12.0110           0
     22751 MEMB     172      POPC     H4X      HAL2     0.900000E-01   1.00800           0
     22752 MEMB     172      POPC     H4Y      HAL2     0.900000E-01   1.00800           0
     22753 MEMB     172      POPC     C35      CTL2    -0.180000       12.0110           0
     22754 MEMB     172      POPC     H5X      HAL2     0.900000E-01   1.00800           0
     22755 MEMB     172      POPC     H5Y      HAL2     0.900000E-01   1.00800           0
     22756 MEMB     172      POPC     C36      CTL2    -0.180000       12.0110           0
     22757 MEMB     172      POPC     H6X      HAL2     0.900000E-01   1.00800           0
     22758 MEMB     172      POPC     H6Y      HAL2     0.900000E-01   1.00800           0
     22759 MEMB     172      POPC     C37      CTL2    -0.180000       12.0110           0
     22760 MEMB     172      POPC     H7X      HAL2     0.900000E-01   1.00800           0
     22761 MEMB     172      POPC     H7Y      HAL2     0.900000E-01   1.00800           0
     22762 MEMB     172      POPC     C38      CTL2    -0.180000       12.0110           0
     22763 MEMB     172      POPC     H8X      HAL2     0.900000E-01   1.00800           0
     22764 MEMB     172      POPC     H8Y      HAL2     0.900000E-01   1.00800           0
     22765 MEMB     172      POPC     C39      CTL2    -0.180000       12.0110           0
     22766 MEMB     172      POPC     H9X      HAL2     0.900000E-01   1.00800           0
     22767 MEMB     172      POPC     H9Y      HAL2     0.900000E-01   1.00800           0
     22768 MEMB     172      POPC     C310     CTL2    -0.180000       12.0110           0
     22769 MEMB     172      POPC     H10X     HAL2     0.900000E-01   1.00800           0
     22770 MEMB     172      POPC     H10Y     HAL2     0.900000E-01   1.00800           0
     22771 MEMB     172      POPC     C311     CTL2    -0.180000       12.0110           0
     22772 MEMB     172      POPC     H11X     HAL2     0.900000E-01   1.00800           0
     22773 MEMB     172      POPC     H11Y     HAL2     0.900000E-01   1.00800           0
     22774 MEMB     172      POPC     C312     CTL2    -0.180000       12.0110           0
     22775 MEMB     172      POPC     H12X     HAL2     0.900000E-01   1.00800           0
     22776 MEMB     172      POPC     H12Y     HAL2     0.900000E-01   1.00800           0
     22777 MEMB     172      POPC     C313     CTL2    -0.180000       12.0110           0
     22778 MEMB     172      POPC     H13X     HAL2     0.900000E-01   1.00800           0
     22779 MEMB     172      POPC     H13Y     HAL2     0.900000E-01   1.00800           0
     22780 MEMB     172      POPC     C314     CTL2    -0.180000       12.0110           0
     22781 MEMB     172      POPC     H14X     HAL2     0.900000E-01   1.00800           0
     22782 MEMB     172      POPC     H14Y     HAL2     0.900000E-01   1.00800           0
     22783 MEMB     172      POPC     C315     CTL2    -0.180000       12.0110           0
     22784 MEMB     172      POPC     H15X     HAL2     0.900000E-01   1.00800           0
     22785 MEMB     172      POPC     H15Y     HAL2     0.900000E-01   1.00800           0
     22786 MEMB     172      POPC     C316     CTL3    -0.270000       12.0110           0
     22787 MEMB     172      POPC     H16X     HAL3     0.900000E-01   1.00800           0
     22788 MEMB     172      POPC     H16Y     HAL3     0.900000E-01   1.00800           0
     22789 MEMB     172      POPC     H16Z     HAL3     0.900000E-01   1.00800           0
     22790 MEMB     173      POPC     N        NTL     -0.600000       14.0070           0
     22791 MEMB     173      POPC     C12      CTL2    -0.100000       12.0110           0
     22792 MEMB     173      POPC     H12A     HL       0.250000       1.00800           0
     22793 MEMB     173      POPC     H12B     HL       0.250000       1.00800           0
     22794 MEMB     173      POPC     C13      CTL5    -0.350000       12.0110           0
     22795 MEMB     173      POPC     H13A     HL       0.250000       1.00800           0
     22796 MEMB     173      POPC     H13B     HL       0.250000       1.00800           0
     22797 MEMB     173      POPC     H13C     HL       0.250000       1.00800           0
     22798 MEMB     173      POPC     C14      CTL5    -0.350000       12.0110           0
     22799 MEMB     173      POPC     H14A     HL       0.250000       1.00800           0
     22800 MEMB     173      POPC     H14B     HL       0.250000       1.00800           0
     22801 MEMB     173      POPC     H14C     HL       0.250000       1.00800           0
     22802 MEMB     173      POPC     C15      CTL5    -0.350000       12.0110           0
     22803 MEMB     173      POPC     H15A     HL       0.250000       1.00800           0
     22804 MEMB     173      POPC     H15B     HL       0.250000       1.00800           0
     22805 MEMB     173      POPC     H15C     HL       0.250000       1.00800           0
     22806 MEMB     173      POPC     C11      CTL2    -0.800000E-01   12.0110           0
     22807 MEMB     173      POPC     H11A     HAL2     0.900000E-01   1.00800           0
     22808 MEMB     173      POPC     H11B     HAL2     0.900000E-01   1.00800           0
     22809 MEMB     173      POPC     P        PL        1.50000       30.9740           0
     22810 MEMB     173      POPC     O13      O2L     -0.780000       15.9994           0
     22811 MEMB     173      POPC     O14      O2L     -0.780000       15.9994           0
     22812 MEMB     173      POPC     O12      OSLP    -0.570000       15.9994           0
     22813 MEMB     173      POPC     O11      OSLP    -0.570000       15.9994           0
     22814 MEMB     173      POPC     C1       CTL2    -0.800000E-01   12.0110           0
     22815 MEMB     173      POPC     HA       HAL2     0.900000E-01   1.00800           0
     22816 MEMB     173      POPC     HB       HAL2     0.900000E-01   1.00800           0
     22817 MEMB     173      POPC     C2       CTL1     0.170000       12.0110           0
     22818 MEMB     173      POPC     HS       HAL1     0.900000E-01   1.00800           0
     22819 MEMB     173      POPC     O21      OSL     -0.490000       15.9994           0
     22820 MEMB     173      POPC     C21      CL       0.900000       12.0110           0
     22821 MEMB     173      POPC     O22      OBL     -0.630000       15.9994           0
     22822 MEMB     173      POPC     C22      CTL2    -0.220000       12.0110           0
     22823 MEMB     173      POPC     H2R      HAL2     0.900000E-01   1.00800           0
     22824 MEMB     173      POPC     H2S      HAL2     0.900000E-01   1.00800           0
     22825 MEMB     173      POPC     C3       CTL2     0.800000E-01   12.0110           0
     22826 MEMB     173      POPC     HX       HAL2     0.900000E-01   1.00800           0
     22827 MEMB     173      POPC     HY       HAL2     0.900000E-01   1.00800           0
     22828 MEMB     173      POPC     O31      OSL     -0.490000       15.9994           0
     22829 MEMB     173      POPC     C31      CL       0.900000       12.0110           0
     22830 MEMB     173      POPC     O32      OBL     -0.630000       15.9994           0
     22831 MEMB     173      POPC     C32      CTL2    -0.220000       12.0110           0
     22832 MEMB     173      POPC     H2X      HAL2     0.900000E-01   1.00800           0
     22833 MEMB     173      POPC     H2Y      HAL2     0.900000E-01   1.00800           0
     22834 MEMB     173      POPC     C23      CTL2    -0.180000       12.0110           0
     22835 MEMB     173      POPC     H3R      HAL2     0.900000E-01   1.00800           0
     22836 MEMB     173      POPC     H3S      HAL2     0.900000E-01   1.00800           0
     22837 MEMB     173      POPC     C24      CTL2    -0.180000       12.0110           0
     22838 MEMB     173      POPC     H4R      HAL2     0.900000E-01   1.00800           0
     22839 MEMB     173      POPC     H4S      HAL2     0.900000E-01   1.00800           0
     22840 MEMB     173      POPC     C25      CTL2    -0.180000       12.0110           0
     22841 MEMB     173      POPC     H5R      HAL2     0.900000E-01   1.00800           0
     22842 MEMB     173      POPC     H5S      HAL2     0.900000E-01   1.00800           0
     22843 MEMB     173      POPC     C26      CTL2    -0.180000       12.0110           0
     22844 MEMB     173      POPC     H6R      HAL2     0.900000E-01   1.00800           0
     22845 MEMB     173      POPC     H6S      HAL2     0.900000E-01   1.00800           0
     22846 MEMB     173      POPC     C27      CTL2    -0.180000       12.0110           0
     22847 MEMB     173      POPC     H7R      HAL2     0.900000E-01   1.00800           0
     22848 MEMB     173      POPC     H7S      HAL2     0.900000E-01   1.00800           0
     22849 MEMB     173      POPC     C28      CTL2    -0.180000       12.0110           0
     22850 MEMB     173      POPC     H8R      HAL2     0.900000E-01   1.00800           0
     22851 MEMB     173      POPC     H8S      HAL2     0.900000E-01   1.00800           0
     22852 MEMB     173      POPC     C29      CEL1    -0.150000       12.0110           0
     22853 MEMB     173      POPC     H91      HEL1     0.150000       1.00800           0
     22854 MEMB     173      POPC     C210     CEL1    -0.150000       12.0110           0
     22855 MEMB     173      POPC     H101     HEL1     0.150000       1.00800           0
     22856 MEMB     173      POPC     C211     CTL2    -0.180000       12.0110           0
     22857 MEMB     173      POPC     H11R     HAL2     0.900000E-01   1.00800           0
     22858 MEMB     173      POPC     H11S     HAL2     0.900000E-01   1.00800           0
     22859 MEMB     173      POPC     C212     CTL2    -0.180000       12.0110           0
     22860 MEMB     173      POPC     H12R     HAL2     0.900000E-01   1.00800           0
     22861 MEMB     173      POPC     H12S     HAL2     0.900000E-01   1.00800           0
     22862 MEMB     173      POPC     C213     CTL2    -0.180000       12.0110           0
     22863 MEMB     173      POPC     H13R     HAL2     0.900000E-01   1.00800           0
     22864 MEMB     173      POPC     H13S     HAL2     0.900000E-01   1.00800           0
     22865 MEMB     173      POPC     C214     CTL2    -0.180000       12.0110           0
     22866 MEMB     173      POPC     H14R     HAL2     0.900000E-01   1.00800           0
     22867 MEMB     173      POPC     H14S     HAL2     0.900000E-01   1.00800           0
     22868 MEMB     173      POPC     C215     CTL2    -0.180000       12.0110           0
     22869 MEMB     173      POPC     H15R     HAL2     0.900000E-01   1.00800           0
     22870 MEMB     173      POPC     H15S     HAL2     0.900000E-01   1.00800           0
     22871 MEMB     173      POPC     C216     CTL2    -0.180000       12.0110           0
     22872 MEMB     173      POPC     H16R     HAL2     0.900000E-01   1.00800           0
     22873 MEMB     173      POPC     H16S     HAL2     0.900000E-01   1.00800           0
     22874 MEMB     173      POPC     C217     CTL2    -0.180000       12.0110           0
     22875 MEMB     173      POPC     H17R     HAL2     0.900000E-01   1.00800           0
     22876 MEMB     173      POPC     H17S     HAL2     0.900000E-01   1.00800           0
     22877 MEMB     173      POPC     C218     CTL3    -0.270000       12.0110           0
     22878 MEMB     173      POPC     H18R     HAL3     0.900000E-01   1.00800           0
     22879 MEMB     173      POPC     H18S     HAL3     0.900000E-01   1.00800           0
     22880 MEMB     173      POPC     H18T     HAL3     0.900000E-01   1.00800           0
     22881 MEMB     173      POPC     C33      CTL2    -0.180000       12.0110           0
     22882 MEMB     173      POPC     H3X      HAL2     0.900000E-01   1.00800           0
     22883 MEMB     173      POPC     H3Y      HAL2     0.900000E-01   1.00800           0
     22884 MEMB     173      POPC     C34      CTL2    -0.180000       12.0110           0
     22885 MEMB     173      POPC     H4X      HAL2     0.900000E-01   1.00800           0
     22886 MEMB     173      POPC     H4Y      HAL2     0.900000E-01   1.00800           0
     22887 MEMB     173      POPC     C35      CTL2    -0.180000       12.0110           0
     22888 MEMB     173      POPC     H5X      HAL2     0.900000E-01   1.00800           0
     22889 MEMB     173      POPC     H5Y      HAL2     0.900000E-01   1.00800           0
     22890 MEMB     173      POPC     C36      CTL2    -0.180000       12.0110           0
     22891 MEMB     173      POPC     H6X      HAL2     0.900000E-01   1.00800           0
     22892 MEMB     173      POPC     H6Y      HAL2     0.900000E-01   1.00800           0
     22893 MEMB     173      POPC     C37      CTL2    -0.180000       12.0110           0
     22894 MEMB     173      POPC     H7X      HAL2     0.900000E-01   1.00800           0
     22895 MEMB     173      POPC     H7Y      HAL2     0.900000E-01   1.00800           0
     22896 MEMB     173      POPC     C38      CTL2    -0.180000       12.0110           0
     22897 MEMB     173      POPC     H8X      HAL2     0.900000E-01   1.00800           0
     22898 MEMB     173      POPC     H8Y      HAL2     0.900000E-01   1.00800           0
     22899 MEMB     173      POPC     C39      CTL2    -0.180000       12.0110           0
     22900 MEMB     173      POPC     H9X      HAL2     0.900000E-01   1.00800           0
     22901 MEMB     173      POPC     H9Y      HAL2     0.900000E-01   1.00800           0
     22902 MEMB     173      POPC     C310     CTL2    -0.180000       12.0110           0
     22903 MEMB     173      POPC     H10X     HAL2     0.900000E-01   1.00800           0
     22904 MEMB     173      POPC     H10Y     HAL2     0.900000E-01   1.00800           0
     22905 MEMB     173      POPC     C311     CTL2    -0.180000       12.0110           0
     22906 MEMB     173      POPC     H11X     HAL2     0.900000E-01   1.00800           0
     22907 MEMB     173      POPC     H11Y     HAL2     0.900000E-01   1.00800           0
     22908 MEMB     173      POPC     C312     CTL2    -0.180000       12.0110           0
     22909 MEMB     173      POPC     H12X     HAL2     0.900000E-01   1.00800           0
     22910 MEMB     173      POPC     H12Y     HAL2     0.900000E-01   1.00800           0
     22911 MEMB     173      POPC     C313     CTL2    -0.180000       12.0110           0
     22912 MEMB     173      POPC     H13X     HAL2     0.900000E-01   1.00800           0
     22913 MEMB     173      POPC     H13Y     HAL2     0.900000E-01   1.00800           0
     22914 MEMB     173      POPC     C314     CTL2    -0.180000       12.0110           0
     22915 MEMB     173      POPC     H14X     HAL2     0.900000E-01   1.00800           0
     22916 MEMB     173      POPC     H14Y     HAL2     0.900000E-01   1.00800           0
     22917 MEMB     173      POPC     C315     CTL2    -0.180000       12.0110           0
     22918 MEMB     173      POPC     H15X     HAL2     0.900000E-01   1.00800           0
     22919 MEMB     173      POPC     H15Y     HAL2     0.900000E-01   1.00800           0
     22920 MEMB     173      POPC     C316     CTL3    -0.270000       12.0110           0
     22921 MEMB     173      POPC     H16X     HAL3     0.900000E-01   1.00800           0
     22922 MEMB     173      POPC     H16Y     HAL3     0.900000E-01   1.00800           0
     22923 MEMB     173      POPC     H16Z     HAL3     0.900000E-01   1.00800           0
     22924 MEMB     174      POPC     N        NTL     -0.600000       14.0070           0
     22925 MEMB     174      POPC     C12      CTL2    -0.100000       12.0110           0
     22926 MEMB     174      POPC     H12A     HL       0.250000       1.00800           0
     22927 MEMB     174      POPC     H12B     HL       0.250000       1.00800           0
     22928 MEMB     174      POPC     C13      CTL5    -0.350000       12.0110           0
     22929 MEMB     174      POPC     H13A     HL       0.250000       1.00800           0
     22930 MEMB     174      POPC     H13B     HL       0.250000       1.00800           0
     22931 MEMB     174      POPC     H13C     HL       0.250000       1.00800           0
     22932 MEMB     174      POPC     C14      CTL5    -0.350000       12.0110           0
     22933 MEMB     174      POPC     H14A     HL       0.250000       1.00800           0
     22934 MEMB     174      POPC     H14B     HL       0.250000       1.00800           0
     22935 MEMB     174      POPC     H14C     HL       0.250000       1.00800           0
     22936 MEMB     174      POPC     C15      CTL5    -0.350000       12.0110           0
     22937 MEMB     174      POPC     H15A     HL       0.250000       1.00800           0
     22938 MEMB     174      POPC     H15B     HL       0.250000       1.00800           0
     22939 MEMB     174      POPC     H15C     HL       0.250000       1.00800           0
     22940 MEMB     174      POPC     C11      CTL2    -0.800000E-01   12.0110           0
     22941 MEMB     174      POPC     H11A     HAL2     0.900000E-01   1.00800           0
     22942 MEMB     174      POPC     H11B     HAL2     0.900000E-01   1.00800           0
     22943 MEMB     174      POPC     P        PL        1.50000       30.9740           0
     22944 MEMB     174      POPC     O13      O2L     -0.780000       15.9994           0
     22945 MEMB     174      POPC     O14      O2L     -0.780000       15.9994           0
     22946 MEMB     174      POPC     O12      OSLP    -0.570000       15.9994           0
     22947 MEMB     174      POPC     O11      OSLP    -0.570000       15.9994           0
     22948 MEMB     174      POPC     C1       CTL2    -0.800000E-01   12.0110           0
     22949 MEMB     174      POPC     HA       HAL2     0.900000E-01   1.00800           0
     22950 MEMB     174      POPC     HB       HAL2     0.900000E-01   1.00800           0
     22951 MEMB     174      POPC     C2       CTL1     0.170000       12.0110           0
     22952 MEMB     174      POPC     HS       HAL1     0.900000E-01   1.00800           0
     22953 MEMB     174      POPC     O21      OSL     -0.490000       15.9994           0
     22954 MEMB     174      POPC     C21      CL       0.900000       12.0110           0
     22955 MEMB     174      POPC     O22      OBL     -0.630000       15.9994           0
     22956 MEMB     174      POPC     C22      CTL2    -0.220000       12.0110           0
     22957 MEMB     174      POPC     H2R      HAL2     0.900000E-01   1.00800           0
     22958 MEMB     174      POPC     H2S      HAL2     0.900000E-01   1.00800           0
     22959 MEMB     174      POPC     C3       CTL2     0.800000E-01   12.0110           0
     22960 MEMB     174      POPC     HX       HAL2     0.900000E-01   1.00800           0
     22961 MEMB     174      POPC     HY       HAL2     0.900000E-01   1.00800           0
     22962 MEMB     174      POPC     O31      OSL     -0.490000       15.9994           0
     22963 MEMB     174      POPC     C31      CL       0.900000       12.0110           0
     22964 MEMB     174      POPC     O32      OBL     -0.630000       15.9994           0
     22965 MEMB     174      POPC     C32      CTL2    -0.220000       12.0110           0
     22966 MEMB     174      POPC     H2X      HAL2     0.900000E-01   1.00800           0
     22967 MEMB     174      POPC     H2Y      HAL2     0.900000E-01   1.00800           0
     22968 MEMB     174      POPC     C23      CTL2    -0.180000       12.0110           0
     22969 MEMB     174      POPC     H3R      HAL2     0.900000E-01   1.00800           0
     22970 MEMB     174      POPC     H3S      HAL2     0.900000E-01   1.00800           0
     22971 MEMB     174      POPC     C24      CTL2    -0.180000       12.0110           0
     22972 MEMB     174      POPC     H4R      HAL2     0.900000E-01   1.00800           0
     22973 MEMB     174      POPC     H4S      HAL2     0.900000E-01   1.00800           0
     22974 MEMB     174      POPC     C25      CTL2    -0.180000       12.0110           0
     22975 MEMB     174      POPC     H5R      HAL2     0.900000E-01   1.00800           0
     22976 MEMB     174      POPC     H5S      HAL2     0.900000E-01   1.00800           0
     22977 MEMB     174      POPC     C26      CTL2    -0.180000       12.0110           0
     22978 MEMB     174      POPC     H6R      HAL2     0.900000E-01   1.00800           0
     22979 MEMB     174      POPC     H6S      HAL2     0.900000E-01   1.00800           0
     22980 MEMB     174      POPC     C27      CTL2    -0.180000       12.0110           0
     22981 MEMB     174      POPC     H7R      HAL2     0.900000E-01   1.00800           0
     22982 MEMB     174      POPC     H7S      HAL2     0.900000E-01   1.00800           0
     22983 MEMB     174      POPC     C28      CTL2    -0.180000       12.0110           0
     22984 MEMB     174      POPC     H8R      HAL2     0.900000E-01   1.00800           0
     22985 MEMB     174      POPC     H8S      HAL2     0.900000E-01   1.00800           0
     22986 MEMB     174      POPC     C29      CEL1    -0.150000       12.0110           0
     22987 MEMB     174      POPC     H91      HEL1     0.150000       1.00800           0
     22988 MEMB     174      POPC     C210     CEL1    -0.150000       12.0110           0
     22989 MEMB     174      POPC     H101     HEL1     0.150000       1.00800           0
     22990 MEMB     174      POPC     C211     CTL2    -0.180000       12.0110           0
     22991 MEMB     174      POPC     H11R     HAL2     0.900000E-01   1.00800           0
     22992 MEMB     174      POPC     H11S     HAL2     0.900000E-01   1.00800           0
     22993 MEMB     174      POPC     C212     CTL2    -0.180000       12.0110           0
     22994 MEMB     174      POPC     H12R     HAL2     0.900000E-01   1.00800           0
     22995 MEMB     174      POPC     H12S     HAL2     0.900000E-01   1.00800           0
     22996 MEMB     174      POPC     C213     CTL2    -0.180000       12.0110           0
     22997 MEMB     174      POPC     H13R     HAL2     0.900000E-01   1.00800           0
     22998 MEMB     174      POPC     H13S     HAL2     0.900000E-01   1.00800           0
     22999 MEMB     174      POPC     C214     CTL2    -0.180000       12.0110           0
     23000 MEMB     174      POPC     H14R     HAL2     0.900000E-01   1.00800           0
     23001 MEMB     174      POPC     H14S     HAL2     0.900000E-01   1.00800           0
     23002 MEMB     174      POPC     C215     CTL2    -0.180000       12.0110           0
     23003 MEMB     174      POPC     H15R     HAL2     0.900000E-01   1.00800           0
     23004 MEMB     174      POPC     H15S     HAL2     0.900000E-01   1.00800           0
     23005 MEMB     174      POPC     C216     CTL2    -0.180000       12.0110           0
     23006 MEMB     174      POPC     H16R     HAL2     0.900000E-01   1.00800           0
     23007 MEMB     174      POPC     H16S     HAL2     0.900000E-01   1.00800           0
     23008 MEMB     174      POPC     C217     CTL2    -0.180000       12.0110           0
     23009 MEMB     174      POPC     H17R     HAL2     0.900000E-01   1.00800           0
     23010 MEMB     174      POPC     H17S     HAL2     0.900000E-01   1.00800           0
     23011 MEMB     174      POPC     C218     CTL3    -0.270000       12.0110           0
     23012 MEMB     174      POPC     H18R     HAL3     0.900000E-01   1.00800           0
     23013 MEMB     174      POPC     H18S     HAL3     0.900000E-01   1.00800           0
     23014 MEMB     174      POPC     H18T     HAL3     0.900000E-01   1.00800           0
     23015 MEMB     174      POPC     C33      CTL2    -0.180000       12.0110           0
     23016 MEMB     174      POPC     H3X      HAL2     0.900000E-01   1.00800           0
     23017 MEMB     174      POPC     H3Y      HAL2     0.900000E-01   1.00800           0
     23018 MEMB     174      POPC     C34      CTL2    -0.180000       12.0110           0
     23019 MEMB     174      POPC     H4X      HAL2     0.900000E-01   1.00800           0
     23020 MEMB     174      POPC     H4Y      HAL2     0.900000E-01   1.00800           0
     23021 MEMB     174      POPC     C35      CTL2    -0.180000       12.0110           0
     23022 MEMB     174      POPC     H5X      HAL2     0.900000E-01   1.00800           0
     23023 MEMB     174      POPC     H5Y      HAL2     0.900000E-01   1.00800           0
     23024 MEMB     174      POPC     C36      CTL2    -0.180000       12.0110           0
     23025 MEMB     174      POPC     H6X      HAL2     0.900000E-01   1.00800           0
     23026 MEMB     174      POPC     H6Y      HAL2     0.900000E-01   1.00800           0
     23027 MEMB     174      POPC     C37      CTL2    -0.180000       12.0110           0
     23028 MEMB     174      POPC     H7X      HAL2     0.900000E-01   1.00800           0
     23029 MEMB     174      POPC     H7Y      HAL2     0.900000E-01   1.00800           0
     23030 MEMB     174      POPC     C38      CTL2    -0.180000       12.0110           0
     23031 MEMB     174      POPC     H8X      HAL2     0.900000E-01   1.00800           0
     23032 MEMB     174      POPC     H8Y      HAL2     0.900000E-01   1.00800           0
     23033 MEMB     174      POPC     C39      CTL2    -0.180000       12.0110           0
     23034 MEMB     174      POPC     H9X      HAL2     0.900000E-01   1.00800           0
     23035 MEMB     174      POPC     H9Y      HAL2     0.900000E-01   1.00800           0
     23036 MEMB     174      POPC     C310     CTL2    -0.180000       12.0110           0
     23037 MEMB     174      POPC     H10X     HAL2     0.900000E-01   1.00800           0
     23038 MEMB     174      POPC     H10Y     HAL2     0.900000E-01   1.00800           0
     23039 MEMB     174      POPC     C311     CTL2    -0.180000       12.0110           0
     23040 MEMB     174      POPC     H11X     HAL2     0.900000E-01   1.00800           0
     23041 MEMB     174      POPC     H11Y     HAL2     0.900000E-01   1.00800           0
     23042 MEMB     174      POPC     C312     CTL2    -0.180000       12.0110           0
     23043 MEMB     174      POPC     H12X     HAL2     0.900000E-01   1.00800           0
     23044 MEMB     174      POPC     H12Y     HAL2     0.900000E-01   1.00800           0
     23045 MEMB     174      POPC     C313     CTL2    -0.180000       12.0110           0
     23046 MEMB     174      POPC     H13X     HAL2     0.900000E-01   1.00800           0
     23047 MEMB     174      POPC     H13Y     HAL2     0.900000E-01   1.00800           0
     23048 MEMB     174      POPC     C314     CTL2    -0.180000       12.0110           0
     23049 MEMB     174      POPC     H14X     HAL2     0.900000E-01   1.00800           0
     23050 MEMB     174      POPC     H14Y     HAL2     0.900000E-01   1.00800           0
     23051 MEMB     174      POPC     C315     CTL2    -0.180000       12.0110           0
     23052 MEMB     174      POPC     H15X     HAL2     0.900000E-01   1.00800           0
     23053 MEMB     174      POPC     H15Y     HAL2     0.900000E-01   1.00800           0
     23054 MEMB     174      POPC     C316     CTL3    -0.270000       12.0110           0
     23055 MEMB     174      POPC     H16X     HAL3     0.900000E-01   1.00800           0
     23056 MEMB     174      POPC     H16Y     HAL3     0.900000E-01   1.00800           0
     23057 MEMB     174      POPC     H16Z     HAL3     0.900000E-01   1.00800           0
     23058 MEMB     175      POPC     N        NTL     -0.600000       14.0070           0
     23059 MEMB     175      POPC     C12      CTL2    -0.100000       12.0110           0
     23060 MEMB     175      POPC     H12A     HL       0.250000       1.00800           0
     23061 MEMB     175      POPC     H12B     HL       0.250000       1.00800           0
     23062 MEMB     175      POPC     C13      CTL5    -0.350000       12.0110           0
     23063 MEMB     175      POPC     H13A     HL       0.250000       1.00800           0
     23064 MEMB     175      POPC     H13B     HL       0.250000       1.00800           0
     23065 MEMB     175      POPC     H13C     HL       0.250000       1.00800           0
     23066 MEMB     175      POPC     C14      CTL5    -0.350000       12.0110           0
     23067 MEMB     175      POPC     H14A     HL       0.250000       1.00800           0
     23068 MEMB     175      POPC     H14B     HL       0.250000       1.00800           0
     23069 MEMB     175      POPC     H14C     HL       0.250000       1.00800           0
     23070 MEMB     175      POPC     C15      CTL5    -0.350000       12.0110           0
     23071 MEMB     175      POPC     H15A     HL       0.250000       1.00800           0
     23072 MEMB     175      POPC     H15B     HL       0.250000       1.00800           0
     23073 MEMB     175      POPC     H15C     HL       0.250000       1.00800           0
     23074 MEMB     175      POPC     C11      CTL2    -0.800000E-01   12.0110           0
     23075 MEMB     175      POPC     H11A     HAL2     0.900000E-01   1.00800           0
     23076 MEMB     175      POPC     H11B     HAL2     0.900000E-01   1.00800           0
     23077 MEMB     175      POPC     P        PL        1.50000       30.9740           0
     23078 MEMB     175      POPC     O13      O2L     -0.780000       15.9994           0
     23079 MEMB     175      POPC     O14      O2L     -0.780000       15.9994           0
     23080 MEMB     175      POPC     O12      OSLP    -0.570000       15.9994           0
     23081 MEMB     175      POPC     O11      OSLP    -0.570000       15.9994           0
     23082 MEMB     175      POPC     C1       CTL2    -0.800000E-01   12.0110           0
     23083 MEMB     175      POPC     HA       HAL2     0.900000E-01   1.00800           0
     23084 MEMB     175      POPC     HB       HAL2     0.900000E-01   1.00800           0
     23085 MEMB     175      POPC     C2       CTL1     0.170000       12.0110           0
     23086 MEMB     175      POPC     HS       HAL1     0.900000E-01   1.00800           0
     23087 MEMB     175      POPC     O21      OSL     -0.490000       15.9994           0
     23088 MEMB     175      POPC     C21      CL       0.900000       12.0110           0
     23089 MEMB     175      POPC     O22      OBL     -0.630000       15.9994           0
     23090 MEMB     175      POPC     C22      CTL2    -0.220000       12.0110           0
     23091 MEMB     175      POPC     H2R      HAL2     0.900000E-01   1.00800           0
     23092 MEMB     175      POPC     H2S      HAL2     0.900000E-01   1.00800           0
     23093 MEMB     175      POPC     C3       CTL2     0.800000E-01   12.0110           0
     23094 MEMB     175      POPC     HX       HAL2     0.900000E-01   1.00800           0
     23095 MEMB     175      POPC     HY       HAL2     0.900000E-01   1.00800           0
     23096 MEMB     175      POPC     O31      OSL     -0.490000       15.9994           0
     23097 MEMB     175      POPC     C31      CL       0.900000       12.0110           0
     23098 MEMB     175      POPC     O32      OBL     -0.630000       15.9994           0
     23099 MEMB     175      POPC     C32      CTL2    -0.220000       12.0110           0
     23100 MEMB     175      POPC     H2X      HAL2     0.900000E-01   1.00800           0
     23101 MEMB     175      POPC     H2Y      HAL2     0.900000E-01   1.00800           0
     23102 MEMB     175      POPC     C23      CTL2    -0.180000       12.0110           0
     23103 MEMB     175      POPC     H3R      HAL2     0.900000E-01   1.00800           0
     23104 MEMB     175      POPC     H3S      HAL2     0.900000E-01   1.00800           0
     23105 MEMB     175      POPC     C24      CTL2    -0.180000       12.0110           0
     23106 MEMB     175      POPC     H4R      HAL2     0.900000E-01   1.00800           0
     23107 MEMB     175      POPC     H4S      HAL2     0.900000E-01   1.00800           0
     23108 MEMB     175      POPC     C25      CTL2    -0.180000       12.0110           0
     23109 MEMB     175      POPC     H5R      HAL2     0.900000E-01   1.00800           0
     23110 MEMB     175      POPC     H5S      HAL2     0.900000E-01   1.00800           0
     23111 MEMB     175      POPC     C26      CTL2    -0.180000       12.0110           0
     23112 MEMB     175      POPC     H6R      HAL2     0.900000E-01   1.00800           0
     23113 MEMB     175      POPC     H6S      HAL2     0.900000E-01   1.00800           0
     23114 MEMB     175      POPC     C27      CTL2    -0.180000       12.0110           0
     23115 MEMB     175      POPC     H7R      HAL2     0.900000E-01   1.00800           0
     23116 MEMB     175      POPC     H7S      HAL2     0.900000E-01   1.00800           0
     23117 MEMB     175      POPC     C28      CTL2    -0.180000       12.0110           0
     23118 MEMB     175      POPC     H8R      HAL2     0.900000E-01   1.00800           0
     23119 MEMB     175      POPC     H8S      HAL2     0.900000E-01   1.00800           0
     23120 MEMB     175      POPC     C29      CEL1    -0.150000       12.0110           0
     23121 MEMB     175      POPC     H91      HEL1     0.150000       1.00800           0
     23122 MEMB     175      POPC     C210     CEL1    -0.150000       12.0110           0
     23123 MEMB     175      POPC     H101     HEL1     0.150000       1.00800           0
     23124 MEMB     175      POPC     C211     CTL2    -0.180000       12.0110           0
     23125 MEMB     175      POPC     H11R     HAL2     0.900000E-01   1.00800           0
     23126 MEMB     175      POPC     H11S     HAL2     0.900000E-01   1.00800           0
     23127 MEMB     175      POPC     C212     CTL2    -0.180000       12.0110           0
     23128 MEMB     175      POPC     H12R     HAL2     0.900000E-01   1.00800           0
     23129 MEMB     175      POPC     H12S     HAL2     0.900000E-01   1.00800           0
     23130 MEMB     175      POPC     C213     CTL2    -0.180000       12.0110           0
     23131 MEMB     175      POPC     H13R     HAL2     0.900000E-01   1.00800           0
     23132 MEMB     175      POPC     H13S     HAL2     0.900000E-01   1.00800           0
     23133 MEMB     175      POPC     C214     CTL2    -0.180000       12.0110           0
     23134 MEMB     175      POPC     H14R     HAL2     0.900000E-01   1.00800           0
     23135 MEMB     175      POPC     H14S     HAL2     0.900000E-01   1.00800           0
     23136 MEMB     175      POPC     C215     CTL2    -0.180000       12.0110           0
     23137 MEMB     175      POPC     H15R     HAL2     0.900000E-01   1.00800           0
     23138 MEMB     175      POPC     H15S     HAL2     0.900000E-01   1.00800           0
     23139 MEMB     175      POPC     C216     CTL2    -0.180000       12.0110           0
     23140 MEMB     175      POPC     H16R     HAL2     0.900000E-01   1.00800           0
     23141 MEMB     175      POPC     H16S     HAL2     0.900000E-01   1.00800           0
     23142 MEMB     175      POPC     C217     CTL2    -0.180000       12.0110           0
     23143 MEMB     175      POPC     H17R     HAL2     0.900000E-01   1.00800           0
     23144 MEMB     175      POPC     H17S     HAL2     0.900000E-01   1.00800           0
     23145 MEMB     175      POPC     C218     CTL3    -0.270000       12.0110           0
     23146 MEMB     175      POPC     H18R     HAL3     0.900000E-01   1.00800           0
     23147 MEMB     175      POPC     H18S     HAL3     0.900000E-01   1.00800           0
     23148 MEMB     175      POPC     H18T     HAL3     0.900000E-01   1.00800           0
     23149 MEMB     175      POPC     C33      CTL2    -0.180000       12.0110           0
     23150 MEMB     175      POPC     H3X      HAL2     0.900000E-01   1.00800           0
     23151 MEMB     175      POPC     H3Y      HAL2     0.900000E-01   1.00800           0
     23152 MEMB     175      POPC     C34      CTL2    -0.180000       12.0110           0
     23153 MEMB     175      POPC     H4X      HAL2     0.900000E-01   1.00800           0
     23154 MEMB     175      POPC     H4Y      HAL2     0.900000E-01   1.00800           0
     23155 MEMB     175      POPC     C35      CTL2    -0.180000       12.0110           0
     23156 MEMB     175      POPC     H5X      HAL2     0.900000E-01   1.00800           0
     23157 MEMB     175      POPC     H5Y      HAL2     0.900000E-01   1.00800           0
     23158 MEMB     175      POPC     C36      CTL2    -0.180000       12.0110           0
     23159 MEMB     175      POPC     H6X      HAL2     0.900000E-01   1.00800           0
     23160 MEMB     175      POPC     H6Y      HAL2     0.900000E-01   1.00800           0
     23161 MEMB     175      POPC     C37      CTL2    -0.180000       12.0110           0
     23162 MEMB     175      POPC     H7X      HAL2     0.900000E-01   1.00800           0
     23163 MEMB     175      POPC     H7Y      HAL2     0.900000E-01   1.00800           0
     23164 MEMB     175      POPC     C38      CTL2    -0.180000       12.0110           0
     23165 MEMB     175      POPC     H8X      HAL2     0.900000E-01   1.00800           0
     23166 MEMB     175      POPC     H8Y      HAL2     0.900000E-01   1.00800           0
     23167 MEMB     175      POPC     C39      CTL2    -0.180000       12.0110           0
     23168 MEMB     175      POPC     H9X      HAL2     0.900000E-01   1.00800           0
     23169 MEMB     175      POPC     H9Y      HAL2     0.900000E-01   1.00800           0
     23170 MEMB     175      POPC     C310     CTL2    -0.180000       12.0110           0
     23171 MEMB     175      POPC     H10X     HAL2     0.900000E-01   1.00800           0
     23172 MEMB     175      POPC     H10Y     HAL2     0.900000E-01   1.00800           0
     23173 MEMB     175      POPC     C311     CTL2    -0.180000       12.0110           0
     23174 MEMB     175      POPC     H11X     HAL2     0.900000E-01   1.00800           0
     23175 MEMB     175      POPC     H11Y     HAL2     0.900000E-01   1.00800           0
     23176 MEMB     175      POPC     C312     CTL2    -0.180000       12.0110           0
     23177 MEMB     175      POPC     H12X     HAL2     0.900000E-01   1.00800           0
     23178 MEMB     175      POPC     H12Y     HAL2     0.900000E-01   1.00800           0
     23179 MEMB     175      POPC     C313     CTL2    -0.180000       12.0110           0
     23180 MEMB     175      POPC     H13X     HAL2     0.900000E-01   1.00800           0
     23181 MEMB     175      POPC     H13Y     HAL2     0.900000E-01   1.00800           0
     23182 MEMB     175      POPC     C314     CTL2    -0.180000       12.0110           0
     23183 MEMB     175      POPC     H14X     HAL2     0.900000E-01   1.00800           0
     23184 MEMB     175      POPC     H14Y     HAL2     0.900000E-01   1.00800           0
     23185 MEMB     175      POPC     C315     CTL2    -0.180000       12.0110           0
     23186 MEMB     175      POPC     H15X     HAL2     0.900000E-01   1.00800           0
     23187 MEMB     175      POPC     H15Y     HAL2     0.900000E-01   1.00800           0
     23188 MEMB     175      POPC     C316     CTL3    -0.270000       12.0110           0
     23189 MEMB     175      POPC     H16X     HAL3     0.900000E-01   1.00800           0
     23190 MEMB     175      POPC     H16Y     HAL3     0.900000E-01   1.00800           0
     23191 MEMB     175      POPC     H16Z     HAL3     0.900000E-01   1.00800           0
     23192 MEMB     176      POPC     N        NTL     -0.600000       14.0070           0
     23193 MEMB     176      POPC     C12      CTL2    -0.100000       12.0110           0
     23194 MEMB     176      POPC     H12A     HL       0.250000       1.00800           0
     23195 MEMB     176      POPC     H12B     HL       0.250000       1.00800           0
     23196 MEMB     176      POPC     C13      CTL5    -0.350000       12.0110           0
     23197 MEMB     176      POPC     H13A     HL       0.250000       1.00800           0
     23198 MEMB     176      POPC     H13B     HL       0.250000       1.00800           0
     23199 MEMB     176      POPC     H13C     HL       0.250000       1.00800           0
     23200 MEMB     176      POPC     C14      CTL5    -0.350000       12.0110           0
     23201 MEMB     176      POPC     H14A     HL       0.250000       1.00800           0
     23202 MEMB     176      POPC     H14B     HL       0.250000       1.00800           0
     23203 MEMB     176      POPC     H14C     HL       0.250000       1.00800           0
     23204 MEMB     176      POPC     C15      CTL5    -0.350000       12.0110           0
     23205 MEMB     176      POPC     H15A     HL       0.250000       1.00800           0
     23206 MEMB     176      POPC     H15B     HL       0.250000       1.00800           0
     23207 MEMB     176      POPC     H15C     HL       0.250000       1.00800           0
     23208 MEMB     176      POPC     C11      CTL2    -0.800000E-01   12.0110           0
     23209 MEMB     176      POPC     H11A     HAL2     0.900000E-01   1.00800           0
     23210 MEMB     176      POPC     H11B     HAL2     0.900000E-01   1.00800           0
     23211 MEMB     176      POPC     P        PL        1.50000       30.9740           0
     23212 MEMB     176      POPC     O13      O2L     -0.780000       15.9994           0
     23213 MEMB     176      POPC     O14      O2L     -0.780000       15.9994           0
     23214 MEMB     176      POPC     O12      OSLP    -0.570000       15.9994           0
     23215 MEMB     176      POPC     O11      OSLP    -0.570000       15.9994           0
     23216 MEMB     176      POPC     C1       CTL2    -0.800000E-01   12.0110           0
     23217 MEMB     176      POPC     HA       HAL2     0.900000E-01   1.00800           0
     23218 MEMB     176      POPC     HB       HAL2     0.900000E-01   1.00800           0
     23219 MEMB     176      POPC     C2       CTL1     0.170000       12.0110           0
     23220 MEMB     176      POPC     HS       HAL1     0.900000E-01   1.00800           0
     23221 MEMB     176      POPC     O21      OSL     -0.490000       15.9994           0
     23222 MEMB     176      POPC     C21      CL       0.900000       12.0110           0
     23223 MEMB     176      POPC     O22      OBL     -0.630000       15.9994           0
     23224 MEMB     176      POPC     C22      CTL2    -0.220000       12.0110           0
     23225 MEMB     176      POPC     H2R      HAL2     0.900000E-01   1.00800           0
     23226 MEMB     176      POPC     H2S      HAL2     0.900000E-01   1.00800           0
     23227 MEMB     176      POPC     C3       CTL2     0.800000E-01   12.0110           0
     23228 MEMB     176      POPC     HX       HAL2     0.900000E-01   1.00800           0
     23229 MEMB     176      POPC     HY       HAL2     0.900000E-01   1.00800           0
     23230 MEMB     176      POPC     O31      OSL     -0.490000       15.9994           0
     23231 MEMB     176      POPC     C31      CL       0.900000       12.0110           0
     23232 MEMB     176      POPC     O32      OBL     -0.630000       15.9994           0
     23233 MEMB     176      POPC     C32      CTL2    -0.220000       12.0110           0
     23234 MEMB     176      POPC     H2X      HAL2     0.900000E-01   1.00800           0
     23235 MEMB     176      POPC     H2Y      HAL2     0.900000E-01   1.00800           0
     23236 MEMB     176      POPC     C23      CTL2    -0.180000       12.0110           0
     23237 MEMB     176      POPC     H3R      HAL2     0.900000E-01   1.00800           0
     23238 MEMB     176      POPC     H3S      HAL2     0.900000E-01   1.00800           0
     23239 MEMB     176      POPC     C24      CTL2    -0.180000       12.0110           0
     23240 MEMB     176      POPC     H4R      HAL2     0.900000E-01   1.00800           0
     23241 MEMB     176      POPC     H4S      HAL2     0.900000E-01   1.00800           0
     23242 MEMB     176      POPC     C25      CTL2    -0.180000       12.0110           0
     23243 MEMB     176      POPC     H5R      HAL2     0.900000E-01   1.00800           0
     23244 MEMB     176      POPC     H5S      HAL2     0.900000E-01   1.00800           0
     23245 MEMB     176      POPC     C26      CTL2    -0.180000       12.0110           0
     23246 MEMB     176      POPC     H6R      HAL2     0.900000E-01   1.00800           0
     23247 MEMB     176      POPC     H6S      HAL2     0.900000E-01   1.00800           0
     23248 MEMB     176      POPC     C27      CTL2    -0.180000       12.0110           0
     23249 MEMB     176      POPC     H7R      HAL2     0.900000E-01   1.00800           0
     23250 MEMB     176      POPC     H7S      HAL2     0.900000E-01   1.00800           0
     23251 MEMB     176      POPC     C28      CTL2    -0.180000       12.0110           0
     23252 MEMB     176      POPC     H8R      HAL2     0.900000E-01   1.00800           0
     23253 MEMB     176      POPC     H8S      HAL2     0.900000E-01   1.00800           0
     23254 MEMB     176      POPC     C29      CEL1    -0.150000       12.0110           0
     23255 MEMB     176      POPC     H91      HEL1     0.150000       1.00800           0
     23256 MEMB     176      POPC     C210     CEL1    -0.150000       12.0110           0
     23257 MEMB     176      POPC     H101     HEL1     0.150000       1.00800           0
     23258 MEMB     176      POPC     C211     CTL2    -0.180000       12.0110           0
     23259 MEMB     176      POPC     H11R     HAL2     0.900000E-01   1.00800           0
     23260 MEMB     176      POPC     H11S     HAL2     0.900000E-01   1.00800           0
     23261 MEMB     176      POPC     C212     CTL2    -0.180000       12.0110           0
     23262 MEMB     176      POPC     H12R     HAL2     0.900000E-01   1.00800           0
     23263 MEMB     176      POPC     H12S     HAL2     0.900000E-01   1.00800           0
     23264 MEMB     176      POPC     C213     CTL2    -0.180000       12.0110           0
     23265 MEMB     176      POPC     H13R     HAL2     0.900000E-01   1.00800           0
     23266 MEMB     176      POPC     H13S     HAL2     0.900000E-01   1.00800           0
     23267 MEMB     176      POPC     C214     CTL2    -0.180000       12.0110           0
     23268 MEMB     176      POPC     H14R     HAL2     0.900000E-01   1.00800           0
     23269 MEMB     176      POPC     H14S     HAL2     0.900000E-01   1.00800           0
     23270 MEMB     176      POPC     C215     CTL2    -0.180000       12.0110           0
     23271 MEMB     176      POPC     H15R     HAL2     0.900000E-01   1.00800           0
     23272 MEMB     176      POPC     H15S     HAL2     0.900000E-01   1.00800           0
     23273 MEMB     176      POPC     C216     CTL2    -0.180000       12.0110           0
     23274 MEMB     176      POPC     H16R     HAL2     0.900000E-01   1.00800           0
     23275 MEMB     176      POPC     H16S     HAL2     0.900000E-01   1.00800           0
     23276 MEMB     176      POPC     C217     CTL2    -0.180000       12.0110           0
     23277 MEMB     176      POPC     H17R     HAL2     0.900000E-01   1.00800           0
     23278 MEMB     176      POPC     H17S     HAL2     0.900000E-01   1.00800           0
     23279 MEMB     176      POPC     C218     CTL3    -0.270000       12.0110           0
     23280 MEMB     176      POPC     H18R     HAL3     0.900000E-01   1.00800           0
     23281 MEMB     176      POPC     H18S     HAL3     0.900000E-01   1.00800           0
     23282 MEMB     176      POPC     H18T     HAL3     0.900000E-01   1.00800           0
     23283 MEMB     176      POPC     C33      CTL2    -0.180000       12.0110           0
     23284 MEMB     176      POPC     H3X      HAL2     0.900000E-01   1.00800           0
     23285 MEMB     176      POPC     H3Y      HAL2     0.900000E-01   1.00800           0
     23286 MEMB     176      POPC     C34      CTL2    -0.180000       12.0110           0
     23287 MEMB     176      POPC     H4X      HAL2     0.900000E-01   1.00800           0
     23288 MEMB     176      POPC     H4Y      HAL2     0.900000E-01   1.00800           0
     23289 MEMB     176      POPC     C35      CTL2    -0.180000       12.0110           0
     23290 MEMB     176      POPC     H5X      HAL2     0.900000E-01   1.00800           0
     23291 MEMB     176      POPC     H5Y      HAL2     0.900000E-01   1.00800           0
     23292 MEMB     176      POPC     C36      CTL2    -0.180000       12.0110           0
     23293 MEMB     176      POPC     H6X      HAL2     0.900000E-01   1.00800           0
     23294 MEMB     176      POPC     H6Y      HAL2     0.900000E-01   1.00800           0
     23295 MEMB     176      POPC     C37      CTL2    -0.180000       12.0110           0
     23296 MEMB     176      POPC     H7X      HAL2     0.900000E-01   1.00800           0
     23297 MEMB     176      POPC     H7Y      HAL2     0.900000E-01   1.00800           0
     23298 MEMB     176      POPC     C38      CTL2    -0.180000       12.0110           0
     23299 MEMB     176      POPC     H8X      HAL2     0.900000E-01   1.00800           0
     23300 MEMB     176      POPC     H8Y      HAL2     0.900000E-01   1.00800           0
     23301 MEMB     176      POPC     C39      CTL2    -0.180000       12.0110           0
     23302 MEMB     176      POPC     H9X      HAL2     0.900000E-01   1.00800           0
     23303 MEMB     176      POPC     H9Y      HAL2     0.900000E-01   1.00800           0
     23304 MEMB     176      POPC     C310     CTL2    -0.180000       12.0110           0
     23305 MEMB     176      POPC     H10X     HAL2     0.900000E-01   1.00800           0
     23306 MEMB     176      POPC     H10Y     HAL2     0.900000E-01   1.00800           0
     23307 MEMB     176      POPC     C311     CTL2    -0.180000       12.0110           0
     23308 MEMB     176      POPC     H11X     HAL2     0.900000E-01   1.00800           0
     23309 MEMB     176      POPC     H11Y     HAL2     0.900000E-01   1.00800           0
     23310 MEMB     176      POPC     C312     CTL2    -0.180000       12.0110           0
     23311 MEMB     176      POPC     H12X     HAL2     0.900000E-01   1.00800           0
     23312 MEMB     176      POPC     H12Y     HAL2     0.900000E-01   1.00800           0
     23313 MEMB     176      POPC     C313     CTL2    -0.180000       12.0110           0
     23314 MEMB     176      POPC     H13X     HAL2     0.900000E-01   1.00800           0
     23315 MEMB     176      POPC     H13Y     HAL2     0.900000E-01   1.00800           0
     23316 MEMB     176      POPC     C314     CTL2    -0.180000       12.0110           0
     23317 MEMB     176      POPC     H14X     HAL2     0.900000E-01   1.00800           0
     23318 MEMB     176      POPC     H14Y     HAL2     0.900000E-01   1.00800           0
     23319 MEMB     176      POPC     C315     CTL2    -0.180000       12.0110           0
     23320 MEMB     176      POPC     H15X     HAL2     0.900000E-01   1.00800           0
     23321 MEMB     176      POPC     H15Y     HAL2     0.900000E-01   1.00800           0
     23322 MEMB     176      POPC     C316     CTL3    -0.270000       12.0110           0
     23323 MEMB     176      POPC     H16X     HAL3     0.900000E-01   1.00800           0
     23324 MEMB     176      POPC     H16Y     HAL3     0.900000E-01   1.00800           0
     23325 MEMB     176      POPC     H16Z     HAL3     0.900000E-01   1.00800           0
     23326 MEMB     177      POPS     N        NH3L    -0.300000       14.0070           0
     23327 MEMB     177      POPS     HN1      HCL      0.330000       1.00800           0
     23328 MEMB     177      POPS     HN2      HCL      0.330000       1.00800           0
     23329 MEMB     177      POPS     HN3      HCL      0.330000       1.00800           0
     23330 MEMB     177      POPS     C12      CTL1     0.210000       12.0110           0
     23331 MEMB     177      POPS     H12A     HBL      0.100000       1.00800           0
     23332 MEMB     177      POPS     C13      CCL      0.340000       12.0110           0
     23333 MEMB     177      POPS     O13A     OCL     -0.670000       15.9994           0
     23334 MEMB     177      POPS     O13B     OCL     -0.670000       15.9994           0
     23335 MEMB     177      POPS     C11      CTL2    -0.800000E-01   12.0110           0
     23336 MEMB     177      POPS     H11A     HAL2     0.900000E-01   1.00800           0
     23337 MEMB     177      POPS     H11B     HAL2     0.900000E-01   1.00800           0
     23338 MEMB     177      POPS     P        PL        1.50000       30.9740           0
     23339 MEMB     177      POPS     O13      O2L     -0.780000       15.9994           0
     23340 MEMB     177      POPS     O14      O2L     -0.780000       15.9994           0
     23341 MEMB     177      POPS     O12      OSLP    -0.570000       15.9994           0
     23342 MEMB     177      POPS     O11      OSLP    -0.570000       15.9994           0
     23343 MEMB     177      POPS     C1       CTL2    -0.800000E-01   12.0110           0
     23344 MEMB     177      POPS     HA       HAL2     0.900000E-01   1.00800           0
     23345 MEMB     177      POPS     HB       HAL2     0.900000E-01   1.00800           0
     23346 MEMB     177      POPS     C2       CTL1     0.170000       12.0110           0
     23347 MEMB     177      POPS     HS       HAL1     0.900000E-01   1.00800           0
     23348 MEMB     177      POPS     O21      OSL     -0.490000       15.9994           0
     23349 MEMB     177      POPS     C21      CL       0.900000       12.0110           0
     23350 MEMB     177      POPS     O22      OBL     -0.630000       15.9994           0
     23351 MEMB     177      POPS     C22      CTL2    -0.220000       12.0110           0
     23352 MEMB     177      POPS     H2R      HAL2     0.900000E-01   1.00800           0
     23353 MEMB     177      POPS     H2S      HAL2     0.900000E-01   1.00800           0
     23354 MEMB     177      POPS     C3       CTL2     0.800000E-01   12.0110           0
     23355 MEMB     177      POPS     HX       HAL2     0.900000E-01   1.00800           0
     23356 MEMB     177      POPS     HY       HAL2     0.900000E-01   1.00800           0
     23357 MEMB     177      POPS     O31      OSL     -0.490000       15.9994           0
     23358 MEMB     177      POPS     C31      CL       0.900000       12.0110           0
     23359 MEMB     177      POPS     O32      OBL     -0.630000       15.9994           0
     23360 MEMB     177      POPS     C32      CTL2    -0.220000       12.0110           0
     23361 MEMB     177      POPS     H2X      HAL2     0.900000E-01   1.00800           0
     23362 MEMB     177      POPS     H2Y      HAL2     0.900000E-01   1.00800           0
     23363 MEMB     177      POPS     C23      CTL2    -0.180000       12.0110           0
     23364 MEMB     177      POPS     H3R      HAL2     0.900000E-01   1.00800           0
     23365 MEMB     177      POPS     H3S      HAL2     0.900000E-01   1.00800           0
     23366 MEMB     177      POPS     C24      CTL2    -0.180000       12.0110           0
     23367 MEMB     177      POPS     H4R      HAL2     0.900000E-01   1.00800           0
     23368 MEMB     177      POPS     H4S      HAL2     0.900000E-01   1.00800           0
     23369 MEMB     177      POPS     C25      CTL2    -0.180000       12.0110           0
     23370 MEMB     177      POPS     H5R      HAL2     0.900000E-01   1.00800           0
     23371 MEMB     177      POPS     H5S      HAL2     0.900000E-01   1.00800           0
     23372 MEMB     177      POPS     C26      CTL2    -0.180000       12.0110           0
     23373 MEMB     177      POPS     H6R      HAL2     0.900000E-01   1.00800           0
     23374 MEMB     177      POPS     H6S      HAL2     0.900000E-01   1.00800           0
     23375 MEMB     177      POPS     C27      CTL2    -0.180000       12.0110           0
     23376 MEMB     177      POPS     H7R      HAL2     0.900000E-01   1.00800           0
     23377 MEMB     177      POPS     H7S      HAL2     0.900000E-01   1.00800           0
     23378 MEMB     177      POPS     C28      CTL2    -0.180000       12.0110           0
     23379 MEMB     177      POPS     H8R      HAL2     0.900000E-01   1.00800           0
     23380 MEMB     177      POPS     H8S      HAL2     0.900000E-01   1.00800           0
     23381 MEMB     177      POPS     C29      CEL1    -0.150000       12.0110           0
     23382 MEMB     177      POPS     H91      HEL1     0.150000       1.00800           0
     23383 MEMB     177      POPS     C210     CEL1    -0.150000       12.0110           0
     23384 MEMB     177      POPS     H101     HEL1     0.150000       1.00800           0
     23385 MEMB     177      POPS     C211     CTL2    -0.180000       12.0110           0
     23386 MEMB     177      POPS     H11R     HAL2     0.900000E-01   1.00800           0
     23387 MEMB     177      POPS     H11S     HAL2     0.900000E-01   1.00800           0
     23388 MEMB     177      POPS     C212     CTL2    -0.180000       12.0110           0
     23389 MEMB     177      POPS     H12R     HAL2     0.900000E-01   1.00800           0
     23390 MEMB     177      POPS     H12S     HAL2     0.900000E-01   1.00800           0
     23391 MEMB     177      POPS     C213     CTL2    -0.180000       12.0110           0
     23392 MEMB     177      POPS     H13R     HAL2     0.900000E-01   1.00800           0
     23393 MEMB     177      POPS     H13S     HAL2     0.900000E-01   1.00800           0
     23394 MEMB     177      POPS     C214     CTL2    -0.180000       12.0110           0
     23395 MEMB     177      POPS     H14R     HAL2     0.900000E-01   1.00800           0
     23396 MEMB     177      POPS     H14S     HAL2     0.900000E-01   1.00800           0
     23397 MEMB     177      POPS     C215     CTL2    -0.180000       12.0110           0
     23398 MEMB     177      POPS     H15R     HAL2     0.900000E-01   1.00800           0
     23399 MEMB     177      POPS     H15S     HAL2     0.900000E-01   1.00800           0
     23400 MEMB     177      POPS     C216     CTL2    -0.180000       12.0110           0
     23401 MEMB     177      POPS     H16R     HAL2     0.900000E-01   1.00800           0
     23402 MEMB     177      POPS     H16S     HAL2     0.900000E-01   1.00800           0
     23403 MEMB     177      POPS     C217     CTL2    -0.180000       12.0110           0
     23404 MEMB     177      POPS     H17R     HAL2     0.900000E-01   1.00800           0
     23405 MEMB     177      POPS     H17S     HAL2     0.900000E-01   1.00800           0
     23406 MEMB     177      POPS     C218     CTL3    -0.270000       12.0110           0
     23407 MEMB     177      POPS     H18R     HAL3     0.900000E-01   1.00800           0
     23408 MEMB     177      POPS     H18S     HAL3     0.900000E-01   1.00800           0
     23409 MEMB     177      POPS     H18T     HAL3     0.900000E-01   1.00800           0
     23410 MEMB     177      POPS     C33      CTL2    -0.180000       12.0110           0
     23411 MEMB     177      POPS     H3X      HAL2     0.900000E-01   1.00800           0
     23412 MEMB     177      POPS     H3Y      HAL2     0.900000E-01   1.00800           0
     23413 MEMB     177      POPS     C34      CTL2    -0.180000       12.0110           0
     23414 MEMB     177      POPS     H4X      HAL2     0.900000E-01   1.00800           0
     23415 MEMB     177      POPS     H4Y      HAL2     0.900000E-01   1.00800           0
     23416 MEMB     177      POPS     C35      CTL2    -0.180000       12.0110           0
     23417 MEMB     177      POPS     H5X      HAL2     0.900000E-01   1.00800           0
     23418 MEMB     177      POPS     H5Y      HAL2     0.900000E-01   1.00800           0
     23419 MEMB     177      POPS     C36      CTL2    -0.180000       12.0110           0
     23420 MEMB     177      POPS     H6X      HAL2     0.900000E-01   1.00800           0
     23421 MEMB     177      POPS     H6Y      HAL2     0.900000E-01   1.00800           0
     23422 MEMB     177      POPS     C37      CTL2    -0.180000       12.0110           0
     23423 MEMB     177      POPS     H7X      HAL2     0.900000E-01   1.00800           0
     23424 MEMB     177      POPS     H7Y      HAL2     0.900000E-01   1.00800           0
     23425 MEMB     177      POPS     C38      CTL2    -0.180000       12.0110           0
     23426 MEMB     177      POPS     H8X      HAL2     0.900000E-01   1.00800           0
     23427 MEMB     177      POPS     H8Y      HAL2     0.900000E-01   1.00800           0
     23428 MEMB     177      POPS     C39      CTL2    -0.180000       12.0110           0
     23429 MEMB     177      POPS     H9X      HAL2     0.900000E-01   1.00800           0
     23430 MEMB     177      POPS     H9Y      HAL2     0.900000E-01   1.00800           0
     23431 MEMB     177      POPS     C310     CTL2    -0.180000       12.0110           0
     23432 MEMB     177      POPS     H10X     HAL2     0.900000E-01   1.00800           0
     23433 MEMB     177      POPS     H10Y     HAL2     0.900000E-01   1.00800           0
     23434 MEMB     177      POPS     C311     CTL2    -0.180000       12.0110           0
     23435 MEMB     177      POPS     H11X     HAL2     0.900000E-01   1.00800           0
     23436 MEMB     177      POPS     H11Y     HAL2     0.900000E-01   1.00800           0
     23437 MEMB     177      POPS     C312     CTL2    -0.180000       12.0110           0
     23438 MEMB     177      POPS     H12X     HAL2     0.900000E-01   1.00800           0
     23439 MEMB     177      POPS     H12Y     HAL2     0.900000E-01   1.00800           0
     23440 MEMB     177      POPS     C313     CTL2    -0.180000       12.0110           0
     23441 MEMB     177      POPS     H13X     HAL2     0.900000E-01   1.00800           0
     23442 MEMB     177      POPS     H13Y     HAL2     0.900000E-01   1.00800           0
     23443 MEMB     177      POPS     C314     CTL2    -0.180000       12.0110           0
     23444 MEMB     177      POPS     H14X     HAL2     0.900000E-01   1.00800           0
     23445 MEMB     177      POPS     H14Y     HAL2     0.900000E-01   1.00800           0
     23446 MEMB     177      POPS     C315     CTL2    -0.180000       12.0110           0
     23447 MEMB     177      POPS     H15X     HAL2     0.900000E-01   1.00800           0
     23448 MEMB     177      POPS     H15Y     HAL2     0.900000E-01   1.00800           0
     23449 MEMB     177      POPS     C316     CTL3    -0.270000       12.0110           0
     23450 MEMB     177      POPS     H16X     HAL3     0.900000E-01   1.00800           0
     23451 MEMB     177      POPS     H16Y     HAL3     0.900000E-01   1.00800           0
     23452 MEMB     177      POPS     H16Z     HAL3     0.900000E-01   1.00800           0
     23453 MEMB     178      POPC     N        NTL     -0.600000       14.0070           0
     23454 MEMB     178      POPC     C12      CTL2    -0.100000       12.0110           0
     23455 MEMB     178      POPC     H12A     HL       0.250000       1.00800           0
     23456 MEMB     178      POPC     H12B     HL       0.250000       1.00800           0
     23457 MEMB     178      POPC     C13      CTL5    -0.350000       12.0110           0
     23458 MEMB     178      POPC     H13A     HL       0.250000       1.00800           0
     23459 MEMB     178      POPC     H13B     HL       0.250000       1.00800           0
     23460 MEMB     178      POPC     H13C     HL       0.250000       1.00800           0
     23461 MEMB     178      POPC     C14      CTL5    -0.350000       12.0110           0
     23462 MEMB     178      POPC     H14A     HL       0.250000       1.00800           0
     23463 MEMB     178      POPC     H14B     HL       0.250000       1.00800           0
     23464 MEMB     178      POPC     H14C     HL       0.250000       1.00800           0
     23465 MEMB     178      POPC     C15      CTL5    -0.350000       12.0110           0
     23466 MEMB     178      POPC     H15A     HL       0.250000       1.00800           0
     23467 MEMB     178      POPC     H15B     HL       0.250000       1.00800           0
     23468 MEMB     178      POPC     H15C     HL       0.250000       1.00800           0
     23469 MEMB     178      POPC     C11      CTL2    -0.800000E-01   12.0110           0
     23470 MEMB     178      POPC     H11A     HAL2     0.900000E-01   1.00800           0
     23471 MEMB     178      POPC     H11B     HAL2     0.900000E-01   1.00800           0
     23472 MEMB     178      POPC     P        PL        1.50000       30.9740           0
     23473 MEMB     178      POPC     O13      O2L     -0.780000       15.9994           0
     23474 MEMB     178      POPC     O14      O2L     -0.780000       15.9994           0
     23475 MEMB     178      POPC     O12      OSLP    -0.570000       15.9994           0
     23476 MEMB     178      POPC     O11      OSLP    -0.570000       15.9994           0
     23477 MEMB     178      POPC     C1       CTL2    -0.800000E-01   12.0110           0
     23478 MEMB     178      POPC     HA       HAL2     0.900000E-01   1.00800           0
     23479 MEMB     178      POPC     HB       HAL2     0.900000E-01   1.00800           0
     23480 MEMB     178      POPC     C2       CTL1     0.170000       12.0110           0
     23481 MEMB     178      POPC     HS       HAL1     0.900000E-01   1.00800           0
     23482 MEMB     178      POPC     O21      OSL     -0.490000       15.9994           0
     23483 MEMB     178      POPC     C21      CL       0.900000       12.0110           0
     23484 MEMB     178      POPC     O22      OBL     -0.630000       15.9994           0
     23485 MEMB     178      POPC     C22      CTL2    -0.220000       12.0110           0
     23486 MEMB     178      POPC     H2R      HAL2     0.900000E-01   1.00800           0
     23487 MEMB     178      POPC     H2S      HAL2     0.900000E-01   1.00800           0
     23488 MEMB     178      POPC     C3       CTL2     0.800000E-01   12.0110           0
     23489 MEMB     178      POPC     HX       HAL2     0.900000E-01   1.00800           0
     23490 MEMB     178      POPC     HY       HAL2     0.900000E-01   1.00800           0
     23491 MEMB     178      POPC     O31      OSL     -0.490000       15.9994           0
     23492 MEMB     178      POPC     C31      CL       0.900000       12.0110           0
     23493 MEMB     178      POPC     O32      OBL     -0.630000       15.9994           0
     23494 MEMB     178      POPC     C32      CTL2    -0.220000       12.0110           0
     23495 MEMB     178      POPC     H2X      HAL2     0.900000E-01   1.00800           0
     23496 MEMB     178      POPC     H2Y      HAL2     0.900000E-01   1.00800           0
     23497 MEMB     178      POPC     C23      CTL2    -0.180000       12.0110           0
     23498 MEMB     178      POPC     H3R      HAL2     0.900000E-01   1.00800           0
     23499 MEMB     178      POPC     H3S      HAL2     0.900000E-01   1.00800           0
     23500 MEMB     178      POPC     C24      CTL2    -0.180000       12.0110           0
     23501 MEMB     178      POPC     H4R      HAL2     0.900000E-01   1.00800           0
     23502 MEMB     178      POPC     H4S      HAL2     0.900000E-01   1.00800           0
     23503 MEMB     178      POPC     C25      CTL2    -0.180000       12.0110           0
     23504 MEMB     178      POPC     H5R      HAL2     0.900000E-01   1.00800           0
     23505 MEMB     178      POPC     H5S      HAL2     0.900000E-01   1.00800           0
     23506 MEMB     178      POPC     C26      CTL2    -0.180000       12.0110           0
     23507 MEMB     178      POPC     H6R      HAL2     0.900000E-01   1.00800           0
     23508 MEMB     178      POPC     H6S      HAL2     0.900000E-01   1.00800           0
     23509 MEMB     178      POPC     C27      CTL2    -0.180000       12.0110           0
     23510 MEMB     178      POPC     H7R      HAL2     0.900000E-01   1.00800           0
     23511 MEMB     178      POPC     H7S      HAL2     0.900000E-01   1.00800           0
     23512 MEMB     178      POPC     C28      CTL2    -0.180000       12.0110           0
     23513 MEMB     178      POPC     H8R      HAL2     0.900000E-01   1.00800           0
     23514 MEMB     178      POPC     H8S      HAL2     0.900000E-01   1.00800           0
     23515 MEMB     178      POPC     C29      CEL1    -0.150000       12.0110           0
     23516 MEMB     178      POPC     H91      HEL1     0.150000       1.00800           0
     23517 MEMB     178      POPC     C210     CEL1    -0.150000       12.0110           0
     23518 MEMB     178      POPC     H101     HEL1     0.150000       1.00800           0
     23519 MEMB     178      POPC     C211     CTL2    -0.180000       12.0110           0
     23520 MEMB     178      POPC     H11R     HAL2     0.900000E-01   1.00800           0
     23521 MEMB     178      POPC     H11S     HAL2     0.900000E-01   1.00800           0
     23522 MEMB     178      POPC     C212     CTL2    -0.180000       12.0110           0
     23523 MEMB     178      POPC     H12R     HAL2     0.900000E-01   1.00800           0
     23524 MEMB     178      POPC     H12S     HAL2     0.900000E-01   1.00800           0
     23525 MEMB     178      POPC     C213     CTL2    -0.180000       12.0110           0
     23526 MEMB     178      POPC     H13R     HAL2     0.900000E-01   1.00800           0
     23527 MEMB     178      POPC     H13S     HAL2     0.900000E-01   1.00800           0
     23528 MEMB     178      POPC     C214     CTL2    -0.180000       12.0110           0
     23529 MEMB     178      POPC     H14R     HAL2     0.900000E-01   1.00800           0
     23530 MEMB     178      POPC     H14S     HAL2     0.900000E-01   1.00800           0
     23531 MEMB     178      POPC     C215     CTL2    -0.180000       12.0110           0
     23532 MEMB     178      POPC     H15R     HAL2     0.900000E-01   1.00800           0
     23533 MEMB     178      POPC     H15S     HAL2     0.900000E-01   1.00800           0
     23534 MEMB     178      POPC     C216     CTL2    -0.180000       12.0110           0
     23535 MEMB     178      POPC     H16R     HAL2     0.900000E-01   1.00800           0
     23536 MEMB     178      POPC     H16S     HAL2     0.900000E-01   1.00800           0
     23537 MEMB     178      POPC     C217     CTL2    -0.180000       12.0110           0
     23538 MEMB     178      POPC     H17R     HAL2     0.900000E-01   1.00800           0
     23539 MEMB     178      POPC     H17S     HAL2     0.900000E-01   1.00800           0
     23540 MEMB     178      POPC     C218     CTL3    -0.270000       12.0110           0
     23541 MEMB     178      POPC     H18R     HAL3     0.900000E-01   1.00800           0
     23542 MEMB     178      POPC     H18S     HAL3     0.900000E-01   1.00800           0
     23543 MEMB     178      POPC     H18T     HAL3     0.900000E-01   1.00800           0
     23544 MEMB     178      POPC     C33      CTL2    -0.180000       12.0110           0
     23545 MEMB     178      POPC     H3X      HAL2     0.900000E-01   1.00800           0
     23546 MEMB     178      POPC     H3Y      HAL2     0.900000E-01   1.00800           0
     23547 MEMB     178      POPC     C34      CTL2    -0.180000       12.0110           0
     23548 MEMB     178      POPC     H4X      HAL2     0.900000E-01   1.00800           0
     23549 MEMB     178      POPC     H4Y      HAL2     0.900000E-01   1.00800           0
     23550 MEMB     178      POPC     C35      CTL2    -0.180000       12.0110           0
     23551 MEMB     178      POPC     H5X      HAL2     0.900000E-01   1.00800           0
     23552 MEMB     178      POPC     H5Y      HAL2     0.900000E-01   1.00800           0
     23553 MEMB     178      POPC     C36      CTL2    -0.180000       12.0110           0
     23554 MEMB     178      POPC     H6X      HAL2     0.900000E-01   1.00800           0
     23555 MEMB     178      POPC     H6Y      HAL2     0.900000E-01   1.00800           0
     23556 MEMB     178      POPC     C37      CTL2    -0.180000       12.0110           0
     23557 MEMB     178      POPC     H7X      HAL2     0.900000E-01   1.00800           0
     23558 MEMB     178      POPC     H7Y      HAL2     0.900000E-01   1.00800           0
     23559 MEMB     178      POPC     C38      CTL2    -0.180000       12.0110           0
     23560 MEMB     178      POPC     H8X      HAL2     0.900000E-01   1.00800           0
     23561 MEMB     178      POPC     H8Y      HAL2     0.900000E-01   1.00800           0
     23562 MEMB     178      POPC     C39      CTL2    -0.180000       12.0110           0
     23563 MEMB     178      POPC     H9X      HAL2     0.900000E-01   1.00800           0
     23564 MEMB     178      POPC     H9Y      HAL2     0.900000E-01   1.00800           0
     23565 MEMB     178      POPC     C310     CTL2    -0.180000       12.0110           0
     23566 MEMB     178      POPC     H10X     HAL2     0.900000E-01   1.00800           0
     23567 MEMB     178      POPC     H10Y     HAL2     0.900000E-01   1.00800           0
     23568 MEMB     178      POPC     C311     CTL2    -0.180000       12.0110           0
     23569 MEMB     178      POPC     H11X     HAL2     0.900000E-01   1.00800           0
     23570 MEMB     178      POPC     H11Y     HAL2     0.900000E-01   1.00800           0
     23571 MEMB     178      POPC     C312     CTL2    -0.180000       12.0110           0
     23572 MEMB     178      POPC     H12X     HAL2     0.900000E-01   1.00800           0
     23573 MEMB     178      POPC     H12Y     HAL2     0.900000E-01   1.00800           0
     23574 MEMB     178      POPC     C313     CTL2    -0.180000       12.0110           0
     23575 MEMB     178      POPC     H13X     HAL2     0.900000E-01   1.00800           0
     23576 MEMB     178      POPC     H13Y     HAL2     0.900000E-01   1.00800           0
     23577 MEMB     178      POPC     C314     CTL2    -0.180000       12.0110           0
     23578 MEMB     178      POPC     H14X     HAL2     0.900000E-01   1.00800           0
     23579 MEMB     178      POPC     H14Y     HAL2     0.900000E-01   1.00800           0
     23580 MEMB     178      POPC     C315     CTL2    -0.180000       12.0110           0
     23581 MEMB     178      POPC     H15X     HAL2     0.900000E-01   1.00800           0
     23582 MEMB     178      POPC     H15Y     HAL2     0.900000E-01   1.00800           0
     23583 MEMB     178      POPC     C316     CTL3    -0.270000       12.0110           0
     23584 MEMB     178      POPC     H16X     HAL3     0.900000E-01   1.00800           0
     23585 MEMB     178      POPC     H16Y     HAL3     0.900000E-01   1.00800           0
     23586 MEMB     178      POPC     H16Z     HAL3     0.900000E-01   1.00800           0
     23587 MEMB     179      POPC     N        NTL     -0.600000       14.0070           0
     23588 MEMB     179      POPC     C12      CTL2    -0.100000       12.0110           0
     23589 MEMB     179      POPC     H12A     HL       0.250000       1.00800           0
     23590 MEMB     179      POPC     H12B     HL       0.250000       1.00800           0
     23591 MEMB     179      POPC     C13      CTL5    -0.350000       12.0110           0
     23592 MEMB     179      POPC     H13A     HL       0.250000       1.00800           0
     23593 MEMB     179      POPC     H13B     HL       0.250000       1.00800           0
     23594 MEMB     179      POPC     H13C     HL       0.250000       1.00800           0
     23595 MEMB     179      POPC     C14      CTL5    -0.350000       12.0110           0
     23596 MEMB     179      POPC     H14A     HL       0.250000       1.00800           0
     23597 MEMB     179      POPC     H14B     HL       0.250000       1.00800           0
     23598 MEMB     179      POPC     H14C     HL       0.250000       1.00800           0
     23599 MEMB     179      POPC     C15      CTL5    -0.350000       12.0110           0
     23600 MEMB     179      POPC     H15A     HL       0.250000       1.00800           0
     23601 MEMB     179      POPC     H15B     HL       0.250000       1.00800           0
     23602 MEMB     179      POPC     H15C     HL       0.250000       1.00800           0
     23603 MEMB     179      POPC     C11      CTL2    -0.800000E-01   12.0110           0
     23604 MEMB     179      POPC     H11A     HAL2     0.900000E-01   1.00800           0
     23605 MEMB     179      POPC     H11B     HAL2     0.900000E-01   1.00800           0
     23606 MEMB     179      POPC     P        PL        1.50000       30.9740           0
     23607 MEMB     179      POPC     O13      O2L     -0.780000       15.9994           0
     23608 MEMB     179      POPC     O14      O2L     -0.780000       15.9994           0
     23609 MEMB     179      POPC     O12      OSLP    -0.570000       15.9994           0
     23610 MEMB     179      POPC     O11      OSLP    -0.570000       15.9994           0
     23611 MEMB     179      POPC     C1       CTL2    -0.800000E-01   12.0110           0
     23612 MEMB     179      POPC     HA       HAL2     0.900000E-01   1.00800           0
     23613 MEMB     179      POPC     HB       HAL2     0.900000E-01   1.00800           0
     23614 MEMB     179      POPC     C2       CTL1     0.170000       12.0110           0
     23615 MEMB     179      POPC     HS       HAL1     0.900000E-01   1.00800           0
     23616 MEMB     179      POPC     O21      OSL     -0.490000       15.9994           0
     23617 MEMB     179      POPC     C21      CL       0.900000       12.0110           0
     23618 MEMB     179      POPC     O22      OBL     -0.630000       15.9994           0
     23619 MEMB     179      POPC     C22      CTL2    -0.220000       12.0110           0
     23620 MEMB     179      POPC     H2R      HAL2     0.900000E-01   1.00800           0
     23621 MEMB     179      POPC     H2S      HAL2     0.900000E-01   1.00800           0
     23622 MEMB     179      POPC     C3       CTL2     0.800000E-01   12.0110           0
     23623 MEMB     179      POPC     HX       HAL2     0.900000E-01   1.00800           0
     23624 MEMB     179      POPC     HY       HAL2     0.900000E-01   1.00800           0
     23625 MEMB     179      POPC     O31      OSL     -0.490000       15.9994           0
     23626 MEMB     179      POPC     C31      CL       0.900000       12.0110           0
     23627 MEMB     179      POPC     O32      OBL     -0.630000       15.9994           0
     23628 MEMB     179      POPC     C32      CTL2    -0.220000       12.0110           0
     23629 MEMB     179      POPC     H2X      HAL2     0.900000E-01   1.00800           0
     23630 MEMB     179      POPC     H2Y      HAL2     0.900000E-01   1.00800           0
     23631 MEMB     179      POPC     C23      CTL2    -0.180000       12.0110           0
     23632 MEMB     179      POPC     H3R      HAL2     0.900000E-01   1.00800           0
     23633 MEMB     179      POPC     H3S      HAL2     0.900000E-01   1.00800           0
     23634 MEMB     179      POPC     C24      CTL2    -0.180000       12.0110           0
     23635 MEMB     179      POPC     H4R      HAL2     0.900000E-01   1.00800           0
     23636 MEMB     179      POPC     H4S      HAL2     0.900000E-01   1.00800           0
     23637 MEMB     179      POPC     C25      CTL2    -0.180000       12.0110           0
     23638 MEMB     179      POPC     H5R      HAL2     0.900000E-01   1.00800           0
     23639 MEMB     179      POPC     H5S      HAL2     0.900000E-01   1.00800           0
     23640 MEMB     179      POPC     C26      CTL2    -0.180000       12.0110           0
     23641 MEMB     179      POPC     H6R      HAL2     0.900000E-01   1.00800           0
     23642 MEMB     179      POPC     H6S      HAL2     0.900000E-01   1.00800           0
     23643 MEMB     179      POPC     C27      CTL2    -0.180000       12.0110           0
     23644 MEMB     179      POPC     H7R      HAL2     0.900000E-01   1.00800           0
     23645 MEMB     179      POPC     H7S      HAL2     0.900000E-01   1.00800           0
     23646 MEMB     179      POPC     C28      CTL2    -0.180000       12.0110           0
     23647 MEMB     179      POPC     H8R      HAL2     0.900000E-01   1.00800           0
     23648 MEMB     179      POPC     H8S      HAL2     0.900000E-01   1.00800           0
     23649 MEMB     179      POPC     C29      CEL1    -0.150000       12.0110           0
     23650 MEMB     179      POPC     H91      HEL1     0.150000       1.00800           0
     23651 MEMB     179      POPC     C210     CEL1    -0.150000       12.0110           0
     23652 MEMB     179      POPC     H101     HEL1     0.150000       1.00800           0
     23653 MEMB     179      POPC     C211     CTL2    -0.180000       12.0110           0
     23654 MEMB     179      POPC     H11R     HAL2     0.900000E-01   1.00800           0
     23655 MEMB     179      POPC     H11S     HAL2     0.900000E-01   1.00800           0
     23656 MEMB     179      POPC     C212     CTL2    -0.180000       12.0110           0
     23657 MEMB     179      POPC     H12R     HAL2     0.900000E-01   1.00800           0
     23658 MEMB     179      POPC     H12S     HAL2     0.900000E-01   1.00800           0
     23659 MEMB     179      POPC     C213     CTL2    -0.180000       12.0110           0
     23660 MEMB     179      POPC     H13R     HAL2     0.900000E-01   1.00800           0
     23661 MEMB     179      POPC     H13S     HAL2     0.900000E-01   1.00800           0
     23662 MEMB     179      POPC     C214     CTL2    -0.180000       12.0110           0
     23663 MEMB     179      POPC     H14R     HAL2     0.900000E-01   1.00800           0
     23664 MEMB     179      POPC     H14S     HAL2     0.900000E-01   1.00800           0
     23665 MEMB     179      POPC     C215     CTL2    -0.180000       12.0110           0
     23666 MEMB     179      POPC     H15R     HAL2     0.900000E-01   1.00800           0
     23667 MEMB     179      POPC     H15S     HAL2     0.900000E-01   1.00800           0
     23668 MEMB     179      POPC     C216     CTL2    -0.180000       12.0110           0
     23669 MEMB     179      POPC     H16R     HAL2     0.900000E-01   1.00800           0
     23670 MEMB     179      POPC     H16S     HAL2     0.900000E-01   1.00800           0
     23671 MEMB     179      POPC     C217     CTL2    -0.180000       12.0110           0
     23672 MEMB     179      POPC     H17R     HAL2     0.900000E-01   1.00800           0
     23673 MEMB     179      POPC     H17S     HAL2     0.900000E-01   1.00800           0
     23674 MEMB     179      POPC     C218     CTL3    -0.270000       12.0110           0
     23675 MEMB     179      POPC     H18R     HAL3     0.900000E-01   1.00800           0
     23676 MEMB     179      POPC     H18S     HAL3     0.900000E-01   1.00800           0
     23677 MEMB     179      POPC     H18T     HAL3     0.900000E-01   1.00800           0
     23678 MEMB     179      POPC     C33      CTL2    -0.180000       12.0110           0
     23679 MEMB     179      POPC     H3X      HAL2     0.900000E-01   1.00800           0
     23680 MEMB     179      POPC     H3Y      HAL2     0.900000E-01   1.00800           0
     23681 MEMB     179      POPC     C34      CTL2    -0.180000       12.0110           0
     23682 MEMB     179      POPC     H4X      HAL2     0.900000E-01   1.00800           0
     23683 MEMB     179      POPC     H4Y      HAL2     0.900000E-01   1.00800           0
     23684 MEMB     179      POPC     C35      CTL2    -0.180000       12.0110           0
     23685 MEMB     179      POPC     H5X      HAL2     0.900000E-01   1.00800           0
     23686 MEMB     179      POPC     H5Y      HAL2     0.900000E-01   1.00800           0
     23687 MEMB     179      POPC     C36      CTL2    -0.180000       12.0110           0
     23688 MEMB     179      POPC     H6X      HAL2     0.900000E-01   1.00800           0
     23689 MEMB     179      POPC     H6Y      HAL2     0.900000E-01   1.00800           0
     23690 MEMB     179      POPC     C37      CTL2    -0.180000       12.0110           0
     23691 MEMB     179      POPC     H7X      HAL2     0.900000E-01   1.00800           0
     23692 MEMB     179      POPC     H7Y      HAL2     0.900000E-01   1.00800           0
     23693 MEMB     179      POPC     C38      CTL2    -0.180000       12.0110           0
     23694 MEMB     179      POPC     H8X      HAL2     0.900000E-01   1.00800           0
     23695 MEMB     179      POPC     H8Y      HAL2     0.900000E-01   1.00800           0
     23696 MEMB     179      POPC     C39      CTL2    -0.180000       12.0110           0
     23697 MEMB     179      POPC     H9X      HAL2     0.900000E-01   1.00800           0
     23698 MEMB     179      POPC     H9Y      HAL2     0.900000E-01   1.00800           0
     23699 MEMB     179      POPC     C310     CTL2    -0.180000       12.0110           0
     23700 MEMB     179      POPC     H10X     HAL2     0.900000E-01   1.00800           0
     23701 MEMB     179      POPC     H10Y     HAL2     0.900000E-01   1.00800           0
     23702 MEMB     179      POPC     C311     CTL2    -0.180000       12.0110           0
     23703 MEMB     179      POPC     H11X     HAL2     0.900000E-01   1.00800           0
     23704 MEMB     179      POPC     H11Y     HAL2     0.900000E-01   1.00800           0
     23705 MEMB     179      POPC     C312     CTL2    -0.180000       12.0110           0
     23706 MEMB     179      POPC     H12X     HAL2     0.900000E-01   1.00800           0
     23707 MEMB     179      POPC     H12Y     HAL2     0.900000E-01   1.00800           0
     23708 MEMB     179      POPC     C313     CTL2    -0.180000       12.0110           0
     23709 MEMB     179      POPC     H13X     HAL2     0.900000E-01   1.00800           0
     23710 MEMB     179      POPC     H13Y     HAL2     0.900000E-01   1.00800           0
     23711 MEMB     179      POPC     C314     CTL2    -0.180000       12.0110           0
     23712 MEMB     179      POPC     H14X     HAL2     0.900000E-01   1.00800           0
     23713 MEMB     179      POPC     H14Y     HAL2     0.900000E-01   1.00800           0
     23714 MEMB     179      POPC     C315     CTL2    -0.180000       12.0110           0
     23715 MEMB     179      POPC     H15X     HAL2     0.900000E-01   1.00800           0
     23716 MEMB     179      POPC     H15Y     HAL2     0.900000E-01   1.00800           0
     23717 MEMB     179      POPC     C316     CTL3    -0.270000       12.0110           0
     23718 MEMB     179      POPC     H16X     HAL3     0.900000E-01   1.00800           0
     23719 MEMB     179      POPC     H16Y     HAL3     0.900000E-01   1.00800           0
     23720 MEMB     179      POPC     H16Z     HAL3     0.900000E-01   1.00800           0
     23721 MEMB     180      POPC     N        NTL     -0.600000       14.0070           0
     23722 MEMB     180      POPC     C12      CTL2    -0.100000       12.0110           0
     23723 MEMB     180      POPC     H12A     HL       0.250000       1.00800           0
     23724 MEMB     180      POPC     H12B     HL       0.250000       1.00800           0
     23725 MEMB     180      POPC     C13      CTL5    -0.350000       12.0110           0
     23726 MEMB     180      POPC     H13A     HL       0.250000       1.00800           0
     23727 MEMB     180      POPC     H13B     HL       0.250000       1.00800           0
     23728 MEMB     180      POPC     H13C     HL       0.250000       1.00800           0
     23729 MEMB     180      POPC     C14      CTL5    -0.350000       12.0110           0
     23730 MEMB     180      POPC     H14A     HL       0.250000       1.00800           0
     23731 MEMB     180      POPC     H14B     HL       0.250000       1.00800           0
     23732 MEMB     180      POPC     H14C     HL       0.250000       1.00800           0
     23733 MEMB     180      POPC     C15      CTL5    -0.350000       12.0110           0
     23734 MEMB     180      POPC     H15A     HL       0.250000       1.00800           0
     23735 MEMB     180      POPC     H15B     HL       0.250000       1.00800           0
     23736 MEMB     180      POPC     H15C     HL       0.250000       1.00800           0
     23737 MEMB     180      POPC     C11      CTL2    -0.800000E-01   12.0110           0
     23738 MEMB     180      POPC     H11A     HAL2     0.900000E-01   1.00800           0
     23739 MEMB     180      POPC     H11B     HAL2     0.900000E-01   1.00800           0
     23740 MEMB     180      POPC     P        PL        1.50000       30.9740           0
     23741 MEMB     180      POPC     O13      O2L     -0.780000       15.9994           0
     23742 MEMB     180      POPC     O14      O2L     -0.780000       15.9994           0
     23743 MEMB     180      POPC     O12      OSLP    -0.570000       15.9994           0
     23744 MEMB     180      POPC     O11      OSLP    -0.570000       15.9994           0
     23745 MEMB     180      POPC     C1       CTL2    -0.800000E-01   12.0110           0
     23746 MEMB     180      POPC     HA       HAL2     0.900000E-01   1.00800           0
     23747 MEMB     180      POPC     HB       HAL2     0.900000E-01   1.00800           0
     23748 MEMB     180      POPC     C2       CTL1     0.170000       12.0110           0
     23749 MEMB     180      POPC     HS       HAL1     0.900000E-01   1.00800           0
     23750 MEMB     180      POPC     O21      OSL     -0.490000       15.9994           0
     23751 MEMB     180      POPC     C21      CL       0.900000       12.0110           0
     23752 MEMB     180      POPC     O22      OBL     -0.630000       15.9994           0
     23753 MEMB     180      POPC     C22      CTL2    -0.220000       12.0110           0
     23754 MEMB     180      POPC     H2R      HAL2     0.900000E-01   1.00800           0
     23755 MEMB     180      POPC     H2S      HAL2     0.900000E-01   1.00800           0
     23756 MEMB     180      POPC     C3       CTL2     0.800000E-01   12.0110           0
     23757 MEMB     180      POPC     HX       HAL2     0.900000E-01   1.00800           0
     23758 MEMB     180      POPC     HY       HAL2     0.900000E-01   1.00800           0
     23759 MEMB     180      POPC     O31      OSL     -0.490000       15.9994           0
     23760 MEMB     180      POPC     C31      CL       0.900000       12.0110           0
     23761 MEMB     180      POPC     O32      OBL     -0.630000       15.9994           0
     23762 MEMB     180      POPC     C32      CTL2    -0.220000       12.0110           0
     23763 MEMB     180      POPC     H2X      HAL2     0.900000E-01   1.00800           0
     23764 MEMB     180      POPC     H2Y      HAL2     0.900000E-01   1.00800           0
     23765 MEMB     180      POPC     C23      CTL2    -0.180000       12.0110           0
     23766 MEMB     180      POPC     H3R      HAL2     0.900000E-01   1.00800           0
     23767 MEMB     180      POPC     H3S      HAL2     0.900000E-01   1.00800           0
     23768 MEMB     180      POPC     C24      CTL2    -0.180000       12.0110           0
     23769 MEMB     180      POPC     H4R      HAL2     0.900000E-01   1.00800           0
     23770 MEMB     180      POPC     H4S      HAL2     0.900000E-01   1.00800           0
     23771 MEMB     180      POPC     C25      CTL2    -0.180000       12.0110           0
     23772 MEMB     180      POPC     H5R      HAL2     0.900000E-01   1.00800           0
     23773 MEMB     180      POPC     H5S      HAL2     0.900000E-01   1.00800           0
     23774 MEMB     180      POPC     C26      CTL2    -0.180000       12.0110           0
     23775 MEMB     180      POPC     H6R      HAL2     0.900000E-01   1.00800           0
     23776 MEMB     180      POPC     H6S      HAL2     0.900000E-01   1.00800           0
     23777 MEMB     180      POPC     C27      CTL2    -0.180000       12.0110           0
     23778 MEMB     180      POPC     H7R      HAL2     0.900000E-01   1.00800           0
     23779 MEMB     180      POPC     H7S      HAL2     0.900000E-01   1.00800           0
     23780 MEMB     180      POPC     C28      CTL2    -0.180000       12.0110           0
     23781 MEMB     180      POPC     H8R      HAL2     0.900000E-01   1.00800           0
     23782 MEMB     180      POPC     H8S      HAL2     0.900000E-01   1.00800           0
     23783 MEMB     180      POPC     C29      CEL1    -0.150000       12.0110           0
     23784 MEMB     180      POPC     H91      HEL1     0.150000       1.00800           0
     23785 MEMB     180      POPC     C210     CEL1    -0.150000       12.0110           0
     23786 MEMB     180      POPC     H101     HEL1     0.150000       1.00800           0
     23787 MEMB     180      POPC     C211     CTL2    -0.180000       12.0110           0
     23788 MEMB     180      POPC     H11R     HAL2     0.900000E-01   1.00800           0
     23789 MEMB     180      POPC     H11S     HAL2     0.900000E-01   1.00800           0
     23790 MEMB     180      POPC     C212     CTL2    -0.180000       12.0110           0
     23791 MEMB     180      POPC     H12R     HAL2     0.900000E-01   1.00800           0
     23792 MEMB     180      POPC     H12S     HAL2     0.900000E-01   1.00800           0
     23793 MEMB     180      POPC     C213     CTL2    -0.180000       12.0110           0
     23794 MEMB     180      POPC     H13R     HAL2     0.900000E-01   1.00800           0
     23795 MEMB     180      POPC     H13S     HAL2     0.900000E-01   1.00800           0
     23796 MEMB     180      POPC     C214     CTL2    -0.180000       12.0110           0
     23797 MEMB     180      POPC     H14R     HAL2     0.900000E-01   1.00800           0
     23798 MEMB     180      POPC     H14S     HAL2     0.900000E-01   1.00800           0
     23799 MEMB     180      POPC     C215     CTL2    -0.180000       12.0110           0
     23800 MEMB     180      POPC     H15R     HAL2     0.900000E-01   1.00800           0
     23801 MEMB     180      POPC     H15S     HAL2     0.900000E-01   1.00800           0
     23802 MEMB     180      POPC     C216     CTL2    -0.180000       12.0110           0
     23803 MEMB     180      POPC     H16R     HAL2     0.900000E-01   1.00800           0
     23804 MEMB     180      POPC     H16S     HAL2     0.900000E-01   1.00800           0
     23805 MEMB     180      POPC     C217     CTL2    -0.180000       12.0110           0
     23806 MEMB     180      POPC     H17R     HAL2     0.900000E-01   1.00800           0
     23807 MEMB     180      POPC     H17S     HAL2     0.900000E-01   1.00800           0
     23808 MEMB     180      POPC     C218     CTL3    -0.270000       12.0110           0
     23809 MEMB     180      POPC     H18R     HAL3     0.900000E-01   1.00800           0
     23810 MEMB     180      POPC     H18S     HAL3     0.900000E-01   1.00800           0
     23811 MEMB     180      POPC     H18T     HAL3     0.900000E-01   1.00800           0
     23812 MEMB     180      POPC     C33      CTL2    -0.180000       12.0110           0
     23813 MEMB     180      POPC     H3X      HAL2     0.900000E-01   1.00800           0
     23814 MEMB     180      POPC     H3Y      HAL2     0.900000E-01   1.00800           0
     23815 MEMB     180      POPC     C34      CTL2    -0.180000       12.0110           0
     23816 MEMB     180      POPC     H4X      HAL2     0.900000E-01   1.00800           0
     23817 MEMB     180      POPC     H4Y      HAL2     0.900000E-01   1.00800           0
     23818 MEMB     180      POPC     C35      CTL2    -0.180000       12.0110           0
     23819 MEMB     180      POPC     H5X      HAL2     0.900000E-01   1.00800           0
     23820 MEMB     180      POPC     H5Y      HAL2     0.900000E-01   1.00800           0
     23821 MEMB     180      POPC     C36      CTL2    -0.180000       12.0110           0
     23822 MEMB     180      POPC     H6X      HAL2     0.900000E-01   1.00800           0
     23823 MEMB     180      POPC     H6Y      HAL2     0.900000E-01   1.00800           0
     23824 MEMB     180      POPC     C37      CTL2    -0.180000       12.0110           0
     23825 MEMB     180      POPC     H7X      HAL2     0.900000E-01   1.00800           0
     23826 MEMB     180      POPC     H7Y      HAL2     0.900000E-01   1.00800           0
     23827 MEMB     180      POPC     C38      CTL2    -0.180000       12.0110           0
     23828 MEMB     180      POPC     H8X      HAL2     0.900000E-01   1.00800           0
     23829 MEMB     180      POPC     H8Y      HAL2     0.900000E-01   1.00800           0
     23830 MEMB     180      POPC     C39      CTL2    -0.180000       12.0110           0
     23831 MEMB     180      POPC     H9X      HAL2     0.900000E-01   1.00800           0
     23832 MEMB     180      POPC     H9Y      HAL2     0.900000E-01   1.00800           0
     23833 MEMB     180      POPC     C310     CTL2    -0.180000       12.0110           0
     23834 MEMB     180      POPC     H10X     HAL2     0.900000E-01   1.00800           0
     23835 MEMB     180      POPC     H10Y     HAL2     0.900000E-01   1.00800           0
     23836 MEMB     180      POPC     C311     CTL2    -0.180000       12.0110           0
     23837 MEMB     180      POPC     H11X     HAL2     0.900000E-01   1.00800           0
     23838 MEMB     180      POPC     H11Y     HAL2     0.900000E-01   1.00800           0
     23839 MEMB     180      POPC     C312     CTL2    -0.180000       12.0110           0
     23840 MEMB     180      POPC     H12X     HAL2     0.900000E-01   1.00800           0
     23841 MEMB     180      POPC     H12Y     HAL2     0.900000E-01   1.00800           0
     23842 MEMB     180      POPC     C313     CTL2    -0.180000       12.0110           0
     23843 MEMB     180      POPC     H13X     HAL2     0.900000E-01   1.00800           0
     23844 MEMB     180      POPC     H13Y     HAL2     0.900000E-01   1.00800           0
     23845 MEMB     180      POPC     C314     CTL2    -0.180000       12.0110           0
     23846 MEMB     180      POPC     H14X     HAL2     0.900000E-01   1.00800           0
     23847 MEMB     180      POPC     H14Y     HAL2     0.900000E-01   1.00800           0
     23848 MEMB     180      POPC     C315     CTL2    -0.180000       12.0110           0
     23849 MEMB     180      POPC     H15X     HAL2     0.900000E-01   1.00800           0
     23850 MEMB     180      POPC     H15Y     HAL2     0.900000E-01   1.00800           0
     23851 MEMB     180      POPC     C316     CTL3    -0.270000       12.0110           0
     23852 MEMB     180      POPC     H16X     HAL3     0.900000E-01   1.00800           0
     23853 MEMB     180      POPC     H16Y     HAL3     0.900000E-01   1.00800           0
     23854 MEMB     180      POPC     H16Z     HAL3     0.900000E-01   1.00800           0
     23855 MEMB     181      POPC     N        NTL     -0.600000       14.0070           0
     23856 MEMB     181      POPC     C12      CTL2    -0.100000       12.0110           0
     23857 MEMB     181      POPC     H12A     HL       0.250000       1.00800           0
     23858 MEMB     181      POPC     H12B     HL       0.250000       1.00800           0
     23859 MEMB     181      POPC     C13      CTL5    -0.350000       12.0110           0
     23860 MEMB     181      POPC     H13A     HL       0.250000       1.00800           0
     23861 MEMB     181      POPC     H13B     HL       0.250000       1.00800           0
     23862 MEMB     181      POPC     H13C     HL       0.250000       1.00800           0
     23863 MEMB     181      POPC     C14      CTL5    -0.350000       12.0110           0
     23864 MEMB     181      POPC     H14A     HL       0.250000       1.00800           0
     23865 MEMB     181      POPC     H14B     HL       0.250000       1.00800           0
     23866 MEMB     181      POPC     H14C     HL       0.250000       1.00800           0
     23867 MEMB     181      POPC     C15      CTL5    -0.350000       12.0110           0
     23868 MEMB     181      POPC     H15A     HL       0.250000       1.00800           0
     23869 MEMB     181      POPC     H15B     HL       0.250000       1.00800           0
     23870 MEMB     181      POPC     H15C     HL       0.250000       1.00800           0
     23871 MEMB     181      POPC     C11      CTL2    -0.800000E-01   12.0110           0
     23872 MEMB     181      POPC     H11A     HAL2     0.900000E-01   1.00800           0
     23873 MEMB     181      POPC     H11B     HAL2     0.900000E-01   1.00800           0
     23874 MEMB     181      POPC     P        PL        1.50000       30.9740           0
     23875 MEMB     181      POPC     O13      O2L     -0.780000       15.9994           0
     23876 MEMB     181      POPC     O14      O2L     -0.780000       15.9994           0
     23877 MEMB     181      POPC     O12      OSLP    -0.570000       15.9994           0
     23878 MEMB     181      POPC     O11      OSLP    -0.570000       15.9994           0
     23879 MEMB     181      POPC     C1       CTL2    -0.800000E-01   12.0110           0
     23880 MEMB     181      POPC     HA       HAL2     0.900000E-01   1.00800           0
     23881 MEMB     181      POPC     HB       HAL2     0.900000E-01   1.00800           0
     23882 MEMB     181      POPC     C2       CTL1     0.170000       12.0110           0
     23883 MEMB     181      POPC     HS       HAL1     0.900000E-01   1.00800           0
     23884 MEMB     181      POPC     O21      OSL     -0.490000       15.9994           0
     23885 MEMB     181      POPC     C21      CL       0.900000       12.0110           0
     23886 MEMB     181      POPC     O22      OBL     -0.630000       15.9994           0
     23887 MEMB     181      POPC     C22      CTL2    -0.220000       12.0110           0
     23888 MEMB     181      POPC     H2R      HAL2     0.900000E-01   1.00800           0
     23889 MEMB     181      POPC     H2S      HAL2     0.900000E-01   1.00800           0
     23890 MEMB     181      POPC     C3       CTL2     0.800000E-01   12.0110           0
     23891 MEMB     181      POPC     HX       HAL2     0.900000E-01   1.00800           0
     23892 MEMB     181      POPC     HY       HAL2     0.900000E-01   1.00800           0
     23893 MEMB     181      POPC     O31      OSL     -0.490000       15.9994           0
     23894 MEMB     181      POPC     C31      CL       0.900000       12.0110           0
     23895 MEMB     181      POPC     O32      OBL     -0.630000       15.9994           0
     23896 MEMB     181      POPC     C32      CTL2    -0.220000       12.0110           0
     23897 MEMB     181      POPC     H2X      HAL2     0.900000E-01   1.00800           0
     23898 MEMB     181      POPC     H2Y      HAL2     0.900000E-01   1.00800           0
     23899 MEMB     181      POPC     C23      CTL2    -0.180000       12.0110           0
     23900 MEMB     181      POPC     H3R      HAL2     0.900000E-01   1.00800           0
     23901 MEMB     181      POPC     H3S      HAL2     0.900000E-01   1.00800           0
     23902 MEMB     181      POPC     C24      CTL2    -0.180000       12.0110           0
     23903 MEMB     181      POPC     H4R      HAL2     0.900000E-01   1.00800           0
     23904 MEMB     181      POPC     H4S      HAL2     0.900000E-01   1.00800           0
     23905 MEMB     181      POPC     C25      CTL2    -0.180000       12.0110           0
     23906 MEMB     181      POPC     H5R      HAL2     0.900000E-01   1.00800           0
     23907 MEMB     181      POPC     H5S      HAL2     0.900000E-01   1.00800           0
     23908 MEMB     181      POPC     C26      CTL2    -0.180000       12.0110           0
     23909 MEMB     181      POPC     H6R      HAL2     0.900000E-01   1.00800           0
     23910 MEMB     181      POPC     H6S      HAL2     0.900000E-01   1.00800           0
     23911 MEMB     181      POPC     C27      CTL2    -0.180000       12.0110           0
     23912 MEMB     181      POPC     H7R      HAL2     0.900000E-01   1.00800           0
     23913 MEMB     181      POPC     H7S      HAL2     0.900000E-01   1.00800           0
     23914 MEMB     181      POPC     C28      CTL2    -0.180000       12.0110           0
     23915 MEMB     181      POPC     H8R      HAL2     0.900000E-01   1.00800           0
     23916 MEMB     181      POPC     H8S      HAL2     0.900000E-01   1.00800           0
     23917 MEMB     181      POPC     C29      CEL1    -0.150000       12.0110           0
     23918 MEMB     181      POPC     H91      HEL1     0.150000       1.00800           0
     23919 MEMB     181      POPC     C210     CEL1    -0.150000       12.0110           0
     23920 MEMB     181      POPC     H101     HEL1     0.150000       1.00800           0
     23921 MEMB     181      POPC     C211     CTL2    -0.180000       12.0110           0
     23922 MEMB     181      POPC     H11R     HAL2     0.900000E-01   1.00800           0
     23923 MEMB     181      POPC     H11S     HAL2     0.900000E-01   1.00800           0
     23924 MEMB     181      POPC     C212     CTL2    -0.180000       12.0110           0
     23925 MEMB     181      POPC     H12R     HAL2     0.900000E-01   1.00800           0
     23926 MEMB     181      POPC     H12S     HAL2     0.900000E-01   1.00800           0
     23927 MEMB     181      POPC     C213     CTL2    -0.180000       12.0110           0
     23928 MEMB     181      POPC     H13R     HAL2     0.900000E-01   1.00800           0
     23929 MEMB     181      POPC     H13S     HAL2     0.900000E-01   1.00800           0
     23930 MEMB     181      POPC     C214     CTL2    -0.180000       12.0110           0
     23931 MEMB     181      POPC     H14R     HAL2     0.900000E-01   1.00800           0
     23932 MEMB     181      POPC     H14S     HAL2     0.900000E-01   1.00800           0
     23933 MEMB     181      POPC     C215     CTL2    -0.180000       12.0110           0
     23934 MEMB     181      POPC     H15R     HAL2     0.900000E-01   1.00800           0
     23935 MEMB     181      POPC     H15S     HAL2     0.900000E-01   1.00800           0
     23936 MEMB     181      POPC     C216     CTL2    -0.180000       12.0110           0
     23937 MEMB     181      POPC     H16R     HAL2     0.900000E-01   1.00800           0
     23938 MEMB     181      POPC     H16S     HAL2     0.900000E-01   1.00800           0
     23939 MEMB     181      POPC     C217     CTL2    -0.180000       12.0110           0
     23940 MEMB     181      POPC     H17R     HAL2     0.900000E-01   1.00800           0
     23941 MEMB     181      POPC     H17S     HAL2     0.900000E-01   1.00800           0
     23942 MEMB     181      POPC     C218     CTL3    -0.270000       12.0110           0
     23943 MEMB     181      POPC     H18R     HAL3     0.900000E-01   1.00800           0
     23944 MEMB     181      POPC     H18S     HAL3     0.900000E-01   1.00800           0
     23945 MEMB     181      POPC     H18T     HAL3     0.900000E-01   1.00800           0
     23946 MEMB     181      POPC     C33      CTL2    -0.180000       12.0110           0
     23947 MEMB     181      POPC     H3X      HAL2     0.900000E-01   1.00800           0
     23948 MEMB     181      POPC     H3Y      HAL2     0.900000E-01   1.00800           0
     23949 MEMB     181      POPC     C34      CTL2    -0.180000       12.0110           0
     23950 MEMB     181      POPC     H4X      HAL2     0.900000E-01   1.00800           0
     23951 MEMB     181      POPC     H4Y      HAL2     0.900000E-01   1.00800           0
     23952 MEMB     181      POPC     C35      CTL2    -0.180000       12.0110           0
     23953 MEMB     181      POPC     H5X      HAL2     0.900000E-01   1.00800           0
     23954 MEMB     181      POPC     H5Y      HAL2     0.900000E-01   1.00800           0
     23955 MEMB     181      POPC     C36      CTL2    -0.180000       12.0110           0
     23956 MEMB     181      POPC     H6X      HAL2     0.900000E-01   1.00800           0
     23957 MEMB     181      POPC     H6Y      HAL2     0.900000E-01   1.00800           0
     23958 MEMB     181      POPC     C37      CTL2    -0.180000       12.0110           0
     23959 MEMB     181      POPC     H7X      HAL2     0.900000E-01   1.00800           0
     23960 MEMB     181      POPC     H7Y      HAL2     0.900000E-01   1.00800           0
     23961 MEMB     181      POPC     C38      CTL2    -0.180000       12.0110           0
     23962 MEMB     181      POPC     H8X      HAL2     0.900000E-01   1.00800           0
     23963 MEMB     181      POPC     H8Y      HAL2     0.900000E-01   1.00800           0
     23964 MEMB     181      POPC     C39      CTL2    -0.180000       12.0110           0
     23965 MEMB     181      POPC     H9X      HAL2     0.900000E-01   1.00800           0
     23966 MEMB     181      POPC     H9Y      HAL2     0.900000E-01   1.00800           0
     23967 MEMB     181      POPC     C310     CTL2    -0.180000       12.0110           0
     23968 MEMB     181      POPC     H10X     HAL2     0.900000E-01   1.00800           0
     23969 MEMB     181      POPC     H10Y     HAL2     0.900000E-01   1.00800           0
     23970 MEMB     181      POPC     C311     CTL2    -0.180000       12.0110           0
     23971 MEMB     181      POPC     H11X     HAL2     0.900000E-01   1.00800           0
     23972 MEMB     181      POPC     H11Y     HAL2     0.900000E-01   1.00800           0
     23973 MEMB     181      POPC     C312     CTL2    -0.180000       12.0110           0
     23974 MEMB     181      POPC     H12X     HAL2     0.900000E-01   1.00800           0
     23975 MEMB     181      POPC     H12Y     HAL2     0.900000E-01   1.00800           0
     23976 MEMB     181      POPC     C313     CTL2    -0.180000       12.0110           0
     23977 MEMB     181      POPC     H13X     HAL2     0.900000E-01   1.00800           0
     23978 MEMB     181      POPC     H13Y     HAL2     0.900000E-01   1.00800           0
     23979 MEMB     181      POPC     C314     CTL2    -0.180000       12.0110           0
     23980 MEMB     181      POPC     H14X     HAL2     0.900000E-01   1.00800           0
     23981 MEMB     181      POPC     H14Y     HAL2     0.900000E-01   1.00800           0
     23982 MEMB     181      POPC     C315     CTL2    -0.180000       12.0110           0
     23983 MEMB     181      POPC     H15X     HAL2     0.900000E-01   1.00800           0
     23984 MEMB     181      POPC     H15Y     HAL2     0.900000E-01   1.00800           0
     23985 MEMB     181      POPC     C316     CTL3    -0.270000       12.0110           0
     23986 MEMB     181      POPC     H16X     HAL3     0.900000E-01   1.00800           0
     23987 MEMB     181      POPC     H16Y     HAL3     0.900000E-01   1.00800           0
     23988 MEMB     181      POPC     H16Z     HAL3     0.900000E-01   1.00800           0
     23989 MEMB     182      POPC     N        NTL     -0.600000       14.0070           0
     23990 MEMB     182      POPC     C12      CTL2    -0.100000       12.0110           0
     23991 MEMB     182      POPC     H12A     HL       0.250000       1.00800           0
     23992 MEMB     182      POPC     H12B     HL       0.250000       1.00800           0
     23993 MEMB     182      POPC     C13      CTL5    -0.350000       12.0110           0
     23994 MEMB     182      POPC     H13A     HL       0.250000       1.00800           0
     23995 MEMB     182      POPC     H13B     HL       0.250000       1.00800           0
     23996 MEMB     182      POPC     H13C     HL       0.250000       1.00800           0
     23997 MEMB     182      POPC     C14      CTL5    -0.350000       12.0110           0
     23998 MEMB     182      POPC     H14A     HL       0.250000       1.00800           0
     23999 MEMB     182      POPC     H14B     HL       0.250000       1.00800           0
     24000 MEMB     182      POPC     H14C     HL       0.250000       1.00800           0
     24001 MEMB     182      POPC     C15      CTL5    -0.350000       12.0110           0
     24002 MEMB     182      POPC     H15A     HL       0.250000       1.00800           0
     24003 MEMB     182      POPC     H15B     HL       0.250000       1.00800           0
     24004 MEMB     182      POPC     H15C     HL       0.250000       1.00800           0
     24005 MEMB     182      POPC     C11      CTL2    -0.800000E-01   12.0110           0
     24006 MEMB     182      POPC     H11A     HAL2     0.900000E-01   1.00800           0
     24007 MEMB     182      POPC     H11B     HAL2     0.900000E-01   1.00800           0
     24008 MEMB     182      POPC     P        PL        1.50000       30.9740           0
     24009 MEMB     182      POPC     O13      O2L     -0.780000       15.9994           0
     24010 MEMB     182      POPC     O14      O2L     -0.780000       15.9994           0
     24011 MEMB     182      POPC     O12      OSLP    -0.570000       15.9994           0
     24012 MEMB     182      POPC     O11      OSLP    -0.570000       15.9994           0
     24013 MEMB     182      POPC     C1       CTL2    -0.800000E-01   12.0110           0
     24014 MEMB     182      POPC     HA       HAL2     0.900000E-01   1.00800           0
     24015 MEMB     182      POPC     HB       HAL2     0.900000E-01   1.00800           0
     24016 MEMB     182      POPC     C2       CTL1     0.170000       12.0110           0
     24017 MEMB     182      POPC     HS       HAL1     0.900000E-01   1.00800           0
     24018 MEMB     182      POPC     O21      OSL     -0.490000       15.9994           0
     24019 MEMB     182      POPC     C21      CL       0.900000       12.0110           0
     24020 MEMB     182      POPC     O22      OBL     -0.630000       15.9994           0
     24021 MEMB     182      POPC     C22      CTL2    -0.220000       12.0110           0
     24022 MEMB     182      POPC     H2R      HAL2     0.900000E-01   1.00800           0
     24023 MEMB     182      POPC     H2S      HAL2     0.900000E-01   1.00800           0
     24024 MEMB     182      POPC     C3       CTL2     0.800000E-01   12.0110           0
     24025 MEMB     182      POPC     HX       HAL2     0.900000E-01   1.00800           0
     24026 MEMB     182      POPC     HY       HAL2     0.900000E-01   1.00800           0
     24027 MEMB     182      POPC     O31      OSL     -0.490000       15.9994           0
     24028 MEMB     182      POPC     C31      CL       0.900000       12.0110           0
     24029 MEMB     182      POPC     O32      OBL     -0.630000       15.9994           0
     24030 MEMB     182      POPC     C32      CTL2    -0.220000       12.0110           0
     24031 MEMB     182      POPC     H2X      HAL2     0.900000E-01   1.00800           0
     24032 MEMB     182      POPC     H2Y      HAL2     0.900000E-01   1.00800           0
     24033 MEMB     182      POPC     C23      CTL2    -0.180000       12.0110           0
     24034 MEMB     182      POPC     H3R      HAL2     0.900000E-01   1.00800           0
     24035 MEMB     182      POPC     H3S      HAL2     0.900000E-01   1.00800           0
     24036 MEMB     182      POPC     C24      CTL2    -0.180000       12.0110           0
     24037 MEMB     182      POPC     H4R      HAL2     0.900000E-01   1.00800           0
     24038 MEMB     182      POPC     H4S      HAL2     0.900000E-01   1.00800           0
     24039 MEMB     182      POPC     C25      CTL2    -0.180000       12.0110           0
     24040 MEMB     182      POPC     H5R      HAL2     0.900000E-01   1.00800           0
     24041 MEMB     182      POPC     H5S      HAL2     0.900000E-01   1.00800           0
     24042 MEMB     182      POPC     C26      CTL2    -0.180000       12.0110           0
     24043 MEMB     182      POPC     H6R      HAL2     0.900000E-01   1.00800           0
     24044 MEMB     182      POPC     H6S      HAL2     0.900000E-01   1.00800           0
     24045 MEMB     182      POPC     C27      CTL2    -0.180000       12.0110           0
     24046 MEMB     182      POPC     H7R      HAL2     0.900000E-01   1.00800           0
     24047 MEMB     182      POPC     H7S      HAL2     0.900000E-01   1.00800           0
     24048 MEMB     182      POPC     C28      CTL2    -0.180000       12.0110           0
     24049 MEMB     182      POPC     H8R      HAL2     0.900000E-01   1.00800           0
     24050 MEMB     182      POPC     H8S      HAL2     0.900000E-01   1.00800           0
     24051 MEMB     182      POPC     C29      CEL1    -0.150000       12.0110           0
     24052 MEMB     182      POPC     H91      HEL1     0.150000       1.00800           0
     24053 MEMB     182      POPC     C210     CEL1    -0.150000       12.0110           0
     24054 MEMB     182      POPC     H101     HEL1     0.150000       1.00800           0
     24055 MEMB     182      POPC     C211     CTL2    -0.180000       12.0110           0
     24056 MEMB     182      POPC     H11R     HAL2     0.900000E-01   1.00800           0
     24057 MEMB     182      POPC     H11S     HAL2     0.900000E-01   1.00800           0
     24058 MEMB     182      POPC     C212     CTL2    -0.180000       12.0110           0
     24059 MEMB     182      POPC     H12R     HAL2     0.900000E-01   1.00800           0
     24060 MEMB     182      POPC     H12S     HAL2     0.900000E-01   1.00800           0
     24061 MEMB     182      POPC     C213     CTL2    -0.180000       12.0110           0
     24062 MEMB     182      POPC     H13R     HAL2     0.900000E-01   1.00800           0
     24063 MEMB     182      POPC     H13S     HAL2     0.900000E-01   1.00800           0
     24064 MEMB     182      POPC     C214     CTL2    -0.180000       12.0110           0
     24065 MEMB     182      POPC     H14R     HAL2     0.900000E-01   1.00800           0
     24066 MEMB     182      POPC     H14S     HAL2     0.900000E-01   1.00800           0
     24067 MEMB     182      POPC     C215     CTL2    -0.180000       12.0110           0
     24068 MEMB     182      POPC     H15R     HAL2     0.900000E-01   1.00800           0
     24069 MEMB     182      POPC     H15S     HAL2     0.900000E-01   1.00800           0
     24070 MEMB     182      POPC     C216     CTL2    -0.180000       12.0110           0
     24071 MEMB     182      POPC     H16R     HAL2     0.900000E-01   1.00800           0
     24072 MEMB     182      POPC     H16S     HAL2     0.900000E-01   1.00800           0
     24073 MEMB     182      POPC     C217     CTL2    -0.180000       12.0110           0
     24074 MEMB     182      POPC     H17R     HAL2     0.900000E-01   1.00800           0
     24075 MEMB     182      POPC     H17S     HAL2     0.900000E-01   1.00800           0
     24076 MEMB     182      POPC     C218     CTL3    -0.270000       12.0110           0
     24077 MEMB     182      POPC     H18R     HAL3     0.900000E-01   1.00800           0
     24078 MEMB     182      POPC     H18S     HAL3     0.900000E-01   1.00800           0
     24079 MEMB     182      POPC     H18T     HAL3     0.900000E-01   1.00800           0
     24080 MEMB     182      POPC     C33      CTL2    -0.180000       12.0110           0
     24081 MEMB     182      POPC     H3X      HAL2     0.900000E-01   1.00800           0
     24082 MEMB     182      POPC     H3Y      HAL2     0.900000E-01   1.00800           0
     24083 MEMB     182      POPC     C34      CTL2    -0.180000       12.0110           0
     24084 MEMB     182      POPC     H4X      HAL2     0.900000E-01   1.00800           0
     24085 MEMB     182      POPC     H4Y      HAL2     0.900000E-01   1.00800           0
     24086 MEMB     182      POPC     C35      CTL2    -0.180000       12.0110           0
     24087 MEMB     182      POPC     H5X      HAL2     0.900000E-01   1.00800           0
     24088 MEMB     182      POPC     H5Y      HAL2     0.900000E-01   1.00800           0
     24089 MEMB     182      POPC     C36      CTL2    -0.180000       12.0110           0
     24090 MEMB     182      POPC     H6X      HAL2     0.900000E-01   1.00800           0
     24091 MEMB     182      POPC     H6Y      HAL2     0.900000E-01   1.00800           0
     24092 MEMB     182      POPC     C37      CTL2    -0.180000       12.0110           0
     24093 MEMB     182      POPC     H7X      HAL2     0.900000E-01   1.00800           0
     24094 MEMB     182      POPC     H7Y      HAL2     0.900000E-01   1.00800           0
     24095 MEMB     182      POPC     C38      CTL2    -0.180000       12.0110           0
     24096 MEMB     182      POPC     H8X      HAL2     0.900000E-01   1.00800           0
     24097 MEMB     182      POPC     H8Y      HAL2     0.900000E-01   1.00800           0
     24098 MEMB     182      POPC     C39      CTL2    -0.180000       12.0110           0
     24099 MEMB     182      POPC     H9X      HAL2     0.900000E-01   1.00800           0
     24100 MEMB     182      POPC     H9Y      HAL2     0.900000E-01   1.00800           0
     24101 MEMB     182      POPC     C310     CTL2    -0.180000       12.0110           0
     24102 MEMB     182      POPC     H10X     HAL2     0.900000E-01   1.00800           0
     24103 MEMB     182      POPC     H10Y     HAL2     0.900000E-01   1.00800           0
     24104 MEMB     182      POPC     C311     CTL2    -0.180000       12.0110           0
     24105 MEMB     182      POPC     H11X     HAL2     0.900000E-01   1.00800           0
     24106 MEMB     182      POPC     H11Y     HAL2     0.900000E-01   1.00800           0
     24107 MEMB     182      POPC     C312     CTL2    -0.180000       12.0110           0
     24108 MEMB     182      POPC     H12X     HAL2     0.900000E-01   1.00800           0
     24109 MEMB     182      POPC     H12Y     HAL2     0.900000E-01   1.00800           0
     24110 MEMB     182      POPC     C313     CTL2    -0.180000       12.0110           0
     24111 MEMB     182      POPC     H13X     HAL2     0.900000E-01   1.00800           0
     24112 MEMB     182      POPC     H13Y     HAL2     0.900000E-01   1.00800           0
     24113 MEMB     182      POPC     C314     CTL2    -0.180000       12.0110           0
     24114 MEMB     182      POPC     H14X     HAL2     0.900000E-01   1.00800           0
     24115 MEMB     182      POPC     H14Y     HAL2     0.900000E-01   1.00800           0
     24116 MEMB     182      POPC     C315     CTL2    -0.180000       12.0110           0
     24117 MEMB     182      POPC     H15X     HAL2     0.900000E-01   1.00800           0
     24118 MEMB     182      POPC     H15Y     HAL2     0.900000E-01   1.00800           0
     24119 MEMB     182      POPC     C316     CTL3    -0.270000       12.0110           0
     24120 MEMB     182      POPC     H16X     HAL3     0.900000E-01   1.00800           0
     24121 MEMB     182      POPC     H16Y     HAL3     0.900000E-01   1.00800           0
     24122 MEMB     182      POPC     H16Z     HAL3     0.900000E-01   1.00800           0
     24123 MEMB     183      POPC     N        NTL     -0.600000       14.0070           0
     24124 MEMB     183      POPC     C12      CTL2    -0.100000       12.0110           0
     24125 MEMB     183      POPC     H12A     HL       0.250000       1.00800           0
     24126 MEMB     183      POPC     H12B     HL       0.250000       1.00800           0
     24127 MEMB     183      POPC     C13      CTL5    -0.350000       12.0110           0
     24128 MEMB     183      POPC     H13A     HL       0.250000       1.00800           0
     24129 MEMB     183      POPC     H13B     HL       0.250000       1.00800           0
     24130 MEMB     183      POPC     H13C     HL       0.250000       1.00800           0
     24131 MEMB     183      POPC     C14      CTL5    -0.350000       12.0110           0
     24132 MEMB     183      POPC     H14A     HL       0.250000       1.00800           0
     24133 MEMB     183      POPC     H14B     HL       0.250000       1.00800           0
     24134 MEMB     183      POPC     H14C     HL       0.250000       1.00800           0
     24135 MEMB     183      POPC     C15      CTL5    -0.350000       12.0110           0
     24136 MEMB     183      POPC     H15A     HL       0.250000       1.00800           0
     24137 MEMB     183      POPC     H15B     HL       0.250000       1.00800           0
     24138 MEMB     183      POPC     H15C     HL       0.250000       1.00800           0
     24139 MEMB     183      POPC     C11      CTL2    -0.800000E-01   12.0110           0
     24140 MEMB     183      POPC     H11A     HAL2     0.900000E-01   1.00800           0
     24141 MEMB     183      POPC     H11B     HAL2     0.900000E-01   1.00800           0
     24142 MEMB     183      POPC     P        PL        1.50000       30.9740           0
     24143 MEMB     183      POPC     O13      O2L     -0.780000       15.9994           0
     24144 MEMB     183      POPC     O14      O2L     -0.780000       15.9994           0
     24145 MEMB     183      POPC     O12      OSLP    -0.570000       15.9994           0
     24146 MEMB     183      POPC     O11      OSLP    -0.570000       15.9994           0
     24147 MEMB     183      POPC     C1       CTL2    -0.800000E-01   12.0110           0
     24148 MEMB     183      POPC     HA       HAL2     0.900000E-01   1.00800           0
     24149 MEMB     183      POPC     HB       HAL2     0.900000E-01   1.00800           0
     24150 MEMB     183      POPC     C2       CTL1     0.170000       12.0110           0
     24151 MEMB     183      POPC     HS       HAL1     0.900000E-01   1.00800           0
     24152 MEMB     183      POPC     O21      OSL     -0.490000       15.9994           0
     24153 MEMB     183      POPC     C21      CL       0.900000       12.0110           0
     24154 MEMB     183      POPC     O22      OBL     -0.630000       15.9994           0
     24155 MEMB     183      POPC     C22      CTL2    -0.220000       12.0110           0
     24156 MEMB     183      POPC     H2R      HAL2     0.900000E-01   1.00800           0
     24157 MEMB     183      POPC     H2S      HAL2     0.900000E-01   1.00800           0
     24158 MEMB     183      POPC     C3       CTL2     0.800000E-01   12.0110           0
     24159 MEMB     183      POPC     HX       HAL2     0.900000E-01   1.00800           0
     24160 MEMB     183      POPC     HY       HAL2     0.900000E-01   1.00800           0
     24161 MEMB     183      POPC     O31      OSL     -0.490000       15.9994           0
     24162 MEMB     183      POPC     C31      CL       0.900000       12.0110           0
     24163 MEMB     183      POPC     O32      OBL     -0.630000       15.9994           0
     24164 MEMB     183      POPC     C32      CTL2    -0.220000       12.0110           0
     24165 MEMB     183      POPC     H2X      HAL2     0.900000E-01   1.00800           0
     24166 MEMB     183      POPC     H2Y      HAL2     0.900000E-01   1.00800           0
     24167 MEMB     183      POPC     C23      CTL2    -0.180000       12.0110           0
     24168 MEMB     183      POPC     H3R      HAL2     0.900000E-01   1.00800           0
     24169 MEMB     183      POPC     H3S      HAL2     0.900000E-01   1.00800           0
     24170 MEMB     183      POPC     C24      CTL2    -0.180000       12.0110           0
     24171 MEMB     183      POPC     H4R      HAL2     0.900000E-01   1.00800           0
     24172 MEMB     183      POPC     H4S      HAL2     0.900000E-01   1.00800           0
     24173 MEMB     183      POPC     C25      CTL2    -0.180000       12.0110           0
     24174 MEMB     183      POPC     H5R      HAL2     0.900000E-01   1.00800           0
     24175 MEMB     183      POPC     H5S      HAL2     0.900000E-01   1.00800           0
     24176 MEMB     183      POPC     C26      CTL2    -0.180000       12.0110           0
     24177 MEMB     183      POPC     H6R      HAL2     0.900000E-01   1.00800           0
     24178 MEMB     183      POPC     H6S      HAL2     0.900000E-01   1.00800           0
     24179 MEMB     183      POPC     C27      CTL2    -0.180000       12.0110           0
     24180 MEMB     183      POPC     H7R      HAL2     0.900000E-01   1.00800           0
     24181 MEMB     183      POPC     H7S      HAL2     0.900000E-01   1.00800           0
     24182 MEMB     183      POPC     C28      CTL2    -0.180000       12.0110           0
     24183 MEMB     183      POPC     H8R      HAL2     0.900000E-01   1.00800           0
     24184 MEMB     183      POPC     H8S      HAL2     0.900000E-01   1.00800           0
     24185 MEMB     183      POPC     C29      CEL1    -0.150000       12.0110           0
     24186 MEMB     183      POPC     H91      HEL1     0.150000       1.00800           0
     24187 MEMB     183      POPC     C210     CEL1    -0.150000       12.0110           0
     24188 MEMB     183      POPC     H101     HEL1     0.150000       1.00800           0
     24189 MEMB     183      POPC     C211     CTL2    -0.180000       12.0110           0
     24190 MEMB     183      POPC     H11R     HAL2     0.900000E-01   1.00800           0
     24191 MEMB     183      POPC     H11S     HAL2     0.900000E-01   1.00800           0
     24192 MEMB     183      POPC     C212     CTL2    -0.180000       12.0110           0
     24193 MEMB     183      POPC     H12R     HAL2     0.900000E-01   1.00800           0
     24194 MEMB     183      POPC     H12S     HAL2     0.900000E-01   1.00800           0
     24195 MEMB     183      POPC     C213     CTL2    -0.180000       12.0110           0
     24196 MEMB     183      POPC     H13R     HAL2     0.900000E-01   1.00800           0
     24197 MEMB     183      POPC     H13S     HAL2     0.900000E-01   1.00800           0
     24198 MEMB     183      POPC     C214     CTL2    -0.180000       12.0110           0
     24199 MEMB     183      POPC     H14R     HAL2     0.900000E-01   1.00800           0
     24200 MEMB     183      POPC     H14S     HAL2     0.900000E-01   1.00800           0
     24201 MEMB     183      POPC     C215     CTL2    -0.180000       12.0110           0
     24202 MEMB     183      POPC     H15R     HAL2     0.900000E-01   1.00800           0
     24203 MEMB     183      POPC     H15S     HAL2     0.900000E-01   1.00800           0
     24204 MEMB     183      POPC     C216     CTL2    -0.180000       12.0110           0
     24205 MEMB     183      POPC     H16R     HAL2     0.900000E-01   1.00800           0
     24206 MEMB     183      POPC     H16S     HAL2     0.900000E-01   1.00800           0
     24207 MEMB     183      POPC     C217     CTL2    -0.180000       12.0110           0
     24208 MEMB     183      POPC     H17R     HAL2     0.900000E-01   1.00800           0
     24209 MEMB     183      POPC     H17S     HAL2     0.900000E-01   1.00800           0
     24210 MEMB     183      POPC     C218     CTL3    -0.270000       12.0110           0
     24211 MEMB     183      POPC     H18R     HAL3     0.900000E-01   1.00800           0
     24212 MEMB     183      POPC     H18S     HAL3     0.900000E-01   1.00800           0
     24213 MEMB     183      POPC     H18T     HAL3     0.900000E-01   1.00800           0
     24214 MEMB     183      POPC     C33      CTL2    -0.180000       12.0110           0
     24215 MEMB     183      POPC     H3X      HAL2     0.900000E-01   1.00800           0
     24216 MEMB     183      POPC     H3Y      HAL2     0.900000E-01   1.00800           0
     24217 MEMB     183      POPC     C34      CTL2    -0.180000       12.0110           0
     24218 MEMB     183      POPC     H4X      HAL2     0.900000E-01   1.00800           0
     24219 MEMB     183      POPC     H4Y      HAL2     0.900000E-01   1.00800           0
     24220 MEMB     183      POPC     C35      CTL2    -0.180000       12.0110           0
     24221 MEMB     183      POPC     H5X      HAL2     0.900000E-01   1.00800           0
     24222 MEMB     183      POPC     H5Y      HAL2     0.900000E-01   1.00800           0
     24223 MEMB     183      POPC     C36      CTL2    -0.180000       12.0110           0
     24224 MEMB     183      POPC     H6X      HAL2     0.900000E-01   1.00800           0
     24225 MEMB     183      POPC     H6Y      HAL2     0.900000E-01   1.00800           0
     24226 MEMB     183      POPC     C37      CTL2    -0.180000       12.0110           0
     24227 MEMB     183      POPC     H7X      HAL2     0.900000E-01   1.00800           0
     24228 MEMB     183      POPC     H7Y      HAL2     0.900000E-01   1.00800           0
     24229 MEMB     183      POPC     C38      CTL2    -0.180000       12.0110           0
     24230 MEMB     183      POPC     H8X      HAL2     0.900000E-01   1.00800           0
     24231 MEMB     183      POPC     H8Y      HAL2     0.900000E-01   1.00800           0
     24232 MEMB     183      POPC     C39      CTL2    -0.180000       12.0110           0
     24233 MEMB     183      POPC     H9X      HAL2     0.900000E-01   1.00800           0
     24234 MEMB     183      POPC     H9Y      HAL2     0.900000E-01   1.00800           0
     24235 MEMB     183      POPC     C310     CTL2    -0.180000       12.0110           0
     24236 MEMB     183      POPC     H10X     HAL2     0.900000E-01   1.00800           0
     24237 MEMB     183      POPC     H10Y     HAL2     0.900000E-01   1.00800           0
     24238 MEMB     183      POPC     C311     CTL2    -0.180000       12.0110           0
     24239 MEMB     183      POPC     H11X     HAL2     0.900000E-01   1.00800           0
     24240 MEMB     183      POPC     H11Y     HAL2     0.900000E-01   1.00800           0
     24241 MEMB     183      POPC     C312     CTL2    -0.180000       12.0110           0
     24242 MEMB     183      POPC     H12X     HAL2     0.900000E-01   1.00800           0
     24243 MEMB     183      POPC     H12Y     HAL2     0.900000E-01   1.00800           0
     24244 MEMB     183      POPC     C313     CTL2    -0.180000       12.0110           0
     24245 MEMB     183      POPC     H13X     HAL2     0.900000E-01   1.00800           0
     24246 MEMB     183      POPC     H13Y     HAL2     0.900000E-01   1.00800           0
     24247 MEMB     183      POPC     C314     CTL2    -0.180000       12.0110           0
     24248 MEMB     183      POPC     H14X     HAL2     0.900000E-01   1.00800           0
     24249 MEMB     183      POPC     H14Y     HAL2     0.900000E-01   1.00800           0
     24250 MEMB     183      POPC     C315     CTL2    -0.180000       12.0110           0
     24251 MEMB     183      POPC     H15X     HAL2     0.900000E-01   1.00800           0
     24252 MEMB     183      POPC     H15Y     HAL2     0.900000E-01   1.00800           0
     24253 MEMB     183      POPC     C316     CTL3    -0.270000       12.0110           0
     24254 MEMB     183      POPC     H16X     HAL3     0.900000E-01   1.00800           0
     24255 MEMB     183      POPC     H16Y     HAL3     0.900000E-01   1.00800           0
     24256 MEMB     183      POPC     H16Z     HAL3     0.900000E-01   1.00800           0
     24257 MEMB     184      POPC     N        NTL     -0.600000       14.0070           0
     24258 MEMB     184      POPC     C12      CTL2    -0.100000       12.0110           0
     24259 MEMB     184      POPC     H12A     HL       0.250000       1.00800           0
     24260 MEMB     184      POPC     H12B     HL       0.250000       1.00800           0
     24261 MEMB     184      POPC     C13      CTL5    -0.350000       12.0110           0
     24262 MEMB     184      POPC     H13A     HL       0.250000       1.00800           0
     24263 MEMB     184      POPC     H13B     HL       0.250000       1.00800           0
     24264 MEMB     184      POPC     H13C     HL       0.250000       1.00800           0
     24265 MEMB     184      POPC     C14      CTL5    -0.350000       12.0110           0
     24266 MEMB     184      POPC     H14A     HL       0.250000       1.00800           0
     24267 MEMB     184      POPC     H14B     HL       0.250000       1.00800           0
     24268 MEMB     184      POPC     H14C     HL       0.250000       1.00800           0
     24269 MEMB     184      POPC     C15      CTL5    -0.350000       12.0110           0
     24270 MEMB     184      POPC     H15A     HL       0.250000       1.00800           0
     24271 MEMB     184      POPC     H15B     HL       0.250000       1.00800           0
     24272 MEMB     184      POPC     H15C     HL       0.250000       1.00800           0
     24273 MEMB     184      POPC     C11      CTL2    -0.800000E-01   12.0110           0
     24274 MEMB     184      POPC     H11A     HAL2     0.900000E-01   1.00800           0
     24275 MEMB     184      POPC     H11B     HAL2     0.900000E-01   1.00800           0
     24276 MEMB     184      POPC     P        PL        1.50000       30.9740           0
     24277 MEMB     184      POPC     O13      O2L     -0.780000       15.9994           0
     24278 MEMB     184      POPC     O14      O2L     -0.780000       15.9994           0
     24279 MEMB     184      POPC     O12      OSLP    -0.570000       15.9994           0
     24280 MEMB     184      POPC     O11      OSLP    -0.570000       15.9994           0
     24281 MEMB     184      POPC     C1       CTL2    -0.800000E-01   12.0110           0
     24282 MEMB     184      POPC     HA       HAL2     0.900000E-01   1.00800           0
     24283 MEMB     184      POPC     HB       HAL2     0.900000E-01   1.00800           0
     24284 MEMB     184      POPC     C2       CTL1     0.170000       12.0110           0
     24285 MEMB     184      POPC     HS       HAL1     0.900000E-01   1.00800           0
     24286 MEMB     184      POPC     O21      OSL     -0.490000       15.9994           0
     24287 MEMB     184      POPC     C21      CL       0.900000       12.0110           0
     24288 MEMB     184      POPC     O22      OBL     -0.630000       15.9994           0
     24289 MEMB     184      POPC     C22      CTL2    -0.220000       12.0110           0
     24290 MEMB     184      POPC     H2R      HAL2     0.900000E-01   1.00800           0
     24291 MEMB     184      POPC     H2S      HAL2     0.900000E-01   1.00800           0
     24292 MEMB     184      POPC     C3       CTL2     0.800000E-01   12.0110           0
     24293 MEMB     184      POPC     HX       HAL2     0.900000E-01   1.00800           0
     24294 MEMB     184      POPC     HY       HAL2     0.900000E-01   1.00800           0
     24295 MEMB     184      POPC     O31      OSL     -0.490000       15.9994           0
     24296 MEMB     184      POPC     C31      CL       0.900000       12.0110           0
     24297 MEMB     184      POPC     O32      OBL     -0.630000       15.9994           0
     24298 MEMB     184      POPC     C32      CTL2    -0.220000       12.0110           0
     24299 MEMB     184      POPC     H2X      HAL2     0.900000E-01   1.00800           0
     24300 MEMB     184      POPC     H2Y      HAL2     0.900000E-01   1.00800           0
     24301 MEMB     184      POPC     C23      CTL2    -0.180000       12.0110           0
     24302 MEMB     184      POPC     H3R      HAL2     0.900000E-01   1.00800           0
     24303 MEMB     184      POPC     H3S      HAL2     0.900000E-01   1.00800           0
     24304 MEMB     184      POPC     C24      CTL2    -0.180000       12.0110           0
     24305 MEMB     184      POPC     H4R      HAL2     0.900000E-01   1.00800           0
     24306 MEMB     184      POPC     H4S      HAL2     0.900000E-01   1.00800           0
     24307 MEMB     184      POPC     C25      CTL2    -0.180000       12.0110           0
     24308 MEMB     184      POPC     H5R      HAL2     0.900000E-01   1.00800           0
     24309 MEMB     184      POPC     H5S      HAL2     0.900000E-01   1.00800           0
     24310 MEMB     184      POPC     C26      CTL2    -0.180000       12.0110           0
     24311 MEMB     184      POPC     H6R      HAL2     0.900000E-01   1.00800           0
     24312 MEMB     184      POPC     H6S      HAL2     0.900000E-01   1.00800           0
     24313 MEMB     184      POPC     C27      CTL2    -0.180000       12.0110           0
     24314 MEMB     184      POPC     H7R      HAL2     0.900000E-01   1.00800           0
     24315 MEMB     184      POPC     H7S      HAL2     0.900000E-01   1.00800           0
     24316 MEMB     184      POPC     C28      CTL2    -0.180000       12.0110           0
     24317 MEMB     184      POPC     H8R      HAL2     0.900000E-01   1.00800           0
     24318 MEMB     184      POPC     H8S      HAL2     0.900000E-01   1.00800           0
     24319 MEMB     184      POPC     C29      CEL1    -0.150000       12.0110           0
     24320 MEMB     184      POPC     H91      HEL1     0.150000       1.00800           0
     24321 MEMB     184      POPC     C210     CEL1    -0.150000       12.0110           0
     24322 MEMB     184      POPC     H101     HEL1     0.150000       1.00800           0
     24323 MEMB     184      POPC     C211     CTL2    -0.180000       12.0110           0
     24324 MEMB     184      POPC     H11R     HAL2     0.900000E-01   1.00800           0
     24325 MEMB     184      POPC     H11S     HAL2     0.900000E-01   1.00800           0
     24326 MEMB     184      POPC     C212     CTL2    -0.180000       12.0110           0
     24327 MEMB     184      POPC     H12R     HAL2     0.900000E-01   1.00800           0
     24328 MEMB     184      POPC     H12S     HAL2     0.900000E-01   1.00800           0
     24329 MEMB     184      POPC     C213     CTL2    -0.180000       12.0110           0
     24330 MEMB     184      POPC     H13R     HAL2     0.900000E-01   1.00800           0
     24331 MEMB     184      POPC     H13S     HAL2     0.900000E-01   1.00800           0
     24332 MEMB     184      POPC     C214     CTL2    -0.180000       12.0110           0
     24333 MEMB     184      POPC     H14R     HAL2     0.900000E-01   1.00800           0
     24334 MEMB     184      POPC     H14S     HAL2     0.900000E-01   1.00800           0
     24335 MEMB     184      POPC     C215     CTL2    -0.180000       12.0110           0
     24336 MEMB     184      POPC     H15R     HAL2     0.900000E-01   1.00800           0
     24337 MEMB     184      POPC     H15S     HAL2     0.900000E-01   1.00800           0
     24338 MEMB     184      POPC     C216     CTL2    -0.180000       12.0110           0
     24339 MEMB     184      POPC     H16R     HAL2     0.900000E-01   1.00800           0
     24340 MEMB     184      POPC     H16S     HAL2     0.900000E-01   1.00800           0
     24341 MEMB     184      POPC     C217     CTL2    -0.180000       12.0110           0
     24342 MEMB     184      POPC     H17R     HAL2     0.900000E-01   1.00800           0
     24343 MEMB     184      POPC     H17S     HAL2     0.900000E-01   1.00800           0
     24344 MEMB     184      POPC     C218     CTL3    -0.270000       12.0110           0
     24345 MEMB     184      POPC     H18R     HAL3     0.900000E-01   1.00800           0
     24346 MEMB     184      POPC     H18S     HAL3     0.900000E-01   1.00800           0
     24347 MEMB     184      POPC     H18T     HAL3     0.900000E-01   1.00800           0
     24348 MEMB     184      POPC     C33      CTL2    -0.180000       12.0110           0
     24349 MEMB     184      POPC     H3X      HAL2     0.900000E-01   1.00800           0
     24350 MEMB     184      POPC     H3Y      HAL2     0.900000E-01   1.00800           0
     24351 MEMB     184      POPC     C34      CTL2    -0.180000       12.0110           0
     24352 MEMB     184      POPC     H4X      HAL2     0.900000E-01   1.00800           0
     24353 MEMB     184      POPC     H4Y      HAL2     0.900000E-01   1.00800           0
     24354 MEMB     184      POPC     C35      CTL2    -0.180000       12.0110           0
     24355 MEMB     184      POPC     H5X      HAL2     0.900000E-01   1.00800           0
     24356 MEMB     184      POPC     H5Y      HAL2     0.900000E-01   1.00800           0
     24357 MEMB     184      POPC     C36      CTL2    -0.180000       12.0110           0
     24358 MEMB     184      POPC     H6X      HAL2     0.900000E-01   1.00800           0
     24359 MEMB     184      POPC     H6Y      HAL2     0.900000E-01   1.00800           0
     24360 MEMB     184      POPC     C37      CTL2    -0.180000       12.0110           0
     24361 MEMB     184      POPC     H7X      HAL2     0.900000E-01   1.00800           0
     24362 MEMB     184      POPC     H7Y      HAL2     0.900000E-01   1.00800           0
     24363 MEMB     184      POPC     C38      CTL2    -0.180000       12.0110           0
     24364 MEMB     184      POPC     H8X      HAL2     0.900000E-01   1.00800           0
     24365 MEMB     184      POPC     H8Y      HAL2     0.900000E-01   1.00800           0
     24366 MEMB     184      POPC     C39      CTL2    -0.180000       12.0110           0
     24367 MEMB     184      POPC     H9X      HAL2     0.900000E-01   1.00800           0
     24368 MEMB     184      POPC     H9Y      HAL2     0.900000E-01   1.00800           0
     24369 MEMB     184      POPC     C310     CTL2    -0.180000       12.0110           0
     24370 MEMB     184      POPC     H10X     HAL2     0.900000E-01   1.00800           0
     24371 MEMB     184      POPC     H10Y     HAL2     0.900000E-01   1.00800           0
     24372 MEMB     184      POPC     C311     CTL2    -0.180000       12.0110           0
     24373 MEMB     184      POPC     H11X     HAL2     0.900000E-01   1.00800           0
     24374 MEMB     184      POPC     H11Y     HAL2     0.900000E-01   1.00800           0
     24375 MEMB     184      POPC     C312     CTL2    -0.180000       12.0110           0
     24376 MEMB     184      POPC     H12X     HAL2     0.900000E-01   1.00800           0
     24377 MEMB     184      POPC     H12Y     HAL2     0.900000E-01   1.00800           0
     24378 MEMB     184      POPC     C313     CTL2    -0.180000       12.0110           0
     24379 MEMB     184      POPC     H13X     HAL2     0.900000E-01   1.00800           0
     24380 MEMB     184      POPC     H13Y     HAL2     0.900000E-01   1.00800           0
     24381 MEMB     184      POPC     C314     CTL2    -0.180000       12.0110           0
     24382 MEMB     184      POPC     H14X     HAL2     0.900000E-01   1.00800           0
     24383 MEMB     184      POPC     H14Y     HAL2     0.900000E-01   1.00800           0
     24384 MEMB     184      POPC     C315     CTL2    -0.180000       12.0110           0
     24385 MEMB     184      POPC     H15X     HAL2     0.900000E-01   1.00800           0
     24386 MEMB     184      POPC     H15Y     HAL2     0.900000E-01   1.00800           0
     24387 MEMB     184      POPC     C316     CTL3    -0.270000       12.0110           0
     24388 MEMB     184      POPC     H16X     HAL3     0.900000E-01   1.00800           0
     24389 MEMB     184      POPC     H16Y     HAL3     0.900000E-01   1.00800           0
     24390 MEMB     184      POPC     H16Z     HAL3     0.900000E-01   1.00800           0
     24391 MEMB     185      POPC     N        NTL     -0.600000       14.0070           0
     24392 MEMB     185      POPC     C12      CTL2    -0.100000       12.0110           0
     24393 MEMB     185      POPC     H12A     HL       0.250000       1.00800           0
     24394 MEMB     185      POPC     H12B     HL       0.250000       1.00800           0
     24395 MEMB     185      POPC     C13      CTL5    -0.350000       12.0110           0
     24396 MEMB     185      POPC     H13A     HL       0.250000       1.00800           0
     24397 MEMB     185      POPC     H13B     HL       0.250000       1.00800           0
     24398 MEMB     185      POPC     H13C     HL       0.250000       1.00800           0
     24399 MEMB     185      POPC     C14      CTL5    -0.350000       12.0110           0
     24400 MEMB     185      POPC     H14A     HL       0.250000       1.00800           0
     24401 MEMB     185      POPC     H14B     HL       0.250000       1.00800           0
     24402 MEMB     185      POPC     H14C     HL       0.250000       1.00800           0
     24403 MEMB     185      POPC     C15      CTL5    -0.350000       12.0110           0
     24404 MEMB     185      POPC     H15A     HL       0.250000       1.00800           0
     24405 MEMB     185      POPC     H15B     HL       0.250000       1.00800           0
     24406 MEMB     185      POPC     H15C     HL       0.250000       1.00800           0
     24407 MEMB     185      POPC     C11      CTL2    -0.800000E-01   12.0110           0
     24408 MEMB     185      POPC     H11A     HAL2     0.900000E-01   1.00800           0
     24409 MEMB     185      POPC     H11B     HAL2     0.900000E-01   1.00800           0
     24410 MEMB     185      POPC     P        PL        1.50000       30.9740           0
     24411 MEMB     185      POPC     O13      O2L     -0.780000       15.9994           0
     24412 MEMB     185      POPC     O14      O2L     -0.780000       15.9994           0
     24413 MEMB     185      POPC     O12      OSLP    -0.570000       15.9994           0
     24414 MEMB     185      POPC     O11      OSLP    -0.570000       15.9994           0
     24415 MEMB     185      POPC     C1       CTL2    -0.800000E-01   12.0110           0
     24416 MEMB     185      POPC     HA       HAL2     0.900000E-01   1.00800           0
     24417 MEMB     185      POPC     HB       HAL2     0.900000E-01   1.00800           0
     24418 MEMB     185      POPC     C2       CTL1     0.170000       12.0110           0
     24419 MEMB     185      POPC     HS       HAL1     0.900000E-01   1.00800           0
     24420 MEMB     185      POPC     O21      OSL     -0.490000       15.9994           0
     24421 MEMB     185      POPC     C21      CL       0.900000       12.0110           0
     24422 MEMB     185      POPC     O22      OBL     -0.630000       15.9994           0
     24423 MEMB     185      POPC     C22      CTL2    -0.220000       12.0110           0
     24424 MEMB     185      POPC     H2R      HAL2     0.900000E-01   1.00800           0
     24425 MEMB     185      POPC     H2S      HAL2     0.900000E-01   1.00800           0
     24426 MEMB     185      POPC     C3       CTL2     0.800000E-01   12.0110           0
     24427 MEMB     185      POPC     HX       HAL2     0.900000E-01   1.00800           0
     24428 MEMB     185      POPC     HY       HAL2     0.900000E-01   1.00800           0
     24429 MEMB     185      POPC     O31      OSL     -0.490000       15.9994           0
     24430 MEMB     185      POPC     C31      CL       0.900000       12.0110           0
     24431 MEMB     185      POPC     O32      OBL     -0.630000       15.9994           0
     24432 MEMB     185      POPC     C32      CTL2    -0.220000       12.0110           0
     24433 MEMB     185      POPC     H2X      HAL2     0.900000E-01   1.00800           0
     24434 MEMB     185      POPC     H2Y      HAL2     0.900000E-01   1.00800           0
     24435 MEMB     185      POPC     C23      CTL2    -0.180000       12.0110           0
     24436 MEMB     185      POPC     H3R      HAL2     0.900000E-01   1.00800           0
     24437 MEMB     185      POPC     H3S      HAL2     0.900000E-01   1.00800           0
     24438 MEMB     185      POPC     C24      CTL2    -0.180000       12.0110           0
     24439 MEMB     185      POPC     H4R      HAL2     0.900000E-01   1.00800           0
     24440 MEMB     185      POPC     H4S      HAL2     0.900000E-01   1.00800           0
     24441 MEMB     185      POPC     C25      CTL2    -0.180000       12.0110           0
     24442 MEMB     185      POPC     H5R      HAL2     0.900000E-01   1.00800           0
     24443 MEMB     185      POPC     H5S      HAL2     0.900000E-01   1.00800           0
     24444 MEMB     185      POPC     C26      CTL2    -0.180000       12.0110           0
     24445 MEMB     185      POPC     H6R      HAL2     0.900000E-01   1.00800           0
     24446 MEMB     185      POPC     H6S      HAL2     0.900000E-01   1.00800           0
     24447 MEMB     185      POPC     C27      CTL2    -0.180000       12.0110           0
     24448 MEMB     185      POPC     H7R      HAL2     0.900000E-01   1.00800           0
     24449 MEMB     185      POPC     H7S      HAL2     0.900000E-01   1.00800           0
     24450 MEMB     185      POPC     C28      CTL2    -0.180000       12.0110           0
     24451 MEMB     185      POPC     H8R      HAL2     0.900000E-01   1.00800           0
     24452 MEMB     185      POPC     H8S      HAL2     0.900000E-01   1.00800           0
     24453 MEMB     185      POPC     C29      CEL1    -0.150000       12.0110           0
     24454 MEMB     185      POPC     H91      HEL1     0.150000       1.00800           0
     24455 MEMB     185      POPC     C210     CEL1    -0.150000       12.0110           0
     24456 MEMB     185      POPC     H101     HEL1     0.150000       1.00800           0
     24457 MEMB     185      POPC     C211     CTL2    -0.180000       12.0110           0
     24458 MEMB     185      POPC     H11R     HAL2     0.900000E-01   1.00800           0
     24459 MEMB     185      POPC     H11S     HAL2     0.900000E-01   1.00800           0
     24460 MEMB     185      POPC     C212     CTL2    -0.180000       12.0110           0
     24461 MEMB     185      POPC     H12R     HAL2     0.900000E-01   1.00800           0
     24462 MEMB     185      POPC     H12S     HAL2     0.900000E-01   1.00800           0
     24463 MEMB     185      POPC     C213     CTL2    -0.180000       12.0110           0
     24464 MEMB     185      POPC     H13R     HAL2     0.900000E-01   1.00800           0
     24465 MEMB     185      POPC     H13S     HAL2     0.900000E-01   1.00800           0
     24466 MEMB     185      POPC     C214     CTL2    -0.180000       12.0110           0
     24467 MEMB     185      POPC     H14R     HAL2     0.900000E-01   1.00800           0
     24468 MEMB     185      POPC     H14S     HAL2     0.900000E-01   1.00800           0
     24469 MEMB     185      POPC     C215     CTL2    -0.180000       12.0110           0
     24470 MEMB     185      POPC     H15R     HAL2     0.900000E-01   1.00800           0
     24471 MEMB     185      POPC     H15S     HAL2     0.900000E-01   1.00800           0
     24472 MEMB     185      POPC     C216     CTL2    -0.180000       12.0110           0
     24473 MEMB     185      POPC     H16R     HAL2     0.900000E-01   1.00800           0
     24474 MEMB     185      POPC     H16S     HAL2     0.900000E-01   1.00800           0
     24475 MEMB     185      POPC     C217     CTL2    -0.180000       12.0110           0
     24476 MEMB     185      POPC     H17R     HAL2     0.900000E-01   1.00800           0
     24477 MEMB     185      POPC     H17S     HAL2     0.900000E-01   1.00800           0
     24478 MEMB     185      POPC     C218     CTL3    -0.270000       12.0110           0
     24479 MEMB     185      POPC     H18R     HAL3     0.900000E-01   1.00800           0
     24480 MEMB     185      POPC     H18S     HAL3     0.900000E-01   1.00800           0
     24481 MEMB     185      POPC     H18T     HAL3     0.900000E-01   1.00800           0
     24482 MEMB     185      POPC     C33      CTL2    -0.180000       12.0110           0
     24483 MEMB     185      POPC     H3X      HAL2     0.900000E-01   1.00800           0
     24484 MEMB     185      POPC     H3Y      HAL2     0.900000E-01   1.00800           0
     24485 MEMB     185      POPC     C34      CTL2    -0.180000       12.0110           0
     24486 MEMB     185      POPC     H4X      HAL2     0.900000E-01   1.00800           0
     24487 MEMB     185      POPC     H4Y      HAL2     0.900000E-01   1.00800           0
     24488 MEMB     185      POPC     C35      CTL2    -0.180000       12.0110           0
     24489 MEMB     185      POPC     H5X      HAL2     0.900000E-01   1.00800           0
     24490 MEMB     185      POPC     H5Y      HAL2     0.900000E-01   1.00800           0
     24491 MEMB     185      POPC     C36      CTL2    -0.180000       12.0110           0
     24492 MEMB     185      POPC     H6X      HAL2     0.900000E-01   1.00800           0
     24493 MEMB     185      POPC     H6Y      HAL2     0.900000E-01   1.00800           0
     24494 MEMB     185      POPC     C37      CTL2    -0.180000       12.0110           0
     24495 MEMB     185      POPC     H7X      HAL2     0.900000E-01   1.00800           0
     24496 MEMB     185      POPC     H7Y      HAL2     0.900000E-01   1.00800           0
     24497 MEMB     185      POPC     C38      CTL2    -0.180000       12.0110           0
     24498 MEMB     185      POPC     H8X      HAL2     0.900000E-01   1.00800           0
     24499 MEMB     185      POPC     H8Y      HAL2     0.900000E-01   1.00800           0
     24500 MEMB     185      POPC     C39      CTL2    -0.180000       12.0110           0
     24501 MEMB     185      POPC     H9X      HAL2     0.900000E-01   1.00800           0
     24502 MEMB     185      POPC     H9Y      HAL2     0.900000E-01   1.00800           0
     24503 MEMB     185      POPC     C310     CTL2    -0.180000       12.0110           0
     24504 MEMB     185      POPC     H10X     HAL2     0.900000E-01   1.00800           0
     24505 MEMB     185      POPC     H10Y     HAL2     0.900000E-01   1.00800           0
     24506 MEMB     185      POPC     C311     CTL2    -0.180000       12.0110           0
     24507 MEMB     185      POPC     H11X     HAL2     0.900000E-01   1.00800           0
     24508 MEMB     185      POPC     H11Y     HAL2     0.900000E-01   1.00800           0
     24509 MEMB     185      POPC     C312     CTL2    -0.180000       12.0110           0
     24510 MEMB     185      POPC     H12X     HAL2     0.900000E-01   1.00800           0
     24511 MEMB     185      POPC     H12Y     HAL2     0.900000E-01   1.00800           0
     24512 MEMB     185      POPC     C313     CTL2    -0.180000       12.0110           0
     24513 MEMB     185      POPC     H13X     HAL2     0.900000E-01   1.00800           0
     24514 MEMB     185      POPC     H13Y     HAL2     0.900000E-01   1.00800           0
     24515 MEMB     185      POPC     C314     CTL2    -0.180000       12.0110           0
     24516 MEMB     185      POPC     H14X     HAL2     0.900000E-01   1.00800           0
     24517 MEMB     185      POPC     H14Y     HAL2     0.900000E-01   1.00800           0
     24518 MEMB     185      POPC     C315     CTL2    -0.180000       12.0110           0
     24519 MEMB     185      POPC     H15X     HAL2     0.900000E-01   1.00800           0
     24520 MEMB     185      POPC     H15Y     HAL2     0.900000E-01   1.00800           0
     24521 MEMB     185      POPC     C316     CTL3    -0.270000       12.0110           0
     24522 MEMB     185      POPC     H16X     HAL3     0.900000E-01   1.00800           0
     24523 MEMB     185      POPC     H16Y     HAL3     0.900000E-01   1.00800           0
     24524 MEMB     185      POPC     H16Z     HAL3     0.900000E-01   1.00800           0
     24525 MEMB     186      POPC     N        NTL     -0.600000       14.0070           0
     24526 MEMB     186      POPC     C12      CTL2    -0.100000       12.0110           0
     24527 MEMB     186      POPC     H12A     HL       0.250000       1.00800           0
     24528 MEMB     186      POPC     H12B     HL       0.250000       1.00800           0
     24529 MEMB     186      POPC     C13      CTL5    -0.350000       12.0110           0
     24530 MEMB     186      POPC     H13A     HL       0.250000       1.00800           0
     24531 MEMB     186      POPC     H13B     HL       0.250000       1.00800           0
     24532 MEMB     186      POPC     H13C     HL       0.250000       1.00800           0
     24533 MEMB     186      POPC     C14      CTL5    -0.350000       12.0110           0
     24534 MEMB     186      POPC     H14A     HL       0.250000       1.00800           0
     24535 MEMB     186      POPC     H14B     HL       0.250000       1.00800           0
     24536 MEMB     186      POPC     H14C     HL       0.250000       1.00800           0
     24537 MEMB     186      POPC     C15      CTL5    -0.350000       12.0110           0
     24538 MEMB     186      POPC     H15A     HL       0.250000       1.00800           0
     24539 MEMB     186      POPC     H15B     HL       0.250000       1.00800           0
     24540 MEMB     186      POPC     H15C     HL       0.250000       1.00800           0
     24541 MEMB     186      POPC     C11      CTL2    -0.800000E-01   12.0110           0
     24542 MEMB     186      POPC     H11A     HAL2     0.900000E-01   1.00800           0
     24543 MEMB     186      POPC     H11B     HAL2     0.900000E-01   1.00800           0
     24544 MEMB     186      POPC     P        PL        1.50000       30.9740           0
     24545 MEMB     186      POPC     O13      O2L     -0.780000       15.9994           0
     24546 MEMB     186      POPC     O14      O2L     -0.780000       15.9994           0
     24547 MEMB     186      POPC     O12      OSLP    -0.570000       15.9994           0
     24548 MEMB     186      POPC     O11      OSLP    -0.570000       15.9994           0
     24549 MEMB     186      POPC     C1       CTL2    -0.800000E-01   12.0110           0
     24550 MEMB     186      POPC     HA       HAL2     0.900000E-01   1.00800           0
     24551 MEMB     186      POPC     HB       HAL2     0.900000E-01   1.00800           0
     24552 MEMB     186      POPC     C2       CTL1     0.170000       12.0110           0
     24553 MEMB     186      POPC     HS       HAL1     0.900000E-01   1.00800           0
     24554 MEMB     186      POPC     O21      OSL     -0.490000       15.9994           0
     24555 MEMB     186      POPC     C21      CL       0.900000       12.0110           0
     24556 MEMB     186      POPC     O22      OBL     -0.630000       15.9994           0
     24557 MEMB     186      POPC     C22      CTL2    -0.220000       12.0110           0
     24558 MEMB     186      POPC     H2R      HAL2     0.900000E-01   1.00800           0
     24559 MEMB     186      POPC     H2S      HAL2     0.900000E-01   1.00800           0
     24560 MEMB     186      POPC     C3       CTL2     0.800000E-01   12.0110           0
     24561 MEMB     186      POPC     HX       HAL2     0.900000E-01   1.00800           0
     24562 MEMB     186      POPC     HY       HAL2     0.900000E-01   1.00800           0
     24563 MEMB     186      POPC     O31      OSL     -0.490000       15.9994           0
     24564 MEMB     186      POPC     C31      CL       0.900000       12.0110           0
     24565 MEMB     186      POPC     O32      OBL     -0.630000       15.9994           0
     24566 MEMB     186      POPC     C32      CTL2    -0.220000       12.0110           0
     24567 MEMB     186      POPC     H2X      HAL2     0.900000E-01   1.00800           0
     24568 MEMB     186      POPC     H2Y      HAL2     0.900000E-01   1.00800           0
     24569 MEMB     186      POPC     C23      CTL2    -0.180000       12.0110           0
     24570 MEMB     186      POPC     H3R      HAL2     0.900000E-01   1.00800           0
     24571 MEMB     186      POPC     H3S      HAL2     0.900000E-01   1.00800           0
     24572 MEMB     186      POPC     C24      CTL2    -0.180000       12.0110           0
     24573 MEMB     186      POPC     H4R      HAL2     0.900000E-01   1.00800           0
     24574 MEMB     186      POPC     H4S      HAL2     0.900000E-01   1.00800           0
     24575 MEMB     186      POPC     C25      CTL2    -0.180000       12.0110           0
     24576 MEMB     186      POPC     H5R      HAL2     0.900000E-01   1.00800           0
     24577 MEMB     186      POPC     H5S      HAL2     0.900000E-01   1.00800           0
     24578 MEMB     186      POPC     C26      CTL2    -0.180000       12.0110           0
     24579 MEMB     186      POPC     H6R      HAL2     0.900000E-01   1.00800           0
     24580 MEMB     186      POPC     H6S      HAL2     0.900000E-01   1.00800           0
     24581 MEMB     186      POPC     C27      CTL2    -0.180000       12.0110           0
     24582 MEMB     186      POPC     H7R      HAL2     0.900000E-01   1.00800           0
     24583 MEMB     186      POPC     H7S      HAL2     0.900000E-01   1.00800           0
     24584 MEMB     186      POPC     C28      CTL2    -0.180000       12.0110           0
     24585 MEMB     186      POPC     H8R      HAL2     0.900000E-01   1.00800           0
     24586 MEMB     186      POPC     H8S      HAL2     0.900000E-01   1.00800           0
     24587 MEMB     186      POPC     C29      CEL1    -0.150000       12.0110           0
     24588 MEMB     186      POPC     H91      HEL1     0.150000       1.00800           0
     24589 MEMB     186      POPC     C210     CEL1    -0.150000       12.0110           0
     24590 MEMB     186      POPC     H101     HEL1     0.150000       1.00800           0
     24591 MEMB     186      POPC     C211     CTL2    -0.180000       12.0110           0
     24592 MEMB     186      POPC     H11R     HAL2     0.900000E-01   1.00800           0
     24593 MEMB     186      POPC     H11S     HAL2     0.900000E-01   1.00800           0
     24594 MEMB     186      POPC     C212     CTL2    -0.180000       12.0110           0
     24595 MEMB     186      POPC     H12R     HAL2     0.900000E-01   1.00800           0
     24596 MEMB     186      POPC     H12S     HAL2     0.900000E-01   1.00800           0
     24597 MEMB     186      POPC     C213     CTL2    -0.180000       12.0110           0
     24598 MEMB     186      POPC     H13R     HAL2     0.900000E-01   1.00800           0
     24599 MEMB     186      POPC     H13S     HAL2     0.900000E-01   1.00800           0
     24600 MEMB     186      POPC     C214     CTL2    -0.180000       12.0110           0
     24601 MEMB     186      POPC     H14R     HAL2     0.900000E-01   1.00800           0
     24602 MEMB     186      POPC     H14S     HAL2     0.900000E-01   1.00800           0
     24603 MEMB     186      POPC     C215     CTL2    -0.180000       12.0110           0
     24604 MEMB     186      POPC     H15R     HAL2     0.900000E-01   1.00800           0
     24605 MEMB     186      POPC     H15S     HAL2     0.900000E-01   1.00800           0
     24606 MEMB     186      POPC     C216     CTL2    -0.180000       12.0110           0
     24607 MEMB     186      POPC     H16R     HAL2     0.900000E-01   1.00800           0
     24608 MEMB     186      POPC     H16S     HAL2     0.900000E-01   1.00800           0
     24609 MEMB     186      POPC     C217     CTL2    -0.180000       12.0110           0
     24610 MEMB     186      POPC     H17R     HAL2     0.900000E-01   1.00800           0
     24611 MEMB     186      POPC     H17S     HAL2     0.900000E-01   1.00800           0
     24612 MEMB     186      POPC     C218     CTL3    -0.270000       12.0110           0
     24613 MEMB     186      POPC     H18R     HAL3     0.900000E-01   1.00800           0
     24614 MEMB     186      POPC     H18S     HAL3     0.900000E-01   1.00800           0
     24615 MEMB     186      POPC     H18T     HAL3     0.900000E-01   1.00800           0
     24616 MEMB     186      POPC     C33      CTL2    -0.180000       12.0110           0
     24617 MEMB     186      POPC     H3X      HAL2     0.900000E-01   1.00800           0
     24618 MEMB     186      POPC     H3Y      HAL2     0.900000E-01   1.00800           0
     24619 MEMB     186      POPC     C34      CTL2    -0.180000       12.0110           0
     24620 MEMB     186      POPC     H4X      HAL2     0.900000E-01   1.00800           0
     24621 MEMB     186      POPC     H4Y      HAL2     0.900000E-01   1.00800           0
     24622 MEMB     186      POPC     C35      CTL2    -0.180000       12.0110           0
     24623 MEMB     186      POPC     H5X      HAL2     0.900000E-01   1.00800           0
     24624 MEMB     186      POPC     H5Y      HAL2     0.900000E-01   1.00800           0
     24625 MEMB     186      POPC     C36      CTL2    -0.180000       12.0110           0
     24626 MEMB     186      POPC     H6X      HAL2     0.900000E-01   1.00800           0
     24627 MEMB     186      POPC     H6Y      HAL2     0.900000E-01   1.00800           0
     24628 MEMB     186      POPC     C37      CTL2    -0.180000       12.0110           0
     24629 MEMB     186      POPC     H7X      HAL2     0.900000E-01   1.00800           0
     24630 MEMB     186      POPC     H7Y      HAL2     0.900000E-01   1.00800           0
     24631 MEMB     186      POPC     C38      CTL2    -0.180000       12.0110           0
     24632 MEMB     186      POPC     H8X      HAL2     0.900000E-01   1.00800           0
     24633 MEMB     186      POPC     H8Y      HAL2     0.900000E-01   1.00800           0
     24634 MEMB     186      POPC     C39      CTL2    -0.180000       12.0110           0
     24635 MEMB     186      POPC     H9X      HAL2     0.900000E-01   1.00800           0
     24636 MEMB     186      POPC     H9Y      HAL2     0.900000E-01   1.00800           0
     24637 MEMB     186      POPC     C310     CTL2    -0.180000       12.0110           0
     24638 MEMB     186      POPC     H10X     HAL2     0.900000E-01   1.00800           0
     24639 MEMB     186      POPC     H10Y     HAL2     0.900000E-01   1.00800           0
     24640 MEMB     186      POPC     C311     CTL2    -0.180000       12.0110           0
     24641 MEMB     186      POPC     H11X     HAL2     0.900000E-01   1.00800           0
     24642 MEMB     186      POPC     H11Y     HAL2     0.900000E-01   1.00800           0
     24643 MEMB     186      POPC     C312     CTL2    -0.180000       12.0110           0
     24644 MEMB     186      POPC     H12X     HAL2     0.900000E-01   1.00800           0
     24645 MEMB     186      POPC     H12Y     HAL2     0.900000E-01   1.00800           0
     24646 MEMB     186      POPC     C313     CTL2    -0.180000       12.0110           0
     24647 MEMB     186      POPC     H13X     HAL2     0.900000E-01   1.00800           0
     24648 MEMB     186      POPC     H13Y     HAL2     0.900000E-01   1.00800           0
     24649 MEMB     186      POPC     C314     CTL2    -0.180000       12.0110           0
     24650 MEMB     186      POPC     H14X     HAL2     0.900000E-01   1.00800           0
     24651 MEMB     186      POPC     H14Y     HAL2     0.900000E-01   1.00800           0
     24652 MEMB     186      POPC     C315     CTL2    -0.180000       12.0110           0
     24653 MEMB     186      POPC     H15X     HAL2     0.900000E-01   1.00800           0
     24654 MEMB     186      POPC     H15Y     HAL2     0.900000E-01   1.00800           0
     24655 MEMB     186      POPC     C316     CTL3    -0.270000       12.0110           0
     24656 MEMB     186      POPC     H16X     HAL3     0.900000E-01   1.00800           0
     24657 MEMB     186      POPC     H16Y     HAL3     0.900000E-01   1.00800           0
     24658 MEMB     186      POPC     H16Z     HAL3     0.900000E-01   1.00800           0
     24659 MEMB     187      POPC     N        NTL     -0.600000       14.0070           0
     24660 MEMB     187      POPC     C12      CTL2    -0.100000       12.0110           0
     24661 MEMB     187      POPC     H12A     HL       0.250000       1.00800           0
     24662 MEMB     187      POPC     H12B     HL       0.250000       1.00800           0
     24663 MEMB     187      POPC     C13      CTL5    -0.350000       12.0110           0
     24664 MEMB     187      POPC     H13A     HL       0.250000       1.00800           0
     24665 MEMB     187      POPC     H13B     HL       0.250000       1.00800           0
     24666 MEMB     187      POPC     H13C     HL       0.250000       1.00800           0
     24667 MEMB     187      POPC     C14      CTL5    -0.350000       12.0110           0
     24668 MEMB     187      POPC     H14A     HL       0.250000       1.00800           0
     24669 MEMB     187      POPC     H14B     HL       0.250000       1.00800           0
     24670 MEMB     187      POPC     H14C     HL       0.250000       1.00800           0
     24671 MEMB     187      POPC     C15      CTL5    -0.350000       12.0110           0
     24672 MEMB     187      POPC     H15A     HL       0.250000       1.00800           0
     24673 MEMB     187      POPC     H15B     HL       0.250000       1.00800           0
     24674 MEMB     187      POPC     H15C     HL       0.250000       1.00800           0
     24675 MEMB     187      POPC     C11      CTL2    -0.800000E-01   12.0110           0
     24676 MEMB     187      POPC     H11A     HAL2     0.900000E-01   1.00800           0
     24677 MEMB     187      POPC     H11B     HAL2     0.900000E-01   1.00800           0
     24678 MEMB     187      POPC     P        PL        1.50000       30.9740           0
     24679 MEMB     187      POPC     O13      O2L     -0.780000       15.9994           0
     24680 MEMB     187      POPC     O14      O2L     -0.780000       15.9994           0
     24681 MEMB     187      POPC     O12      OSLP    -0.570000       15.9994           0
     24682 MEMB     187      POPC     O11      OSLP    -0.570000       15.9994           0
     24683 MEMB     187      POPC     C1       CTL2    -0.800000E-01   12.0110           0
     24684 MEMB     187      POPC     HA       HAL2     0.900000E-01   1.00800           0
     24685 MEMB     187      POPC     HB       HAL2     0.900000E-01   1.00800           0
     24686 MEMB     187      POPC     C2       CTL1     0.170000       12.0110           0
     24687 MEMB     187      POPC     HS       HAL1     0.900000E-01   1.00800           0
     24688 MEMB     187      POPC     O21      OSL     -0.490000       15.9994           0
     24689 MEMB     187      POPC     C21      CL       0.900000       12.0110           0
     24690 MEMB     187      POPC     O22      OBL     -0.630000       15.9994           0
     24691 MEMB     187      POPC     C22      CTL2    -0.220000       12.0110           0
     24692 MEMB     187      POPC     H2R      HAL2     0.900000E-01   1.00800           0
     24693 MEMB     187      POPC     H2S      HAL2     0.900000E-01   1.00800           0
     24694 MEMB     187      POPC     C3       CTL2     0.800000E-01   12.0110           0
     24695 MEMB     187      POPC     HX       HAL2     0.900000E-01   1.00800           0
     24696 MEMB     187      POPC     HY       HAL2     0.900000E-01   1.00800           0
     24697 MEMB     187      POPC     O31      OSL     -0.490000       15.9994           0
     24698 MEMB     187      POPC     C31      CL       0.900000       12.0110           0
     24699 MEMB     187      POPC     O32      OBL     -0.630000       15.9994           0
     24700 MEMB     187      POPC     C32      CTL2    -0.220000       12.0110           0
     24701 MEMB     187      POPC     H2X      HAL2     0.900000E-01   1.00800           0
     24702 MEMB     187      POPC     H2Y      HAL2     0.900000E-01   1.00800           0
     24703 MEMB     187      POPC     C23      CTL2    -0.180000       12.0110           0
     24704 MEMB     187      POPC     H3R      HAL2     0.900000E-01   1.00800           0
     24705 MEMB     187      POPC     H3S      HAL2     0.900000E-01   1.00800           0
     24706 MEMB     187      POPC     C24      CTL2    -0.180000       12.0110           0
     24707 MEMB     187      POPC     H4R      HAL2     0.900000E-01   1.00800           0
     24708 MEMB     187      POPC     H4S      HAL2     0.900000E-01   1.00800           0
     24709 MEMB     187      POPC     C25      CTL2    -0.180000       12.0110           0
     24710 MEMB     187      POPC     H5R      HAL2     0.900000E-01   1.00800           0
     24711 MEMB     187      POPC     H5S      HAL2     0.900000E-01   1.00800           0
     24712 MEMB     187      POPC     C26      CTL2    -0.180000       12.0110           0
     24713 MEMB     187      POPC     H6R      HAL2     0.900000E-01   1.00800           0
     24714 MEMB     187      POPC     H6S      HAL2     0.900000E-01   1.00800           0
     24715 MEMB     187      POPC     C27      CTL2    -0.180000       12.0110           0
     24716 MEMB     187      POPC     H7R      HAL2     0.900000E-01   1.00800           0
     24717 MEMB     187      POPC     H7S      HAL2     0.900000E-01   1.00800           0
     24718 MEMB     187      POPC     C28      CTL2    -0.180000       12.0110           0
     24719 MEMB     187      POPC     H8R      HAL2     0.900000E-01   1.00800           0
     24720 MEMB     187      POPC     H8S      HAL2     0.900000E-01   1.00800           0
     24721 MEMB     187      POPC     C29      CEL1    -0.150000       12.0110           0
     24722 MEMB     187      POPC     H91      HEL1     0.150000       1.00800           0
     24723 MEMB     187      POPC     C210     CEL1    -0.150000       12.0110           0
     24724 MEMB     187      POPC     H101     HEL1     0.150000       1.00800           0
     24725 MEMB     187      POPC     C211     CTL2    -0.180000       12.0110           0
     24726 MEMB     187      POPC     H11R     HAL2     0.900000E-01   1.00800           0
     24727 MEMB     187      POPC     H11S     HAL2     0.900000E-01   1.00800           0
     24728 MEMB     187      POPC     C212     CTL2    -0.180000       12.0110           0
     24729 MEMB     187      POPC     H12R     HAL2     0.900000E-01   1.00800           0
     24730 MEMB     187      POPC     H12S     HAL2     0.900000E-01   1.00800           0
     24731 MEMB     187      POPC     C213     CTL2    -0.180000       12.0110           0
     24732 MEMB     187      POPC     H13R     HAL2     0.900000E-01   1.00800           0
     24733 MEMB     187      POPC     H13S     HAL2     0.900000E-01   1.00800           0
     24734 MEMB     187      POPC     C214     CTL2    -0.180000       12.0110           0
     24735 MEMB     187      POPC     H14R     HAL2     0.900000E-01   1.00800           0
     24736 MEMB     187      POPC     H14S     HAL2     0.900000E-01   1.00800           0
     24737 MEMB     187      POPC     C215     CTL2    -0.180000       12.0110           0
     24738 MEMB     187      POPC     H15R     HAL2     0.900000E-01   1.00800           0
     24739 MEMB     187      POPC     H15S     HAL2     0.900000E-01   1.00800           0
     24740 MEMB     187      POPC     C216     CTL2    -0.180000       12.0110           0
     24741 MEMB     187      POPC     H16R     HAL2     0.900000E-01   1.00800           0
     24742 MEMB     187      POPC     H16S     HAL2     0.900000E-01   1.00800           0
     24743 MEMB     187      POPC     C217     CTL2    -0.180000       12.0110           0
     24744 MEMB     187      POPC     H17R     HAL2     0.900000E-01   1.00800           0
     24745 MEMB     187      POPC     H17S     HAL2     0.900000E-01   1.00800           0
     24746 MEMB     187      POPC     C218     CTL3    -0.270000       12.0110           0
     24747 MEMB     187      POPC     H18R     HAL3     0.900000E-01   1.00800           0
     24748 MEMB     187      POPC     H18S     HAL3     0.900000E-01   1.00800           0
     24749 MEMB     187      POPC     H18T     HAL3     0.900000E-01   1.00800           0
     24750 MEMB     187      POPC     C33      CTL2    -0.180000       12.0110           0
     24751 MEMB     187      POPC     H3X      HAL2     0.900000E-01   1.00800           0
     24752 MEMB     187      POPC     H3Y      HAL2     0.900000E-01   1.00800           0
     24753 MEMB     187      POPC     C34      CTL2    -0.180000       12.0110           0
     24754 MEMB     187      POPC     H4X      HAL2     0.900000E-01   1.00800           0
     24755 MEMB     187      POPC     H4Y      HAL2     0.900000E-01   1.00800           0
     24756 MEMB     187      POPC     C35      CTL2    -0.180000       12.0110           0
     24757 MEMB     187      POPC     H5X      HAL2     0.900000E-01   1.00800           0
     24758 MEMB     187      POPC     H5Y      HAL2     0.900000E-01   1.00800           0
     24759 MEMB     187      POPC     C36      CTL2    -0.180000       12.0110           0
     24760 MEMB     187      POPC     H6X      HAL2     0.900000E-01   1.00800           0
     24761 MEMB     187      POPC     H6Y      HAL2     0.900000E-01   1.00800           0
     24762 MEMB     187      POPC     C37      CTL2    -0.180000       12.0110           0
     24763 MEMB     187      POPC     H7X      HAL2     0.900000E-01   1.00800           0
     24764 MEMB     187      POPC     H7Y      HAL2     0.900000E-01   1.00800           0
     24765 MEMB     187      POPC     C38      CTL2    -0.180000       12.0110           0
     24766 MEMB     187      POPC     H8X      HAL2     0.900000E-01   1.00800           0
     24767 MEMB     187      POPC     H8Y      HAL2     0.900000E-01   1.00800           0
     24768 MEMB     187      POPC     C39      CTL2    -0.180000       12.0110           0
     24769 MEMB     187      POPC     H9X      HAL2     0.900000E-01   1.00800           0
     24770 MEMB     187      POPC     H9Y      HAL2     0.900000E-01   1.00800           0
     24771 MEMB     187      POPC     C310     CTL2    -0.180000       12.0110           0
     24772 MEMB     187      POPC     H10X     HAL2     0.900000E-01   1.00800           0
     24773 MEMB     187      POPC     H10Y     HAL2     0.900000E-01   1.00800           0
     24774 MEMB     187      POPC     C311     CTL2    -0.180000       12.0110           0
     24775 MEMB     187      POPC     H11X     HAL2     0.900000E-01   1.00800           0
     24776 MEMB     187      POPC     H11Y     HAL2     0.900000E-01   1.00800           0
     24777 MEMB     187      POPC     C312     CTL2    -0.180000       12.0110           0
     24778 MEMB     187      POPC     H12X     HAL2     0.900000E-01   1.00800           0
     24779 MEMB     187      POPC     H12Y     HAL2     0.900000E-01   1.00800           0
     24780 MEMB     187      POPC     C313     CTL2    -0.180000       12.0110           0
     24781 MEMB     187      POPC     H13X     HAL2     0.900000E-01   1.00800           0
     24782 MEMB     187      POPC     H13Y     HAL2     0.900000E-01   1.00800           0
     24783 MEMB     187      POPC     C314     CTL2    -0.180000       12.0110           0
     24784 MEMB     187      POPC     H14X     HAL2     0.900000E-01   1.00800           0
     24785 MEMB     187      POPC     H14Y     HAL2     0.900000E-01   1.00800           0
     24786 MEMB     187      POPC     C315     CTL2    -0.180000       12.0110           0
     24787 MEMB     187      POPC     H15X     HAL2     0.900000E-01   1.00800           0
     24788 MEMB     187      POPC     H15Y     HAL2     0.900000E-01   1.00800           0
     24789 MEMB     187      POPC     C316     CTL3    -0.270000       12.0110           0
     24790 MEMB     187      POPC     H16X     HAL3     0.900000E-01   1.00800           0
     24791 MEMB     187      POPC     H16Y     HAL3     0.900000E-01   1.00800           0
     24792 MEMB     187      POPC     H16Z     HAL3     0.900000E-01   1.00800           0
     24793 MEMB     188      POPC     N        NTL     -0.600000       14.0070           0
     24794 MEMB     188      POPC     C12      CTL2    -0.100000       12.0110           0
     24795 MEMB     188      POPC     H12A     HL       0.250000       1.00800           0
     24796 MEMB     188      POPC     H12B     HL       0.250000       1.00800           0
     24797 MEMB     188      POPC     C13      CTL5    -0.350000       12.0110           0
     24798 MEMB     188      POPC     H13A     HL       0.250000       1.00800           0
     24799 MEMB     188      POPC     H13B     HL       0.250000       1.00800           0
     24800 MEMB     188      POPC     H13C     HL       0.250000       1.00800           0
     24801 MEMB     188      POPC     C14      CTL5    -0.350000       12.0110           0
     24802 MEMB     188      POPC     H14A     HL       0.250000       1.00800           0
     24803 MEMB     188      POPC     H14B     HL       0.250000       1.00800           0
     24804 MEMB     188      POPC     H14C     HL       0.250000       1.00800           0
     24805 MEMB     188      POPC     C15      CTL5    -0.350000       12.0110           0
     24806 MEMB     188      POPC     H15A     HL       0.250000       1.00800           0
     24807 MEMB     188      POPC     H15B     HL       0.250000       1.00800           0
     24808 MEMB     188      POPC     H15C     HL       0.250000       1.00800           0
     24809 MEMB     188      POPC     C11      CTL2    -0.800000E-01   12.0110           0
     24810 MEMB     188      POPC     H11A     HAL2     0.900000E-01   1.00800           0
     24811 MEMB     188      POPC     H11B     HAL2     0.900000E-01   1.00800           0
     24812 MEMB     188      POPC     P        PL        1.50000       30.9740           0
     24813 MEMB     188      POPC     O13      O2L     -0.780000       15.9994           0
     24814 MEMB     188      POPC     O14      O2L     -0.780000       15.9994           0
     24815 MEMB     188      POPC     O12      OSLP    -0.570000       15.9994           0
     24816 MEMB     188      POPC     O11      OSLP    -0.570000       15.9994           0
     24817 MEMB     188      POPC     C1       CTL2    -0.800000E-01   12.0110           0
     24818 MEMB     188      POPC     HA       HAL2     0.900000E-01   1.00800           0
     24819 MEMB     188      POPC     HB       HAL2     0.900000E-01   1.00800           0
     24820 MEMB     188      POPC     C2       CTL1     0.170000       12.0110           0
     24821 MEMB     188      POPC     HS       HAL1     0.900000E-01   1.00800           0
     24822 MEMB     188      POPC     O21      OSL     -0.490000       15.9994           0
     24823 MEMB     188      POPC     C21      CL       0.900000       12.0110           0
     24824 MEMB     188      POPC     O22      OBL     -0.630000       15.9994           0
     24825 MEMB     188      POPC     C22      CTL2    -0.220000       12.0110           0
     24826 MEMB     188      POPC     H2R      HAL2     0.900000E-01   1.00800           0
     24827 MEMB     188      POPC     H2S      HAL2     0.900000E-01   1.00800           0
     24828 MEMB     188      POPC     C3       CTL2     0.800000E-01   12.0110           0
     24829 MEMB     188      POPC     HX       HAL2     0.900000E-01   1.00800           0
     24830 MEMB     188      POPC     HY       HAL2     0.900000E-01   1.00800           0
     24831 MEMB     188      POPC     O31      OSL     -0.490000       15.9994           0
     24832 MEMB     188      POPC     C31      CL       0.900000       12.0110           0
     24833 MEMB     188      POPC     O32      OBL     -0.630000       15.9994           0
     24834 MEMB     188      POPC     C32      CTL2    -0.220000       12.0110           0
     24835 MEMB     188      POPC     H2X      HAL2     0.900000E-01   1.00800           0
     24836 MEMB     188      POPC     H2Y      HAL2     0.900000E-01   1.00800           0
     24837 MEMB     188      POPC     C23      CTL2    -0.180000       12.0110           0
     24838 MEMB     188      POPC     H3R      HAL2     0.900000E-01   1.00800           0
     24839 MEMB     188      POPC     H3S      HAL2     0.900000E-01   1.00800           0
     24840 MEMB     188      POPC     C24      CTL2    -0.180000       12.0110           0
     24841 MEMB     188      POPC     H4R      HAL2     0.900000E-01   1.00800           0
     24842 MEMB     188      POPC     H4S      HAL2     0.900000E-01   1.00800           0
     24843 MEMB     188      POPC     C25      CTL2    -0.180000       12.0110           0
     24844 MEMB     188      POPC     H5R      HAL2     0.900000E-01   1.00800           0
     24845 MEMB     188      POPC     H5S      HAL2     0.900000E-01   1.00800           0
     24846 MEMB     188      POPC     C26      CTL2    -0.180000       12.0110           0
     24847 MEMB     188      POPC     H6R      HAL2     0.900000E-01   1.00800           0
     24848 MEMB     188      POPC     H6S      HAL2     0.900000E-01   1.00800           0
     24849 MEMB     188      POPC     C27      CTL2    -0.180000       12.0110           0
     24850 MEMB     188      POPC     H7R      HAL2     0.900000E-01   1.00800           0
     24851 MEMB     188      POPC     H7S      HAL2     0.900000E-01   1.00800           0
     24852 MEMB     188      POPC     C28      CTL2    -0.180000       12.0110           0
     24853 MEMB     188      POPC     H8R      HAL2     0.900000E-01   1.00800           0
     24854 MEMB     188      POPC     H8S      HAL2     0.900000E-01   1.00800           0
     24855 MEMB     188      POPC     C29      CEL1    -0.150000       12.0110           0
     24856 MEMB     188      POPC     H91      HEL1     0.150000       1.00800           0
     24857 MEMB     188      POPC     C210     CEL1    -0.150000       12.0110           0
     24858 MEMB     188      POPC     H101     HEL1     0.150000       1.00800           0
     24859 MEMB     188      POPC     C211     CTL2    -0.180000       12.0110           0
     24860 MEMB     188      POPC     H11R     HAL2     0.900000E-01   1.00800           0
     24861 MEMB     188      POPC     H11S     HAL2     0.900000E-01   1.00800           0
     24862 MEMB     188      POPC     C212     CTL2    -0.180000       12.0110           0
     24863 MEMB     188      POPC     H12R     HAL2     0.900000E-01   1.00800           0
     24864 MEMB     188      POPC     H12S     HAL2     0.900000E-01   1.00800           0
     24865 MEMB     188      POPC     C213     CTL2    -0.180000       12.0110           0
     24866 MEMB     188      POPC     H13R     HAL2     0.900000E-01   1.00800           0
     24867 MEMB     188      POPC     H13S     HAL2     0.900000E-01   1.00800           0
     24868 MEMB     188      POPC     C214     CTL2    -0.180000       12.0110           0
     24869 MEMB     188      POPC     H14R     HAL2     0.900000E-01   1.00800           0
     24870 MEMB     188      POPC     H14S     HAL2     0.900000E-01   1.00800           0
     24871 MEMB     188      POPC     C215     CTL2    -0.180000       12.0110           0
     24872 MEMB     188      POPC     H15R     HAL2     0.900000E-01   1.00800           0
     24873 MEMB     188      POPC     H15S     HAL2     0.900000E-01   1.00800           0
     24874 MEMB     188      POPC     C216     CTL2    -0.180000       12.0110           0
     24875 MEMB     188      POPC     H16R     HAL2     0.900000E-01   1.00800           0
     24876 MEMB     188      POPC     H16S     HAL2     0.900000E-01   1.00800           0
     24877 MEMB     188      POPC     C217     CTL2    -0.180000       12.0110           0
     24878 MEMB     188      POPC     H17R     HAL2     0.900000E-01   1.00800           0
     24879 MEMB     188      POPC     H17S     HAL2     0.900000E-01   1.00800           0
     24880 MEMB     188      POPC     C218     CTL3    -0.270000       12.0110           0
     24881 MEMB     188      POPC     H18R     HAL3     0.900000E-01   1.00800           0
     24882 MEMB     188      POPC     H18S     HAL3     0.900000E-01   1.00800           0
     24883 MEMB     188      POPC     H18T     HAL3     0.900000E-01   1.00800           0
     24884 MEMB     188      POPC     C33      CTL2    -0.180000       12.0110           0
     24885 MEMB     188      POPC     H3X      HAL2     0.900000E-01   1.00800           0
     24886 MEMB     188      POPC     H3Y      HAL2     0.900000E-01   1.00800           0
     24887 MEMB     188      POPC     C34      CTL2    -0.180000       12.0110           0
     24888 MEMB     188      POPC     H4X      HAL2     0.900000E-01   1.00800           0
     24889 MEMB     188      POPC     H4Y      HAL2     0.900000E-01   1.00800           0
     24890 MEMB     188      POPC     C35      CTL2    -0.180000       12.0110           0
     24891 MEMB     188      POPC     H5X      HAL2     0.900000E-01   1.00800           0
     24892 MEMB     188      POPC     H5Y      HAL2     0.900000E-01   1.00800           0
     24893 MEMB     188      POPC     C36      CTL2    -0.180000       12.0110           0
     24894 MEMB     188      POPC     H6X      HAL2     0.900000E-01   1.00800           0
     24895 MEMB     188      POPC     H6Y      HAL2     0.900000E-01   1.00800           0
     24896 MEMB     188      POPC     C37      CTL2    -0.180000       12.0110           0
     24897 MEMB     188      POPC     H7X      HAL2     0.900000E-01   1.00800           0
     24898 MEMB     188      POPC     H7Y      HAL2     0.900000E-01   1.00800           0
     24899 MEMB     188      POPC     C38      CTL2    -0.180000       12.0110           0
     24900 MEMB     188      POPC     H8X      HAL2     0.900000E-01   1.00800           0
     24901 MEMB     188      POPC     H8Y      HAL2     0.900000E-01   1.00800           0
     24902 MEMB     188      POPC     C39      CTL2    -0.180000       12.0110           0
     24903 MEMB     188      POPC     H9X      HAL2     0.900000E-01   1.00800           0
     24904 MEMB     188      POPC     H9Y      HAL2     0.900000E-01   1.00800           0
     24905 MEMB     188      POPC     C310     CTL2    -0.180000       12.0110           0
     24906 MEMB     188      POPC     H10X     HAL2     0.900000E-01   1.00800           0
     24907 MEMB     188      POPC     H10Y     HAL2     0.900000E-01   1.00800           0
     24908 MEMB     188      POPC     C311     CTL2    -0.180000       12.0110           0
     24909 MEMB     188      POPC     H11X     HAL2     0.900000E-01   1.00800           0
     24910 MEMB     188      POPC     H11Y     HAL2     0.900000E-01   1.00800           0
     24911 MEMB     188      POPC     C312     CTL2    -0.180000       12.0110           0
     24912 MEMB     188      POPC     H12X     HAL2     0.900000E-01   1.00800           0
     24913 MEMB     188      POPC     H12Y     HAL2     0.900000E-01   1.00800           0
     24914 MEMB     188      POPC     C313     CTL2    -0.180000       12.0110           0
     24915 MEMB     188      POPC     H13X     HAL2     0.900000E-01   1.00800           0
     24916 MEMB     188      POPC     H13Y     HAL2     0.900000E-01   1.00800           0
     24917 MEMB     188      POPC     C314     CTL2    -0.180000       12.0110           0
     24918 MEMB     188      POPC     H14X     HAL2     0.900000E-01   1.00800           0
     24919 MEMB     188      POPC     H14Y     HAL2     0.900000E-01   1.00800           0
     24920 MEMB     188      POPC     C315     CTL2    -0.180000       12.0110           0
     24921 MEMB     188      POPC     H15X     HAL2     0.900000E-01   1.00800           0
     24922 MEMB     188      POPC     H15Y     HAL2     0.900000E-01   1.00800           0
     24923 MEMB     188      POPC     C316     CTL3    -0.270000       12.0110           0
     24924 MEMB     188      POPC     H16X     HAL3     0.900000E-01   1.00800           0
     24925 MEMB     188      POPC     H16Y     HAL3     0.900000E-01   1.00800           0
     24926 MEMB     188      POPC     H16Z     HAL3     0.900000E-01   1.00800           0
     24927 MEMB     189      POPC     N        NTL     -0.600000       14.0070           0
     24928 MEMB     189      POPC     C12      CTL2    -0.100000       12.0110           0
     24929 MEMB     189      POPC     H12A     HL       0.250000       1.00800           0
     24930 MEMB     189      POPC     H12B     HL       0.250000       1.00800           0
     24931 MEMB     189      POPC     C13      CTL5    -0.350000       12.0110           0
     24932 MEMB     189      POPC     H13A     HL       0.250000       1.00800           0
     24933 MEMB     189      POPC     H13B     HL       0.250000       1.00800           0
     24934 MEMB     189      POPC     H13C     HL       0.250000       1.00800           0
     24935 MEMB     189      POPC     C14      CTL5    -0.350000       12.0110           0
     24936 MEMB     189      POPC     H14A     HL       0.250000       1.00800           0
     24937 MEMB     189      POPC     H14B     HL       0.250000       1.00800           0
     24938 MEMB     189      POPC     H14C     HL       0.250000       1.00800           0
     24939 MEMB     189      POPC     C15      CTL5    -0.350000       12.0110           0
     24940 MEMB     189      POPC     H15A     HL       0.250000       1.00800           0
     24941 MEMB     189      POPC     H15B     HL       0.250000       1.00800           0
     24942 MEMB     189      POPC     H15C     HL       0.250000       1.00800           0
     24943 MEMB     189      POPC     C11      CTL2    -0.800000E-01   12.0110           0
     24944 MEMB     189      POPC     H11A     HAL2     0.900000E-01   1.00800           0
     24945 MEMB     189      POPC     H11B     HAL2     0.900000E-01   1.00800           0
     24946 MEMB     189      POPC     P        PL        1.50000       30.9740           0
     24947 MEMB     189      POPC     O13      O2L     -0.780000       15.9994           0
     24948 MEMB     189      POPC     O14      O2L     -0.780000       15.9994           0
     24949 MEMB     189      POPC     O12      OSLP    -0.570000       15.9994           0
     24950 MEMB     189      POPC     O11      OSLP    -0.570000       15.9994           0
     24951 MEMB     189      POPC     C1       CTL2    -0.800000E-01   12.0110           0
     24952 MEMB     189      POPC     HA       HAL2     0.900000E-01   1.00800           0
     24953 MEMB     189      POPC     HB       HAL2     0.900000E-01   1.00800           0
     24954 MEMB     189      POPC     C2       CTL1     0.170000       12.0110           0
     24955 MEMB     189      POPC     HS       HAL1     0.900000E-01   1.00800           0
     24956 MEMB     189      POPC     O21      OSL     -0.490000       15.9994           0
     24957 MEMB     189      POPC     C21      CL       0.900000       12.0110           0
     24958 MEMB     189      POPC     O22      OBL     -0.630000       15.9994           0
     24959 MEMB     189      POPC     C22      CTL2    -0.220000       12.0110           0
     24960 MEMB     189      POPC     H2R      HAL2     0.900000E-01   1.00800           0
     24961 MEMB     189      POPC     H2S      HAL2     0.900000E-01   1.00800           0
     24962 MEMB     189      POPC     C3       CTL2     0.800000E-01   12.0110           0
     24963 MEMB     189      POPC     HX       HAL2     0.900000E-01   1.00800           0
     24964 MEMB     189      POPC     HY       HAL2     0.900000E-01   1.00800           0
     24965 MEMB     189      POPC     O31      OSL     -0.490000       15.9994           0
     24966 MEMB     189      POPC     C31      CL       0.900000       12.0110           0
     24967 MEMB     189      POPC     O32      OBL     -0.630000       15.9994           0
     24968 MEMB     189      POPC     C32      CTL2    -0.220000       12.0110           0
     24969 MEMB     189      POPC     H2X      HAL2     0.900000E-01   1.00800           0
     24970 MEMB     189      POPC     H2Y      HAL2     0.900000E-01   1.00800           0
     24971 MEMB     189      POPC     C23      CTL2    -0.180000       12.0110           0
     24972 MEMB     189      POPC     H3R      HAL2     0.900000E-01   1.00800           0
     24973 MEMB     189      POPC     H3S      HAL2     0.900000E-01   1.00800           0
     24974 MEMB     189      POPC     C24      CTL2    -0.180000       12.0110           0
     24975 MEMB     189      POPC     H4R      HAL2     0.900000E-01   1.00800           0
     24976 MEMB     189      POPC     H4S      HAL2     0.900000E-01   1.00800           0
     24977 MEMB     189      POPC     C25      CTL2    -0.180000       12.0110           0
     24978 MEMB     189      POPC     H5R      HAL2     0.900000E-01   1.00800           0
     24979 MEMB     189      POPC     H5S      HAL2     0.900000E-01   1.00800           0
     24980 MEMB     189      POPC     C26      CTL2    -0.180000       12.0110           0
     24981 MEMB     189      POPC     H6R      HAL2     0.900000E-01   1.00800           0
     24982 MEMB     189      POPC     H6S      HAL2     0.900000E-01   1.00800           0
     24983 MEMB     189      POPC     C27      CTL2    -0.180000       12.0110           0
     24984 MEMB     189      POPC     H7R      HAL2     0.900000E-01   1.00800           0
     24985 MEMB     189      POPC     H7S      HAL2     0.900000E-01   1.00800           0
     24986 MEMB     189      POPC     C28      CTL2    -0.180000       12.0110           0
     24987 MEMB     189      POPC     H8R      HAL2     0.900000E-01   1.00800           0
     24988 MEMB     189      POPC     H8S      HAL2     0.900000E-01   1.00800           0
     24989 MEMB     189      POPC     C29      CEL1    -0.150000       12.0110           0
     24990 MEMB     189      POPC     H91      HEL1     0.150000       1.00800           0
     24991 MEMB     189      POPC     C210     CEL1    -0.150000       12.0110           0
     24992 MEMB     189      POPC     H101     HEL1     0.150000       1.00800           0
     24993 MEMB     189      POPC     C211     CTL2    -0.180000       12.0110           0
     24994 MEMB     189      POPC     H11R     HAL2     0.900000E-01   1.00800           0
     24995 MEMB     189      POPC     H11S     HAL2     0.900000E-01   1.00800           0
     24996 MEMB     189      POPC     C212     CTL2    -0.180000       12.0110           0
     24997 MEMB     189      POPC     H12R     HAL2     0.900000E-01   1.00800           0
     24998 MEMB     189      POPC     H12S     HAL2     0.900000E-01   1.00800           0
     24999 MEMB     189      POPC     C213     CTL2    -0.180000       12.0110           0
     25000 MEMB     189      POPC     H13R     HAL2     0.900000E-01   1.00800           0
     25001 MEMB     189      POPC     H13S     HAL2     0.900000E-01   1.00800           0
     25002 MEMB     189      POPC     C214     CTL2    -0.180000       12.0110           0
     25003 MEMB     189      POPC     H14R     HAL2     0.900000E-01   1.00800           0
     25004 MEMB     189      POPC     H14S     HAL2     0.900000E-01   1.00800           0
     25005 MEMB     189      POPC     C215     CTL2    -0.180000       12.0110           0
     25006 MEMB     189      POPC     H15R     HAL2     0.900000E-01   1.00800           0
     25007 MEMB     189      POPC     H15S     HAL2     0.900000E-01   1.00800           0
     25008 MEMB     189      POPC     C216     CTL2    -0.180000       12.0110           0
     25009 MEMB     189      POPC     H16R     HAL2     0.900000E-01   1.00800           0
     25010 MEMB     189      POPC     H16S     HAL2     0.900000E-01   1.00800           0
     25011 MEMB     189      POPC     C217     CTL2    -0.180000       12.0110           0
     25012 MEMB     189      POPC     H17R     HAL2     0.900000E-01   1.00800           0
     25013 MEMB     189      POPC     H17S     HAL2     0.900000E-01   1.00800           0
     25014 MEMB     189      POPC     C218     CTL3    -0.270000       12.0110           0
     25015 MEMB     189      POPC     H18R     HAL3     0.900000E-01   1.00800           0
     25016 MEMB     189      POPC     H18S     HAL3     0.900000E-01   1.00800           0
     25017 MEMB     189      POPC     H18T     HAL3     0.900000E-01   1.00800           0
     25018 MEMB     189      POPC     C33      CTL2    -0.180000       12.0110           0
     25019 MEMB     189      POPC     H3X      HAL2     0.900000E-01   1.00800           0
     25020 MEMB     189      POPC     H3Y      HAL2     0.900000E-01   1.00800           0
     25021 MEMB     189      POPC     C34      CTL2    -0.180000       12.0110           0
     25022 MEMB     189      POPC     H4X      HAL2     0.900000E-01   1.00800           0
     25023 MEMB     189      POPC     H4Y      HAL2     0.900000E-01   1.00800           0
     25024 MEMB     189      POPC     C35      CTL2    -0.180000       12.0110           0
     25025 MEMB     189      POPC     H5X      HAL2     0.900000E-01   1.00800           0
     25026 MEMB     189      POPC     H5Y      HAL2     0.900000E-01   1.00800           0
     25027 MEMB     189      POPC     C36      CTL2    -0.180000       12.0110           0
     25028 MEMB     189      POPC     H6X      HAL2     0.900000E-01   1.00800           0
     25029 MEMB     189      POPC     H6Y      HAL2     0.900000E-01   1.00800           0
     25030 MEMB     189      POPC     C37      CTL2    -0.180000       12.0110           0
     25031 MEMB     189      POPC     H7X      HAL2     0.900000E-01   1.00800           0
     25032 MEMB     189      POPC     H7Y      HAL2     0.900000E-01   1.00800           0
     25033 MEMB     189      POPC     C38      CTL2    -0.180000       12.0110           0
     25034 MEMB     189      POPC     H8X      HAL2     0.900000E-01   1.00800           0
     25035 MEMB     189      POPC     H8Y      HAL2     0.900000E-01   1.00800           0
     25036 MEMB     189      POPC     C39      CTL2    -0.180000       12.0110           0
     25037 MEMB     189      POPC     H9X      HAL2     0.900000E-01   1.00800           0
     25038 MEMB     189      POPC     H9Y      HAL2     0.900000E-01   1.00800           0
     25039 MEMB     189      POPC     C310     CTL2    -0.180000       12.0110           0
     25040 MEMB     189      POPC     H10X     HAL2     0.900000E-01   1.00800           0
     25041 MEMB     189      POPC     H10Y     HAL2     0.900000E-01   1.00800           0
     25042 MEMB     189      POPC     C311     CTL2    -0.180000       12.0110           0
     25043 MEMB     189      POPC     H11X     HAL2     0.900000E-01   1.00800           0
     25044 MEMB     189      POPC     H11Y     HAL2     0.900000E-01   1.00800           0
     25045 MEMB     189      POPC     C312     CTL2    -0.180000       12.0110           0
     25046 MEMB     189      POPC     H12X     HAL2     0.900000E-01   1.00800           0
     25047 MEMB     189      POPC     H12Y     HAL2     0.900000E-01   1.00800           0
     25048 MEMB     189      POPC     C313     CTL2    -0.180000       12.0110           0
     25049 MEMB     189      POPC     H13X     HAL2     0.900000E-01   1.00800           0
     25050 MEMB     189      POPC     H13Y     HAL2     0.900000E-01   1.00800           0
     25051 MEMB     189      POPC     C314     CTL2    -0.180000       12.0110           0
     25052 MEMB     189      POPC     H14X     HAL2     0.900000E-01   1.00800           0
     25053 MEMB     189      POPC     H14Y     HAL2     0.900000E-01   1.00800           0
     25054 MEMB     189      POPC     C315     CTL2    -0.180000       12.0110           0
     25055 MEMB     189      POPC     H15X     HAL2     0.900000E-01   1.00800           0
     25056 MEMB     189      POPC     H15Y     HAL2     0.900000E-01   1.00800           0
     25057 MEMB     189      POPC     C316     CTL3    -0.270000       12.0110           0
     25058 MEMB     189      POPC     H16X     HAL3     0.900000E-01   1.00800           0
     25059 MEMB     189      POPC     H16Y     HAL3     0.900000E-01   1.00800           0
     25060 MEMB     189      POPC     H16Z     HAL3     0.900000E-01   1.00800           0
     25061 MEMB     190      POPC     N        NTL     -0.600000       14.0070           0
     25062 MEMB     190      POPC     C12      CTL2    -0.100000       12.0110           0
     25063 MEMB     190      POPC     H12A     HL       0.250000       1.00800           0
     25064 MEMB     190      POPC     H12B     HL       0.250000       1.00800           0
     25065 MEMB     190      POPC     C13      CTL5    -0.350000       12.0110           0
     25066 MEMB     190      POPC     H13A     HL       0.250000       1.00800           0
     25067 MEMB     190      POPC     H13B     HL       0.250000       1.00800           0
     25068 MEMB     190      POPC     H13C     HL       0.250000       1.00800           0
     25069 MEMB     190      POPC     C14      CTL5    -0.350000       12.0110           0
     25070 MEMB     190      POPC     H14A     HL       0.250000       1.00800           0
     25071 MEMB     190      POPC     H14B     HL       0.250000       1.00800           0
     25072 MEMB     190      POPC     H14C     HL       0.250000       1.00800           0
     25073 MEMB     190      POPC     C15      CTL5    -0.350000       12.0110           0
     25074 MEMB     190      POPC     H15A     HL       0.250000       1.00800           0
     25075 MEMB     190      POPC     H15B     HL       0.250000       1.00800           0
     25076 MEMB     190      POPC     H15C     HL       0.250000       1.00800           0
     25077 MEMB     190      POPC     C11      CTL2    -0.800000E-01   12.0110           0
     25078 MEMB     190      POPC     H11A     HAL2     0.900000E-01   1.00800           0
     25079 MEMB     190      POPC     H11B     HAL2     0.900000E-01   1.00800           0
     25080 MEMB     190      POPC     P        PL        1.50000       30.9740           0
     25081 MEMB     190      POPC     O13      O2L     -0.780000       15.9994           0
     25082 MEMB     190      POPC     O14      O2L     -0.780000       15.9994           0
     25083 MEMB     190      POPC     O12      OSLP    -0.570000       15.9994           0
     25084 MEMB     190      POPC     O11      OSLP    -0.570000       15.9994           0
     25085 MEMB     190      POPC     C1       CTL2    -0.800000E-01   12.0110           0
     25086 MEMB     190      POPC     HA       HAL2     0.900000E-01   1.00800           0
     25087 MEMB     190      POPC     HB       HAL2     0.900000E-01   1.00800           0
     25088 MEMB     190      POPC     C2       CTL1     0.170000       12.0110           0
     25089 MEMB     190      POPC     HS       HAL1     0.900000E-01   1.00800           0
     25090 MEMB     190      POPC     O21      OSL     -0.490000       15.9994           0
     25091 MEMB     190      POPC     C21      CL       0.900000       12.0110           0
     25092 MEMB     190      POPC     O22      OBL     -0.630000       15.9994           0
     25093 MEMB     190      POPC     C22      CTL2    -0.220000       12.0110           0
     25094 MEMB     190      POPC     H2R      HAL2     0.900000E-01   1.00800           0
     25095 MEMB     190      POPC     H2S      HAL2     0.900000E-01   1.00800           0
     25096 MEMB     190      POPC     C3       CTL2     0.800000E-01   12.0110           0
     25097 MEMB     190      POPC     HX       HAL2     0.900000E-01   1.00800           0
     25098 MEMB     190      POPC     HY       HAL2     0.900000E-01   1.00800           0
     25099 MEMB     190      POPC     O31      OSL     -0.490000       15.9994           0
     25100 MEMB     190      POPC     C31      CL       0.900000       12.0110           0
     25101 MEMB     190      POPC     O32      OBL     -0.630000       15.9994           0
     25102 MEMB     190      POPC     C32      CTL2    -0.220000       12.0110           0
     25103 MEMB     190      POPC     H2X      HAL2     0.900000E-01   1.00800           0
     25104 MEMB     190      POPC     H2Y      HAL2     0.900000E-01   1.00800           0
     25105 MEMB     190      POPC     C23      CTL2    -0.180000       12.0110           0
     25106 MEMB     190      POPC     H3R      HAL2     0.900000E-01   1.00800           0
     25107 MEMB     190      POPC     H3S      HAL2     0.900000E-01   1.00800           0
     25108 MEMB     190      POPC     C24      CTL2    -0.180000       12.0110           0
     25109 MEMB     190      POPC     H4R      HAL2     0.900000E-01   1.00800           0
     25110 MEMB     190      POPC     H4S      HAL2     0.900000E-01   1.00800           0
     25111 MEMB     190      POPC     C25      CTL2    -0.180000       12.0110           0
     25112 MEMB     190      POPC     H5R      HAL2     0.900000E-01   1.00800           0
     25113 MEMB     190      POPC     H5S      HAL2     0.900000E-01   1.00800           0
     25114 MEMB     190      POPC     C26      CTL2    -0.180000       12.0110           0
     25115 MEMB     190      POPC     H6R      HAL2     0.900000E-01   1.00800           0
     25116 MEMB     190      POPC     H6S      HAL2     0.900000E-01   1.00800           0
     25117 MEMB     190      POPC     C27      CTL2    -0.180000       12.0110           0
     25118 MEMB     190      POPC     H7R      HAL2     0.900000E-01   1.00800           0
     25119 MEMB     190      POPC     H7S      HAL2     0.900000E-01   1.00800           0
     25120 MEMB     190      POPC     C28      CTL2    -0.180000       12.0110           0
     25121 MEMB     190      POPC     H8R      HAL2     0.900000E-01   1.00800           0
     25122 MEMB     190      POPC     H8S      HAL2     0.900000E-01   1.00800           0
     25123 MEMB     190      POPC     C29      CEL1    -0.150000       12.0110           0
     25124 MEMB     190      POPC     H91      HEL1     0.150000       1.00800           0
     25125 MEMB     190      POPC     C210     CEL1    -0.150000       12.0110           0
     25126 MEMB     190      POPC     H101     HEL1     0.150000       1.00800           0
     25127 MEMB     190      POPC     C211     CTL2    -0.180000       12.0110           0
     25128 MEMB     190      POPC     H11R     HAL2     0.900000E-01   1.00800           0
     25129 MEMB     190      POPC     H11S     HAL2     0.900000E-01   1.00800           0
     25130 MEMB     190      POPC     C212     CTL2    -0.180000       12.0110           0
     25131 MEMB     190      POPC     H12R     HAL2     0.900000E-01   1.00800           0
     25132 MEMB     190      POPC     H12S     HAL2     0.900000E-01   1.00800           0
     25133 MEMB     190      POPC     C213     CTL2    -0.180000       12.0110           0
     25134 MEMB     190      POPC     H13R     HAL2     0.900000E-01   1.00800           0
     25135 MEMB     190      POPC     H13S     HAL2     0.900000E-01   1.00800           0
     25136 MEMB     190      POPC     C214     CTL2    -0.180000       12.0110           0
     25137 MEMB     190      POPC     H14R     HAL2     0.900000E-01   1.00800           0
     25138 MEMB     190      POPC     H14S     HAL2     0.900000E-01   1.00800           0
     25139 MEMB     190      POPC     C215     CTL2    -0.180000       12.0110           0
     25140 MEMB     190      POPC     H15R     HAL2     0.900000E-01   1.00800           0
     25141 MEMB     190      POPC     H15S     HAL2     0.900000E-01   1.00800           0
     25142 MEMB     190      POPC     C216     CTL2    -0.180000       12.0110           0
     25143 MEMB     190      POPC     H16R     HAL2     0.900000E-01   1.00800           0
     25144 MEMB     190      POPC     H16S     HAL2     0.900000E-01   1.00800           0
     25145 MEMB     190      POPC     C217     CTL2    -0.180000       12.0110           0
     25146 MEMB     190      POPC     H17R     HAL2     0.900000E-01   1.00800           0
     25147 MEMB     190      POPC     H17S     HAL2     0.900000E-01   1.00800           0
     25148 MEMB     190      POPC     C218     CTL3    -0.270000       12.0110           0
     25149 MEMB     190      POPC     H18R     HAL3     0.900000E-01   1.00800           0
     25150 MEMB     190      POPC     H18S     HAL3     0.900000E-01   1.00800           0
     25151 MEMB     190      POPC     H18T     HAL3     0.900000E-01   1.00800           0
     25152 MEMB     190      POPC     C33      CTL2    -0.180000       12.0110           0
     25153 MEMB     190      POPC     H3X      HAL2     0.900000E-01   1.00800           0
     25154 MEMB     190      POPC     H3Y      HAL2     0.900000E-01   1.00800           0
     25155 MEMB     190      POPC     C34      CTL2    -0.180000       12.0110           0
     25156 MEMB     190      POPC     H4X      HAL2     0.900000E-01   1.00800           0
     25157 MEMB     190      POPC     H4Y      HAL2     0.900000E-01   1.00800           0
     25158 MEMB     190      POPC     C35      CTL2    -0.180000       12.0110           0
     25159 MEMB     190      POPC     H5X      HAL2     0.900000E-01   1.00800           0
     25160 MEMB     190      POPC     H5Y      HAL2     0.900000E-01   1.00800           0
     25161 MEMB     190      POPC     C36      CTL2    -0.180000       12.0110           0
     25162 MEMB     190      POPC     H6X      HAL2     0.900000E-01   1.00800           0
     25163 MEMB     190      POPC     H6Y      HAL2     0.900000E-01   1.00800           0
     25164 MEMB     190      POPC     C37      CTL2    -0.180000       12.0110           0
     25165 MEMB     190      POPC     H7X      HAL2     0.900000E-01   1.00800           0
     25166 MEMB     190      POPC     H7Y      HAL2     0.900000E-01   1.00800           0
     25167 MEMB     190      POPC     C38      CTL2    -0.180000       12.0110           0
     25168 MEMB     190      POPC     H8X      HAL2     0.900000E-01   1.00800           0
     25169 MEMB     190      POPC     H8Y      HAL2     0.900000E-01   1.00800           0
     25170 MEMB     190      POPC     C39      CTL2    -0.180000       12.0110           0
     25171 MEMB     190      POPC     H9X      HAL2     0.900000E-01   1.00800           0
     25172 MEMB     190      POPC     H9Y      HAL2     0.900000E-01   1.00800           0
     25173 MEMB     190      POPC     C310     CTL2    -0.180000       12.0110           0
     25174 MEMB     190      POPC     H10X     HAL2     0.900000E-01   1.00800           0
     25175 MEMB     190      POPC     H10Y     HAL2     0.900000E-01   1.00800           0
     25176 MEMB     190      POPC     C311     CTL2    -0.180000       12.0110           0
     25177 MEMB     190      POPC     H11X     HAL2     0.900000E-01   1.00800           0
     25178 MEMB     190      POPC     H11Y     HAL2     0.900000E-01   1.00800           0
     25179 MEMB     190      POPC     C312     CTL2    -0.180000       12.0110           0
     25180 MEMB     190      POPC     H12X     HAL2     0.900000E-01   1.00800           0
     25181 MEMB     190      POPC     H12Y     HAL2     0.900000E-01   1.00800           0
     25182 MEMB     190      POPC     C313     CTL2    -0.180000       12.0110           0
     25183 MEMB     190      POPC     H13X     HAL2     0.900000E-01   1.00800           0
     25184 MEMB     190      POPC     H13Y     HAL2     0.900000E-01   1.00800           0
     25185 MEMB     190      POPC     C314     CTL2    -0.180000       12.0110           0
     25186 MEMB     190      POPC     H14X     HAL2     0.900000E-01   1.00800           0
     25187 MEMB     190      POPC     H14Y     HAL2     0.900000E-01   1.00800           0
     25188 MEMB     190      POPC     C315     CTL2    -0.180000       12.0110           0
     25189 MEMB     190      POPC     H15X     HAL2     0.900000E-01   1.00800           0
     25190 MEMB     190      POPC     H15Y     HAL2     0.900000E-01   1.00800           0
     25191 MEMB     190      POPC     C316     CTL3    -0.270000       12.0110           0
     25192 MEMB     190      POPC     H16X     HAL3     0.900000E-01   1.00800           0
     25193 MEMB     190      POPC     H16Y     HAL3     0.900000E-01   1.00800           0
     25194 MEMB     190      POPC     H16Z     HAL3     0.900000E-01   1.00800           0
     25195 MEMB     191      POPC     N        NTL     -0.600000       14.0070           0
     25196 MEMB     191      POPC     C12      CTL2    -0.100000       12.0110           0
     25197 MEMB     191      POPC     H12A     HL       0.250000       1.00800           0
     25198 MEMB     191      POPC     H12B     HL       0.250000       1.00800           0
     25199 MEMB     191      POPC     C13      CTL5    -0.350000       12.0110           0
     25200 MEMB     191      POPC     H13A     HL       0.250000       1.00800           0
     25201 MEMB     191      POPC     H13B     HL       0.250000       1.00800           0
     25202 MEMB     191      POPC     H13C     HL       0.250000       1.00800           0
     25203 MEMB     191      POPC     C14      CTL5    -0.350000       12.0110           0
     25204 MEMB     191      POPC     H14A     HL       0.250000       1.00800           0
     25205 MEMB     191      POPC     H14B     HL       0.250000       1.00800           0
     25206 MEMB     191      POPC     H14C     HL       0.250000       1.00800           0
     25207 MEMB     191      POPC     C15      CTL5    -0.350000       12.0110           0
     25208 MEMB     191      POPC     H15A     HL       0.250000       1.00800           0
     25209 MEMB     191      POPC     H15B     HL       0.250000       1.00800           0
     25210 MEMB     191      POPC     H15C     HL       0.250000       1.00800           0
     25211 MEMB     191      POPC     C11      CTL2    -0.800000E-01   12.0110           0
     25212 MEMB     191      POPC     H11A     HAL2     0.900000E-01   1.00800           0
     25213 MEMB     191      POPC     H11B     HAL2     0.900000E-01   1.00800           0
     25214 MEMB     191      POPC     P        PL        1.50000       30.9740           0
     25215 MEMB     191      POPC     O13      O2L     -0.780000       15.9994           0
     25216 MEMB     191      POPC     O14      O2L     -0.780000       15.9994           0
     25217 MEMB     191      POPC     O12      OSLP    -0.570000       15.9994           0
     25218 MEMB     191      POPC     O11      OSLP    -0.570000       15.9994           0
     25219 MEMB     191      POPC     C1       CTL2    -0.800000E-01   12.0110           0
     25220 MEMB     191      POPC     HA       HAL2     0.900000E-01   1.00800           0
     25221 MEMB     191      POPC     HB       HAL2     0.900000E-01   1.00800           0
     25222 MEMB     191      POPC     C2       CTL1     0.170000       12.0110           0
     25223 MEMB     191      POPC     HS       HAL1     0.900000E-01   1.00800           0
     25224 MEMB     191      POPC     O21      OSL     -0.490000       15.9994           0
     25225 MEMB     191      POPC     C21      CL       0.900000       12.0110           0
     25226 MEMB     191      POPC     O22      OBL     -0.630000       15.9994           0
     25227 MEMB     191      POPC     C22      CTL2    -0.220000       12.0110           0
     25228 MEMB     191      POPC     H2R      HAL2     0.900000E-01   1.00800           0
     25229 MEMB     191      POPC     H2S      HAL2     0.900000E-01   1.00800           0
     25230 MEMB     191      POPC     C3       CTL2     0.800000E-01   12.0110           0
     25231 MEMB     191      POPC     HX       HAL2     0.900000E-01   1.00800           0
     25232 MEMB     191      POPC     HY       HAL2     0.900000E-01   1.00800           0
     25233 MEMB     191      POPC     O31      OSL     -0.490000       15.9994           0
     25234 MEMB     191      POPC     C31      CL       0.900000       12.0110           0
     25235 MEMB     191      POPC     O32      OBL     -0.630000       15.9994           0
     25236 MEMB     191      POPC     C32      CTL2    -0.220000       12.0110           0
     25237 MEMB     191      POPC     H2X      HAL2     0.900000E-01   1.00800           0
     25238 MEMB     191      POPC     H2Y      HAL2     0.900000E-01   1.00800           0
     25239 MEMB     191      POPC     C23      CTL2    -0.180000       12.0110           0
     25240 MEMB     191      POPC     H3R      HAL2     0.900000E-01   1.00800           0
     25241 MEMB     191      POPC     H3S      HAL2     0.900000E-01   1.00800           0
     25242 MEMB     191      POPC     C24      CTL2    -0.180000       12.0110           0
     25243 MEMB     191      POPC     H4R      HAL2     0.900000E-01   1.00800           0
     25244 MEMB     191      POPC     H4S      HAL2     0.900000E-01   1.00800           0
     25245 MEMB     191      POPC     C25      CTL2    -0.180000       12.0110           0
     25246 MEMB     191      POPC     H5R      HAL2     0.900000E-01   1.00800           0
     25247 MEMB     191      POPC     H5S      HAL2     0.900000E-01   1.00800           0
     25248 MEMB     191      POPC     C26      CTL2    -0.180000       12.0110           0
     25249 MEMB     191      POPC     H6R      HAL2     0.900000E-01   1.00800           0
     25250 MEMB     191      POPC     H6S      HAL2     0.900000E-01   1.00800           0
     25251 MEMB     191      POPC     C27      CTL2    -0.180000       12.0110           0
     25252 MEMB     191      POPC     H7R      HAL2     0.900000E-01   1.00800           0
     25253 MEMB     191      POPC     H7S      HAL2     0.900000E-01   1.00800           0
     25254 MEMB     191      POPC     C28      CTL2    -0.180000       12.0110           0
     25255 MEMB     191      POPC     H8R      HAL2     0.900000E-01   1.00800           0
     25256 MEMB     191      POPC     H8S      HAL2     0.900000E-01   1.00800           0
     25257 MEMB     191      POPC     C29      CEL1    -0.150000       12.0110           0
     25258 MEMB     191      POPC     H91      HEL1     0.150000       1.00800           0
     25259 MEMB     191      POPC     C210     CEL1    -0.150000       12.0110           0
     25260 MEMB     191      POPC     H101     HEL1     0.150000       1.00800           0
     25261 MEMB     191      POPC     C211     CTL2    -0.180000       12.0110           0
     25262 MEMB     191      POPC     H11R     HAL2     0.900000E-01   1.00800           0
     25263 MEMB     191      POPC     H11S     HAL2     0.900000E-01   1.00800           0
     25264 MEMB     191      POPC     C212     CTL2    -0.180000       12.0110           0
     25265 MEMB     191      POPC     H12R     HAL2     0.900000E-01   1.00800           0
     25266 MEMB     191      POPC     H12S     HAL2     0.900000E-01   1.00800           0
     25267 MEMB     191      POPC     C213     CTL2    -0.180000       12.0110           0
     25268 MEMB     191      POPC     H13R     HAL2     0.900000E-01   1.00800           0
     25269 MEMB     191      POPC     H13S     HAL2     0.900000E-01   1.00800           0
     25270 MEMB     191      POPC     C214     CTL2    -0.180000       12.0110           0
     25271 MEMB     191      POPC     H14R     HAL2     0.900000E-01   1.00800           0
     25272 MEMB     191      POPC     H14S     HAL2     0.900000E-01   1.00800           0
     25273 MEMB     191      POPC     C215     CTL2    -0.180000       12.0110           0
     25274 MEMB     191      POPC     H15R     HAL2     0.900000E-01   1.00800           0
     25275 MEMB     191      POPC     H15S     HAL2     0.900000E-01   1.00800           0
     25276 MEMB     191      POPC     C216     CTL2    -0.180000       12.0110           0
     25277 MEMB     191      POPC     H16R     HAL2     0.900000E-01   1.00800           0
     25278 MEMB     191      POPC     H16S     HAL2     0.900000E-01   1.00800           0
     25279 MEMB     191      POPC     C217     CTL2    -0.180000       12.0110           0
     25280 MEMB     191      POPC     H17R     HAL2     0.900000E-01   1.00800           0
     25281 MEMB     191      POPC     H17S     HAL2     0.900000E-01   1.00800           0
     25282 MEMB     191      POPC     C218     CTL3    -0.270000       12.0110           0
     25283 MEMB     191      POPC     H18R     HAL3     0.900000E-01   1.00800           0
     25284 MEMB     191      POPC     H18S     HAL3     0.900000E-01   1.00800           0
     25285 MEMB     191      POPC     H18T     HAL3     0.900000E-01   1.00800           0
     25286 MEMB     191      POPC     C33      CTL2    -0.180000       12.0110           0
     25287 MEMB     191      POPC     H3X      HAL2     0.900000E-01   1.00800           0
     25288 MEMB     191      POPC     H3Y      HAL2     0.900000E-01   1.00800           0
     25289 MEMB     191      POPC     C34      CTL2    -0.180000       12.0110           0
     25290 MEMB     191      POPC     H4X      HAL2     0.900000E-01   1.00800           0
     25291 MEMB     191      POPC     H4Y      HAL2     0.900000E-01   1.00800           0
     25292 MEMB     191      POPC     C35      CTL2    -0.180000       12.0110           0
     25293 MEMB     191      POPC     H5X      HAL2     0.900000E-01   1.00800           0
     25294 MEMB     191      POPC     H5Y      HAL2     0.900000E-01   1.00800           0
     25295 MEMB     191      POPC     C36      CTL2    -0.180000       12.0110           0
     25296 MEMB     191      POPC     H6X      HAL2     0.900000E-01   1.00800           0
     25297 MEMB     191      POPC     H6Y      HAL2     0.900000E-01   1.00800           0
     25298 MEMB     191      POPC     C37      CTL2    -0.180000       12.0110           0
     25299 MEMB     191      POPC     H7X      HAL2     0.900000E-01   1.00800           0
     25300 MEMB     191      POPC     H7Y      HAL2     0.900000E-01   1.00800           0
     25301 MEMB     191      POPC     C38      CTL2    -0.180000       12.0110           0
     25302 MEMB     191      POPC     H8X      HAL2     0.900000E-01   1.00800           0
     25303 MEMB     191      POPC     H8Y      HAL2     0.900000E-01   1.00800           0
     25304 MEMB     191      POPC     C39      CTL2    -0.180000       12.0110           0
     25305 MEMB     191      POPC     H9X      HAL2     0.900000E-01   1.00800           0
     25306 MEMB     191      POPC     H9Y      HAL2     0.900000E-01   1.00800           0
     25307 MEMB     191      POPC     C310     CTL2    -0.180000       12.0110           0
     25308 MEMB     191      POPC     H10X     HAL2     0.900000E-01   1.00800           0
     25309 MEMB     191      POPC     H10Y     HAL2     0.900000E-01   1.00800           0
     25310 MEMB     191      POPC     C311     CTL2    -0.180000       12.0110           0
     25311 MEMB     191      POPC     H11X     HAL2     0.900000E-01   1.00800           0
     25312 MEMB     191      POPC     H11Y     HAL2     0.900000E-01   1.00800           0
     25313 MEMB     191      POPC     C312     CTL2    -0.180000       12.0110           0
     25314 MEMB     191      POPC     H12X     HAL2     0.900000E-01   1.00800           0
     25315 MEMB     191      POPC     H12Y     HAL2     0.900000E-01   1.00800           0
     25316 MEMB     191      POPC     C313     CTL2    -0.180000       12.0110           0
     25317 MEMB     191      POPC     H13X     HAL2     0.900000E-01   1.00800           0
     25318 MEMB     191      POPC     H13Y     HAL2     0.900000E-01   1.00800           0
     25319 MEMB     191      POPC     C314     CTL2    -0.180000       12.0110           0
     25320 MEMB     191      POPC     H14X     HAL2     0.900000E-01   1.00800           0
     25321 MEMB     191      POPC     H14Y     HAL2     0.900000E-01   1.00800           0
     25322 MEMB     191      POPC     C315     CTL2    -0.180000       12.0110           0
     25323 MEMB     191      POPC     H15X     HAL2     0.900000E-01   1.00800           0
     25324 MEMB     191      POPC     H15Y     HAL2     0.900000E-01   1.00800           0
     25325 MEMB     191      POPC     C316     CTL3    -0.270000       12.0110           0
     25326 MEMB     191      POPC     H16X     HAL3     0.900000E-01   1.00800           0
     25327 MEMB     191      POPC     H16Y     HAL3     0.900000E-01   1.00800           0
     25328 MEMB     191      POPC     H16Z     HAL3     0.900000E-01   1.00800           0
     25329 MEMB     192      POPC     N        NTL     -0.600000       14.0070           0
     25330 MEMB     192      POPC     C12      CTL2    -0.100000       12.0110           0
     25331 MEMB     192      POPC     H12A     HL       0.250000       1.00800           0
     25332 MEMB     192      POPC     H12B     HL       0.250000       1.00800           0
     25333 MEMB     192      POPC     C13      CTL5    -0.350000       12.0110           0
     25334 MEMB     192      POPC     H13A     HL       0.250000       1.00800           0
     25335 MEMB     192      POPC     H13B     HL       0.250000       1.00800           0
     25336 MEMB     192      POPC     H13C     HL       0.250000       1.00800           0
     25337 MEMB     192      POPC     C14      CTL5    -0.350000       12.0110           0
     25338 MEMB     192      POPC     H14A     HL       0.250000       1.00800           0
     25339 MEMB     192      POPC     H14B     HL       0.250000       1.00800           0
     25340 MEMB     192      POPC     H14C     HL       0.250000       1.00800           0
     25341 MEMB     192      POPC     C15      CTL5    -0.350000       12.0110           0
     25342 MEMB     192      POPC     H15A     HL       0.250000       1.00800           0
     25343 MEMB     192      POPC     H15B     HL       0.250000       1.00800           0
     25344 MEMB     192      POPC     H15C     HL       0.250000       1.00800           0
     25345 MEMB     192      POPC     C11      CTL2    -0.800000E-01   12.0110           0
     25346 MEMB     192      POPC     H11A     HAL2     0.900000E-01   1.00800           0
     25347 MEMB     192      POPC     H11B     HAL2     0.900000E-01   1.00800           0
     25348 MEMB     192      POPC     P        PL        1.50000       30.9740           0
     25349 MEMB     192      POPC     O13      O2L     -0.780000       15.9994           0
     25350 MEMB     192      POPC     O14      O2L     -0.780000       15.9994           0
     25351 MEMB     192      POPC     O12      OSLP    -0.570000       15.9994           0
     25352 MEMB     192      POPC     O11      OSLP    -0.570000       15.9994           0
     25353 MEMB     192      POPC     C1       CTL2    -0.800000E-01   12.0110           0
     25354 MEMB     192      POPC     HA       HAL2     0.900000E-01   1.00800           0
     25355 MEMB     192      POPC     HB       HAL2     0.900000E-01   1.00800           0
     25356 MEMB     192      POPC     C2       CTL1     0.170000       12.0110           0
     25357 MEMB     192      POPC     HS       HAL1     0.900000E-01   1.00800           0
     25358 MEMB     192      POPC     O21      OSL     -0.490000       15.9994           0
     25359 MEMB     192      POPC     C21      CL       0.900000       12.0110           0
     25360 MEMB     192      POPC     O22      OBL     -0.630000       15.9994           0
     25361 MEMB     192      POPC     C22      CTL2    -0.220000       12.0110           0
     25362 MEMB     192      POPC     H2R      HAL2     0.900000E-01   1.00800           0
     25363 MEMB     192      POPC     H2S      HAL2     0.900000E-01   1.00800           0
     25364 MEMB     192      POPC     C3       CTL2     0.800000E-01   12.0110           0
     25365 MEMB     192      POPC     HX       HAL2     0.900000E-01   1.00800           0
     25366 MEMB     192      POPC     HY       HAL2     0.900000E-01   1.00800           0
     25367 MEMB     192      POPC     O31      OSL     -0.490000       15.9994           0
     25368 MEMB     192      POPC     C31      CL       0.900000       12.0110           0
     25369 MEMB     192      POPC     O32      OBL     -0.630000       15.9994           0
     25370 MEMB     192      POPC     C32      CTL2    -0.220000       12.0110           0
     25371 MEMB     192      POPC     H2X      HAL2     0.900000E-01   1.00800           0
     25372 MEMB     192      POPC     H2Y      HAL2     0.900000E-01   1.00800           0
     25373 MEMB     192      POPC     C23      CTL2    -0.180000       12.0110           0
     25374 MEMB     192      POPC     H3R      HAL2     0.900000E-01   1.00800           0
     25375 MEMB     192      POPC     H3S      HAL2     0.900000E-01   1.00800           0
     25376 MEMB     192      POPC     C24      CTL2    -0.180000       12.0110           0
     25377 MEMB     192      POPC     H4R      HAL2     0.900000E-01   1.00800           0
     25378 MEMB     192      POPC     H4S      HAL2     0.900000E-01   1.00800           0
     25379 MEMB     192      POPC     C25      CTL2    -0.180000       12.0110           0
     25380 MEMB     192      POPC     H5R      HAL2     0.900000E-01   1.00800           0
     25381 MEMB     192      POPC     H5S      HAL2     0.900000E-01   1.00800           0
     25382 MEMB     192      POPC     C26      CTL2    -0.180000       12.0110           0
     25383 MEMB     192      POPC     H6R      HAL2     0.900000E-01   1.00800           0
     25384 MEMB     192      POPC     H6S      HAL2     0.900000E-01   1.00800           0
     25385 MEMB     192      POPC     C27      CTL2    -0.180000       12.0110           0
     25386 MEMB     192      POPC     H7R      HAL2     0.900000E-01   1.00800           0
     25387 MEMB     192      POPC     H7S      HAL2     0.900000E-01   1.00800           0
     25388 MEMB     192      POPC     C28      CTL2    -0.180000       12.0110           0
     25389 MEMB     192      POPC     H8R      HAL2     0.900000E-01   1.00800           0
     25390 MEMB     192      POPC     H8S      HAL2     0.900000E-01   1.00800           0
     25391 MEMB     192      POPC     C29      CEL1    -0.150000       12.0110           0
     25392 MEMB     192      POPC     H91      HEL1     0.150000       1.00800           0
     25393 MEMB     192      POPC     C210     CEL1    -0.150000       12.0110           0
     25394 MEMB     192      POPC     H101     HEL1     0.150000       1.00800           0
     25395 MEMB     192      POPC     C211     CTL2    -0.180000       12.0110           0
     25396 MEMB     192      POPC     H11R     HAL2     0.900000E-01   1.00800           0
     25397 MEMB     192      POPC     H11S     HAL2     0.900000E-01   1.00800           0
     25398 MEMB     192      POPC     C212     CTL2    -0.180000       12.0110           0
     25399 MEMB     192      POPC     H12R     HAL2     0.900000E-01   1.00800           0
     25400 MEMB     192      POPC     H12S     HAL2     0.900000E-01   1.00800           0
     25401 MEMB     192      POPC     C213     CTL2    -0.180000       12.0110           0
     25402 MEMB     192      POPC     H13R     HAL2     0.900000E-01   1.00800           0
     25403 MEMB     192      POPC     H13S     HAL2     0.900000E-01   1.00800           0
     25404 MEMB     192      POPC     C214     CTL2    -0.180000       12.0110           0
     25405 MEMB     192      POPC     H14R     HAL2     0.900000E-01   1.00800           0
     25406 MEMB     192      POPC     H14S     HAL2     0.900000E-01   1.00800           0
     25407 MEMB     192      POPC     C215     CTL2    -0.180000       12.0110           0
     25408 MEMB     192      POPC     H15R     HAL2     0.900000E-01   1.00800           0
     25409 MEMB     192      POPC     H15S     HAL2     0.900000E-01   1.00800           0
     25410 MEMB     192      POPC     C216     CTL2    -0.180000       12.0110           0
     25411 MEMB     192      POPC     H16R     HAL2     0.900000E-01   1.00800           0
     25412 MEMB     192      POPC     H16S     HAL2     0.900000E-01   1.00800           0
     25413 MEMB     192      POPC     C217     CTL2    -0.180000       12.0110           0
     25414 MEMB     192      POPC     H17R     HAL2     0.900000E-01   1.00800           0
     25415 MEMB     192      POPC     H17S     HAL2     0.900000E-01   1.00800           0
     25416 MEMB     192      POPC     C218     CTL3    -0.270000       12.0110           0
     25417 MEMB     192      POPC     H18R     HAL3     0.900000E-01   1.00800           0
     25418 MEMB     192      POPC     H18S     HAL3     0.900000E-01   1.00800           0
     25419 MEMB     192      POPC     H18T     HAL3     0.900000E-01   1.00800           0
     25420 MEMB     192      POPC     C33      CTL2    -0.180000       12.0110           0
     25421 MEMB     192      POPC     H3X      HAL2     0.900000E-01   1.00800           0
     25422 MEMB     192      POPC     H3Y      HAL2     0.900000E-01   1.00800           0
     25423 MEMB     192      POPC     C34      CTL2    -0.180000       12.0110           0
     25424 MEMB     192      POPC     H4X      HAL2     0.900000E-01   1.00800           0
     25425 MEMB     192      POPC     H4Y      HAL2     0.900000E-01   1.00800           0
     25426 MEMB     192      POPC     C35      CTL2    -0.180000       12.0110           0
     25427 MEMB     192      POPC     H5X      HAL2     0.900000E-01   1.00800           0
     25428 MEMB     192      POPC     H5Y      HAL2     0.900000E-01   1.00800           0
     25429 MEMB     192      POPC     C36      CTL2    -0.180000       12.0110           0
     25430 MEMB     192      POPC     H6X      HAL2     0.900000E-01   1.00800           0
     25431 MEMB     192      POPC     H6Y      HAL2     0.900000E-01   1.00800           0
     25432 MEMB     192      POPC     C37      CTL2    -0.180000       12.0110           0
     25433 MEMB     192      POPC     H7X      HAL2     0.900000E-01   1.00800           0
     25434 MEMB     192      POPC     H7Y      HAL2     0.900000E-01   1.00800           0
     25435 MEMB     192      POPC     C38      CTL2    -0.180000       12.0110           0
     25436 MEMB     192      POPC     H8X      HAL2     0.900000E-01   1.00800           0
     25437 MEMB     192      POPC     H8Y      HAL2     0.900000E-01   1.00800           0
     25438 MEMB     192      POPC     C39      CTL2    -0.180000       12.0110           0
     25439 MEMB     192      POPC     H9X      HAL2     0.900000E-01   1.00800           0
     25440 MEMB     192      POPC     H9Y      HAL2     0.900000E-01   1.00800           0
     25441 MEMB     192      POPC     C310     CTL2    -0.180000       12.0110           0
     25442 MEMB     192      POPC     H10X     HAL2     0.900000E-01   1.00800           0
     25443 MEMB     192      POPC     H10Y     HAL2     0.900000E-01   1.00800           0
     25444 MEMB     192      POPC     C311     CTL2    -0.180000       12.0110           0
     25445 MEMB     192      POPC     H11X     HAL2     0.900000E-01   1.00800           0
     25446 MEMB     192      POPC     H11Y     HAL2     0.900000E-01   1.00800           0
     25447 MEMB     192      POPC     C312     CTL2    -0.180000       12.0110           0
     25448 MEMB     192      POPC     H12X     HAL2     0.900000E-01   1.00800           0
     25449 MEMB     192      POPC     H12Y     HAL2     0.900000E-01   1.00800           0
     25450 MEMB     192      POPC     C313     CTL2    -0.180000       12.0110           0
     25451 MEMB     192      POPC     H13X     HAL2     0.900000E-01   1.00800           0
     25452 MEMB     192      POPC     H13Y     HAL2     0.900000E-01   1.00800           0
     25453 MEMB     192      POPC     C314     CTL2    -0.180000       12.0110           0
     25454 MEMB     192      POPC     H14X     HAL2     0.900000E-01   1.00800           0
     25455 MEMB     192      POPC     H14Y     HAL2     0.900000E-01   1.00800           0
     25456 MEMB     192      POPC     C315     CTL2    -0.180000       12.0110           0
     25457 MEMB     192      POPC     H15X     HAL2     0.900000E-01   1.00800           0
     25458 MEMB     192      POPC     H15Y     HAL2     0.900000E-01   1.00800           0
     25459 MEMB     192      POPC     C316     CTL3    -0.270000       12.0110           0
     25460 MEMB     192      POPC     H16X     HAL3     0.900000E-01   1.00800           0
     25461 MEMB     192      POPC     H16Y     HAL3     0.900000E-01   1.00800           0
     25462 MEMB     192      POPC     H16Z     HAL3     0.900000E-01   1.00800           0
     25463 MEMB     193      POPC     N        NTL     -0.600000       14.0070           0
     25464 MEMB     193      POPC     C12      CTL2    -0.100000       12.0110           0
     25465 MEMB     193      POPC     H12A     HL       0.250000       1.00800           0
     25466 MEMB     193      POPC     H12B     HL       0.250000       1.00800           0
     25467 MEMB     193      POPC     C13      CTL5    -0.350000       12.0110           0
     25468 MEMB     193      POPC     H13A     HL       0.250000       1.00800           0
     25469 MEMB     193      POPC     H13B     HL       0.250000       1.00800           0
     25470 MEMB     193      POPC     H13C     HL       0.250000       1.00800           0
     25471 MEMB     193      POPC     C14      CTL5    -0.350000       12.0110           0
     25472 MEMB     193      POPC     H14A     HL       0.250000       1.00800           0
     25473 MEMB     193      POPC     H14B     HL       0.250000       1.00800           0
     25474 MEMB     193      POPC     H14C     HL       0.250000       1.00800           0
     25475 MEMB     193      POPC     C15      CTL5    -0.350000       12.0110           0
     25476 MEMB     193      POPC     H15A     HL       0.250000       1.00800           0
     25477 MEMB     193      POPC     H15B     HL       0.250000       1.00800           0
     25478 MEMB     193      POPC     H15C     HL       0.250000       1.00800           0
     25479 MEMB     193      POPC     C11      CTL2    -0.800000E-01   12.0110           0
     25480 MEMB     193      POPC     H11A     HAL2     0.900000E-01   1.00800           0
     25481 MEMB     193      POPC     H11B     HAL2     0.900000E-01   1.00800           0
     25482 MEMB     193      POPC     P        PL        1.50000       30.9740           0
     25483 MEMB     193      POPC     O13      O2L     -0.780000       15.9994           0
     25484 MEMB     193      POPC     O14      O2L     -0.780000       15.9994           0
     25485 MEMB     193      POPC     O12      OSLP    -0.570000       15.9994           0
     25486 MEMB     193      POPC     O11      OSLP    -0.570000       15.9994           0
     25487 MEMB     193      POPC     C1       CTL2    -0.800000E-01   12.0110           0
     25488 MEMB     193      POPC     HA       HAL2     0.900000E-01   1.00800           0
     25489 MEMB     193      POPC     HB       HAL2     0.900000E-01   1.00800           0
     25490 MEMB     193      POPC     C2       CTL1     0.170000       12.0110           0
     25491 MEMB     193      POPC     HS       HAL1     0.900000E-01   1.00800           0
     25492 MEMB     193      POPC     O21      OSL     -0.490000       15.9994           0
     25493 MEMB     193      POPC     C21      CL       0.900000       12.0110           0
     25494 MEMB     193      POPC     O22      OBL     -0.630000       15.9994           0
     25495 MEMB     193      POPC     C22      CTL2    -0.220000       12.0110           0
     25496 MEMB     193      POPC     H2R      HAL2     0.900000E-01   1.00800           0
     25497 MEMB     193      POPC     H2S      HAL2     0.900000E-01   1.00800           0
     25498 MEMB     193      POPC     C3       CTL2     0.800000E-01   12.0110           0
     25499 MEMB     193      POPC     HX       HAL2     0.900000E-01   1.00800           0
     25500 MEMB     193      POPC     HY       HAL2     0.900000E-01   1.00800           0
     25501 MEMB     193      POPC     O31      OSL     -0.490000       15.9994           0
     25502 MEMB     193      POPC     C31      CL       0.900000       12.0110           0
     25503 MEMB     193      POPC     O32      OBL     -0.630000       15.9994           0
     25504 MEMB     193      POPC     C32      CTL2    -0.220000       12.0110           0
     25505 MEMB     193      POPC     H2X      HAL2     0.900000E-01   1.00800           0
     25506 MEMB     193      POPC     H2Y      HAL2     0.900000E-01   1.00800           0
     25507 MEMB     193      POPC     C23      CTL2    -0.180000       12.0110           0
     25508 MEMB     193      POPC     H3R      HAL2     0.900000E-01   1.00800           0
     25509 MEMB     193      POPC     H3S      HAL2     0.900000E-01   1.00800           0
     25510 MEMB     193      POPC     C24      CTL2    -0.180000       12.0110           0
     25511 MEMB     193      POPC     H4R      HAL2     0.900000E-01   1.00800           0
     25512 MEMB     193      POPC     H4S      HAL2     0.900000E-01   1.00800           0
     25513 MEMB     193      POPC     C25      CTL2    -0.180000       12.0110           0
     25514 MEMB     193      POPC     H5R      HAL2     0.900000E-01   1.00800           0
     25515 MEMB     193      POPC     H5S      HAL2     0.900000E-01   1.00800           0
     25516 MEMB     193      POPC     C26      CTL2    -0.180000       12.0110           0
     25517 MEMB     193      POPC     H6R      HAL2     0.900000E-01   1.00800           0
     25518 MEMB     193      POPC     H6S      HAL2     0.900000E-01   1.00800           0
     25519 MEMB     193      POPC     C27      CTL2    -0.180000       12.0110           0
     25520 MEMB     193      POPC     H7R      HAL2     0.900000E-01   1.00800           0
     25521 MEMB     193      POPC     H7S      HAL2     0.900000E-01   1.00800           0
     25522 MEMB     193      POPC     C28      CTL2    -0.180000       12.0110           0
     25523 MEMB     193      POPC     H8R      HAL2     0.900000E-01   1.00800           0
     25524 MEMB     193      POPC     H8S      HAL2     0.900000E-01   1.00800           0
     25525 MEMB     193      POPC     C29      CEL1    -0.150000       12.0110           0
     25526 MEMB     193      POPC     H91      HEL1     0.150000       1.00800           0
     25527 MEMB     193      POPC     C210     CEL1    -0.150000       12.0110           0
     25528 MEMB     193      POPC     H101     HEL1     0.150000       1.00800           0
     25529 MEMB     193      POPC     C211     CTL2    -0.180000       12.0110           0
     25530 MEMB     193      POPC     H11R     HAL2     0.900000E-01   1.00800           0
     25531 MEMB     193      POPC     H11S     HAL2     0.900000E-01   1.00800           0
     25532 MEMB     193      POPC     C212     CTL2    -0.180000       12.0110           0
     25533 MEMB     193      POPC     H12R     HAL2     0.900000E-01   1.00800           0
     25534 MEMB     193      POPC     H12S     HAL2     0.900000E-01   1.00800           0
     25535 MEMB     193      POPC     C213     CTL2    -0.180000       12.0110           0
     25536 MEMB     193      POPC     H13R     HAL2     0.900000E-01   1.00800           0
     25537 MEMB     193      POPC     H13S     HAL2     0.900000E-01   1.00800           0
     25538 MEMB     193      POPC     C214     CTL2    -0.180000       12.0110           0
     25539 MEMB     193      POPC     H14R     HAL2     0.900000E-01   1.00800           0
     25540 MEMB     193      POPC     H14S     HAL2     0.900000E-01   1.00800           0
     25541 MEMB     193      POPC     C215     CTL2    -0.180000       12.0110           0
     25542 MEMB     193      POPC     H15R     HAL2     0.900000E-01   1.00800           0
     25543 MEMB     193      POPC     H15S     HAL2     0.900000E-01   1.00800           0
     25544 MEMB     193      POPC     C216     CTL2    -0.180000       12.0110           0
     25545 MEMB     193      POPC     H16R     HAL2     0.900000E-01   1.00800           0
     25546 MEMB     193      POPC     H16S     HAL2     0.900000E-01   1.00800           0
     25547 MEMB     193      POPC     C217     CTL2    -0.180000       12.0110           0
     25548 MEMB     193      POPC     H17R     HAL2     0.900000E-01   1.00800           0
     25549 MEMB     193      POPC     H17S     HAL2     0.900000E-01   1.00800           0
     25550 MEMB     193      POPC     C218     CTL3    -0.270000       12.0110           0
     25551 MEMB     193      POPC     H18R     HAL3     0.900000E-01   1.00800           0
     25552 MEMB     193      POPC     H18S     HAL3     0.900000E-01   1.00800           0
     25553 MEMB     193      POPC     H18T     HAL3     0.900000E-01   1.00800           0
     25554 MEMB     193      POPC     C33      CTL2    -0.180000       12.0110           0
     25555 MEMB     193      POPC     H3X      HAL2     0.900000E-01   1.00800           0
     25556 MEMB     193      POPC     H3Y      HAL2     0.900000E-01   1.00800           0
     25557 MEMB     193      POPC     C34      CTL2    -0.180000       12.0110           0
     25558 MEMB     193      POPC     H4X      HAL2     0.900000E-01   1.00800           0
     25559 MEMB     193      POPC     H4Y      HAL2     0.900000E-01   1.00800           0
     25560 MEMB     193      POPC     C35      CTL2    -0.180000       12.0110           0
     25561 MEMB     193      POPC     H5X      HAL2     0.900000E-01   1.00800           0
     25562 MEMB     193      POPC     H5Y      HAL2     0.900000E-01   1.00800           0
     25563 MEMB     193      POPC     C36      CTL2    -0.180000       12.0110           0
     25564 MEMB     193      POPC     H6X      HAL2     0.900000E-01   1.00800           0
     25565 MEMB     193      POPC     H6Y      HAL2     0.900000E-01   1.00800           0
     25566 MEMB     193      POPC     C37      CTL2    -0.180000       12.0110           0
     25567 MEMB     193      POPC     H7X      HAL2     0.900000E-01   1.00800           0
     25568 MEMB     193      POPC     H7Y      HAL2     0.900000E-01   1.00800           0
     25569 MEMB     193      POPC     C38      CTL2    -0.180000       12.0110           0
     25570 MEMB     193      POPC     H8X      HAL2     0.900000E-01   1.00800           0
     25571 MEMB     193      POPC     H8Y      HAL2     0.900000E-01   1.00800           0
     25572 MEMB     193      POPC     C39      CTL2    -0.180000       12.0110           0
     25573 MEMB     193      POPC     H9X      HAL2     0.900000E-01   1.00800           0
     25574 MEMB     193      POPC     H9Y      HAL2     0.900000E-01   1.00800           0
     25575 MEMB     193      POPC     C310     CTL2    -0.180000       12.0110           0
     25576 MEMB     193      POPC     H10X     HAL2     0.900000E-01   1.00800           0
     25577 MEMB     193      POPC     H10Y     HAL2     0.900000E-01   1.00800           0
     25578 MEMB     193      POPC     C311     CTL2    -0.180000       12.0110           0
     25579 MEMB     193      POPC     H11X     HAL2     0.900000E-01   1.00800           0
     25580 MEMB     193      POPC     H11Y     HAL2     0.900000E-01   1.00800           0
     25581 MEMB     193      POPC     C312     CTL2    -0.180000       12.0110           0
     25582 MEMB     193      POPC     H12X     HAL2     0.900000E-01   1.00800           0
     25583 MEMB     193      POPC     H12Y     HAL2     0.900000E-01   1.00800           0
     25584 MEMB     193      POPC     C313     CTL2    -0.180000       12.0110           0
     25585 MEMB     193      POPC     H13X     HAL2     0.900000E-01   1.00800           0
     25586 MEMB     193      POPC     H13Y     HAL2     0.900000E-01   1.00800           0
     25587 MEMB     193      POPC     C314     CTL2    -0.180000       12.0110           0
     25588 MEMB     193      POPC     H14X     HAL2     0.900000E-01   1.00800           0
     25589 MEMB     193      POPC     H14Y     HAL2     0.900000E-01   1.00800           0
     25590 MEMB     193      POPC     C315     CTL2    -0.180000       12.0110           0
     25591 MEMB     193      POPC     H15X     HAL2     0.900000E-01   1.00800           0
     25592 MEMB     193      POPC     H15Y     HAL2     0.900000E-01   1.00800           0
     25593 MEMB     193      POPC     C316     CTL3    -0.270000       12.0110           0
     25594 MEMB     193      POPC     H16X     HAL3     0.900000E-01   1.00800           0
     25595 MEMB     193      POPC     H16Y     HAL3     0.900000E-01   1.00800           0
     25596 MEMB     193      POPC     H16Z     HAL3     0.900000E-01   1.00800           0
     25597 MEMB     194      POPC     N        NTL     -0.600000       14.0070           0
     25598 MEMB     194      POPC     C12      CTL2    -0.100000       12.0110           0
     25599 MEMB     194      POPC     H12A     HL       0.250000       1.00800           0
     25600 MEMB     194      POPC     H12B     HL       0.250000       1.00800           0
     25601 MEMB     194      POPC     C13      CTL5    -0.350000       12.0110           0
     25602 MEMB     194      POPC     H13A     HL       0.250000       1.00800           0
     25603 MEMB     194      POPC     H13B     HL       0.250000       1.00800           0
     25604 MEMB     194      POPC     H13C     HL       0.250000       1.00800           0
     25605 MEMB     194      POPC     C14      CTL5    -0.350000       12.0110           0
     25606 MEMB     194      POPC     H14A     HL       0.250000       1.00800           0
     25607 MEMB     194      POPC     H14B     HL       0.250000       1.00800           0
     25608 MEMB     194      POPC     H14C     HL       0.250000       1.00800           0
     25609 MEMB     194      POPC     C15      CTL5    -0.350000       12.0110           0
     25610 MEMB     194      POPC     H15A     HL       0.250000       1.00800           0
     25611 MEMB     194      POPC     H15B     HL       0.250000       1.00800           0
     25612 MEMB     194      POPC     H15C     HL       0.250000       1.00800           0
     25613 MEMB     194      POPC     C11      CTL2    -0.800000E-01   12.0110           0
     25614 MEMB     194      POPC     H11A     HAL2     0.900000E-01   1.00800           0
     25615 MEMB     194      POPC     H11B     HAL2     0.900000E-01   1.00800           0
     25616 MEMB     194      POPC     P        PL        1.50000       30.9740           0
     25617 MEMB     194      POPC     O13      O2L     -0.780000       15.9994           0
     25618 MEMB     194      POPC     O14      O2L     -0.780000       15.9994           0
     25619 MEMB     194      POPC     O12      OSLP    -0.570000       15.9994           0
     25620 MEMB     194      POPC     O11      OSLP    -0.570000       15.9994           0
     25621 MEMB     194      POPC     C1       CTL2    -0.800000E-01   12.0110           0
     25622 MEMB     194      POPC     HA       HAL2     0.900000E-01   1.00800           0
     25623 MEMB     194      POPC     HB       HAL2     0.900000E-01   1.00800           0
     25624 MEMB     194      POPC     C2       CTL1     0.170000       12.0110           0
     25625 MEMB     194      POPC     HS       HAL1     0.900000E-01   1.00800           0
     25626 MEMB     194      POPC     O21      OSL     -0.490000       15.9994           0
     25627 MEMB     194      POPC     C21      CL       0.900000       12.0110           0
     25628 MEMB     194      POPC     O22      OBL     -0.630000       15.9994           0
     25629 MEMB     194      POPC     C22      CTL2    -0.220000       12.0110           0
     25630 MEMB     194      POPC     H2R      HAL2     0.900000E-01   1.00800           0
     25631 MEMB     194      POPC     H2S      HAL2     0.900000E-01   1.00800           0
     25632 MEMB     194      POPC     C3       CTL2     0.800000E-01   12.0110           0
     25633 MEMB     194      POPC     HX       HAL2     0.900000E-01   1.00800           0
     25634 MEMB     194      POPC     HY       HAL2     0.900000E-01   1.00800           0
     25635 MEMB     194      POPC     O31      OSL     -0.490000       15.9994           0
     25636 MEMB     194      POPC     C31      CL       0.900000       12.0110           0
     25637 MEMB     194      POPC     O32      OBL     -0.630000       15.9994           0
     25638 MEMB     194      POPC     C32      CTL2    -0.220000       12.0110           0
     25639 MEMB     194      POPC     H2X      HAL2     0.900000E-01   1.00800           0
     25640 MEMB     194      POPC     H2Y      HAL2     0.900000E-01   1.00800           0
     25641 MEMB     194      POPC     C23      CTL2    -0.180000       12.0110           0
     25642 MEMB     194      POPC     H3R      HAL2     0.900000E-01   1.00800           0
     25643 MEMB     194      POPC     H3S      HAL2     0.900000E-01   1.00800           0
     25644 MEMB     194      POPC     C24      CTL2    -0.180000       12.0110           0
     25645 MEMB     194      POPC     H4R      HAL2     0.900000E-01   1.00800           0
     25646 MEMB     194      POPC     H4S      HAL2     0.900000E-01   1.00800           0
     25647 MEMB     194      POPC     C25      CTL2    -0.180000       12.0110           0
     25648 MEMB     194      POPC     H5R      HAL2     0.900000E-01   1.00800           0
     25649 MEMB     194      POPC     H5S      HAL2     0.900000E-01   1.00800           0
     25650 MEMB     194      POPC     C26      CTL2    -0.180000       12.0110           0
     25651 MEMB     194      POPC     H6R      HAL2     0.900000E-01   1.00800           0
     25652 MEMB     194      POPC     H6S      HAL2     0.900000E-01   1.00800           0
     25653 MEMB     194      POPC     C27      CTL2    -0.180000       12.0110           0
     25654 MEMB     194      POPC     H7R      HAL2     0.900000E-01   1.00800           0
     25655 MEMB     194      POPC     H7S      HAL2     0.900000E-01   1.00800           0
     25656 MEMB     194      POPC     C28      CTL2    -0.180000       12.0110           0
     25657 MEMB     194      POPC     H8R      HAL2     0.900000E-01   1.00800           0
     25658 MEMB     194      POPC     H8S      HAL2     0.900000E-01   1.00800           0
     25659 MEMB     194      POPC     C29      CEL1    -0.150000       12.0110           0
     25660 MEMB     194      POPC     H91      HEL1     0.150000       1.00800           0
     25661 MEMB     194      POPC     C210     CEL1    -0.150000       12.0110           0
     25662 MEMB     194      POPC     H101     HEL1     0.150000       1.00800           0
     25663 MEMB     194      POPC     C211     CTL2    -0.180000       12.0110           0
     25664 MEMB     194      POPC     H11R     HAL2     0.900000E-01   1.00800           0
     25665 MEMB     194      POPC     H11S     HAL2     0.900000E-01   1.00800           0
     25666 MEMB     194      POPC     C212     CTL2    -0.180000       12.0110           0
     25667 MEMB     194      POPC     H12R     HAL2     0.900000E-01   1.00800           0
     25668 MEMB     194      POPC     H12S     HAL2     0.900000E-01   1.00800           0
     25669 MEMB     194      POPC     C213     CTL2    -0.180000       12.0110           0
     25670 MEMB     194      POPC     H13R     HAL2     0.900000E-01   1.00800           0
     25671 MEMB     194      POPC     H13S     HAL2     0.900000E-01   1.00800           0
     25672 MEMB     194      POPC     C214     CTL2    -0.180000       12.0110           0
     25673 MEMB     194      POPC     H14R     HAL2     0.900000E-01   1.00800           0
     25674 MEMB     194      POPC     H14S     HAL2     0.900000E-01   1.00800           0
     25675 MEMB     194      POPC     C215     CTL2    -0.180000       12.0110           0
     25676 MEMB     194      POPC     H15R     HAL2     0.900000E-01   1.00800           0
     25677 MEMB     194      POPC     H15S     HAL2     0.900000E-01   1.00800           0
     25678 MEMB     194      POPC     C216     CTL2    -0.180000       12.0110           0
     25679 MEMB     194      POPC     H16R     HAL2     0.900000E-01   1.00800           0
     25680 MEMB     194      POPC     H16S     HAL2     0.900000E-01   1.00800           0
     25681 MEMB     194      POPC     C217     CTL2    -0.180000       12.0110           0
     25682 MEMB     194      POPC     H17R     HAL2     0.900000E-01   1.00800           0
     25683 MEMB     194      POPC     H17S     HAL2     0.900000E-01   1.00800           0
     25684 MEMB     194      POPC     C218     CTL3    -0.270000       12.0110           0
     25685 MEMB     194      POPC     H18R     HAL3     0.900000E-01   1.00800           0
     25686 MEMB     194      POPC     H18S     HAL3     0.900000E-01   1.00800           0
     25687 MEMB     194      POPC     H18T     HAL3     0.900000E-01   1.00800           0
     25688 MEMB     194      POPC     C33      CTL2    -0.180000       12.0110           0
     25689 MEMB     194      POPC     H3X      HAL2     0.900000E-01   1.00800           0
     25690 MEMB     194      POPC     H3Y      HAL2     0.900000E-01   1.00800           0
     25691 MEMB     194      POPC     C34      CTL2    -0.180000       12.0110           0
     25692 MEMB     194      POPC     H4X      HAL2     0.900000E-01   1.00800           0
     25693 MEMB     194      POPC     H4Y      HAL2     0.900000E-01   1.00800           0
     25694 MEMB     194      POPC     C35      CTL2    -0.180000       12.0110           0
     25695 MEMB     194      POPC     H5X      HAL2     0.900000E-01   1.00800           0
     25696 MEMB     194      POPC     H5Y      HAL2     0.900000E-01   1.00800           0
     25697 MEMB     194      POPC     C36      CTL2    -0.180000       12.0110           0
     25698 MEMB     194      POPC     H6X      HAL2     0.900000E-01   1.00800           0
     25699 MEMB     194      POPC     H6Y      HAL2     0.900000E-01   1.00800           0
     25700 MEMB     194      POPC     C37      CTL2    -0.180000       12.0110           0
     25701 MEMB     194      POPC     H7X      HAL2     0.900000E-01   1.00800           0
     25702 MEMB     194      POPC     H7Y      HAL2     0.900000E-01   1.00800           0
     25703 MEMB     194      POPC     C38      CTL2    -0.180000       12.0110           0
     25704 MEMB     194      POPC     H8X      HAL2     0.900000E-01   1.00800           0
     25705 MEMB     194      POPC     H8Y      HAL2     0.900000E-01   1.00800           0
     25706 MEMB     194      POPC     C39      CTL2    -0.180000       12.0110           0
     25707 MEMB     194      POPC     H9X      HAL2     0.900000E-01   1.00800           0
     25708 MEMB     194      POPC     H9Y      HAL2     0.900000E-01   1.00800           0
     25709 MEMB     194      POPC     C310     CTL2    -0.180000       12.0110           0
     25710 MEMB     194      POPC     H10X     HAL2     0.900000E-01   1.00800           0
     25711 MEMB     194      POPC     H10Y     HAL2     0.900000E-01   1.00800           0
     25712 MEMB     194      POPC     C311     CTL2    -0.180000       12.0110           0
     25713 MEMB     194      POPC     H11X     HAL2     0.900000E-01   1.00800           0
     25714 MEMB     194      POPC     H11Y     HAL2     0.900000E-01   1.00800           0
     25715 MEMB     194      POPC     C312     CTL2    -0.180000       12.0110           0
     25716 MEMB     194      POPC     H12X     HAL2     0.900000E-01   1.00800           0
     25717 MEMB     194      POPC     H12Y     HAL2     0.900000E-01   1.00800           0
     25718 MEMB     194      POPC     C313     CTL2    -0.180000       12.0110           0
     25719 MEMB     194      POPC     H13X     HAL2     0.900000E-01   1.00800           0
     25720 MEMB     194      POPC     H13Y     HAL2     0.900000E-01   1.00800           0
     25721 MEMB     194      POPC     C314     CTL2    -0.180000       12.0110           0
     25722 MEMB     194      POPC     H14X     HAL2     0.900000E-01   1.00800           0
     25723 MEMB     194      POPC     H14Y     HAL2     0.900000E-01   1.00800           0
     25724 MEMB     194      POPC     C315     CTL2    -0.180000       12.0110           0
     25725 MEMB     194      POPC     H15X     HAL2     0.900000E-01   1.00800           0
     25726 MEMB     194      POPC     H15Y     HAL2     0.900000E-01   1.00800           0
     25727 MEMB     194      POPC     C316     CTL3    -0.270000       12.0110           0
     25728 MEMB     194      POPC     H16X     HAL3     0.900000E-01   1.00800           0
     25729 MEMB     194      POPC     H16Y     HAL3     0.900000E-01   1.00800           0
     25730 MEMB     194      POPC     H16Z     HAL3     0.900000E-01   1.00800           0
     25731 MEMB     195      POPC     N        NTL     -0.600000       14.0070           0
     25732 MEMB     195      POPC     C12      CTL2    -0.100000       12.0110           0
     25733 MEMB     195      POPC     H12A     HL       0.250000       1.00800           0
     25734 MEMB     195      POPC     H12B     HL       0.250000       1.00800           0
     25735 MEMB     195      POPC     C13      CTL5    -0.350000       12.0110           0
     25736 MEMB     195      POPC     H13A     HL       0.250000       1.00800           0
     25737 MEMB     195      POPC     H13B     HL       0.250000       1.00800           0
     25738 MEMB     195      POPC     H13C     HL       0.250000       1.00800           0
     25739 MEMB     195      POPC     C14      CTL5    -0.350000       12.0110           0
     25740 MEMB     195      POPC     H14A     HL       0.250000       1.00800           0
     25741 MEMB     195      POPC     H14B     HL       0.250000       1.00800           0
     25742 MEMB     195      POPC     H14C     HL       0.250000       1.00800           0
     25743 MEMB     195      POPC     C15      CTL5    -0.350000       12.0110           0
     25744 MEMB     195      POPC     H15A     HL       0.250000       1.00800           0
     25745 MEMB     195      POPC     H15B     HL       0.250000       1.00800           0
     25746 MEMB     195      POPC     H15C     HL       0.250000       1.00800           0
     25747 MEMB     195      POPC     C11      CTL2    -0.800000E-01   12.0110           0
     25748 MEMB     195      POPC     H11A     HAL2     0.900000E-01   1.00800           0
     25749 MEMB     195      POPC     H11B     HAL2     0.900000E-01   1.00800           0
     25750 MEMB     195      POPC     P        PL        1.50000       30.9740           0
     25751 MEMB     195      POPC     O13      O2L     -0.780000       15.9994           0
     25752 MEMB     195      POPC     O14      O2L     -0.780000       15.9994           0
     25753 MEMB     195      POPC     O12      OSLP    -0.570000       15.9994           0
     25754 MEMB     195      POPC     O11      OSLP    -0.570000       15.9994           0
     25755 MEMB     195      POPC     C1       CTL2    -0.800000E-01   12.0110           0
     25756 MEMB     195      POPC     HA       HAL2     0.900000E-01   1.00800           0
     25757 MEMB     195      POPC     HB       HAL2     0.900000E-01   1.00800           0
     25758 MEMB     195      POPC     C2       CTL1     0.170000       12.0110           0
     25759 MEMB     195      POPC     HS       HAL1     0.900000E-01   1.00800           0
     25760 MEMB     195      POPC     O21      OSL     -0.490000       15.9994           0
     25761 MEMB     195      POPC     C21      CL       0.900000       12.0110           0
     25762 MEMB     195      POPC     O22      OBL     -0.630000       15.9994           0
     25763 MEMB     195      POPC     C22      CTL2    -0.220000       12.0110           0
     25764 MEMB     195      POPC     H2R      HAL2     0.900000E-01   1.00800           0
     25765 MEMB     195      POPC     H2S      HAL2     0.900000E-01   1.00800           0
     25766 MEMB     195      POPC     C3       CTL2     0.800000E-01   12.0110           0
     25767 MEMB     195      POPC     HX       HAL2     0.900000E-01   1.00800           0
     25768 MEMB     195      POPC     HY       HAL2     0.900000E-01   1.00800           0
     25769 MEMB     195      POPC     O31      OSL     -0.490000       15.9994           0
     25770 MEMB     195      POPC     C31      CL       0.900000       12.0110           0
     25771 MEMB     195      POPC     O32      OBL     -0.630000       15.9994           0
     25772 MEMB     195      POPC     C32      CTL2    -0.220000       12.0110           0
     25773 MEMB     195      POPC     H2X      HAL2     0.900000E-01   1.00800           0
     25774 MEMB     195      POPC     H2Y      HAL2     0.900000E-01   1.00800           0
     25775 MEMB     195      POPC     C23      CTL2    -0.180000       12.0110           0
     25776 MEMB     195      POPC     H3R      HAL2     0.900000E-01   1.00800           0
     25777 MEMB     195      POPC     H3S      HAL2     0.900000E-01   1.00800           0
     25778 MEMB     195      POPC     C24      CTL2    -0.180000       12.0110           0
     25779 MEMB     195      POPC     H4R      HAL2     0.900000E-01   1.00800           0
     25780 MEMB     195      POPC     H4S      HAL2     0.900000E-01   1.00800           0
     25781 MEMB     195      POPC     C25      CTL2    -0.180000       12.0110           0
     25782 MEMB     195      POPC     H5R      HAL2     0.900000E-01   1.00800           0
     25783 MEMB     195      POPC     H5S      HAL2     0.900000E-01   1.00800           0
     25784 MEMB     195      POPC     C26      CTL2    -0.180000       12.0110           0
     25785 MEMB     195      POPC     H6R      HAL2     0.900000E-01   1.00800           0
     25786 MEMB     195      POPC     H6S      HAL2     0.900000E-01   1.00800           0
     25787 MEMB     195      POPC     C27      CTL2    -0.180000       12.0110           0
     25788 MEMB     195      POPC     H7R      HAL2     0.900000E-01   1.00800           0
     25789 MEMB     195      POPC     H7S      HAL2     0.900000E-01   1.00800           0
     25790 MEMB     195      POPC     C28      CTL2    -0.180000       12.0110           0
     25791 MEMB     195      POPC     H8R      HAL2     0.900000E-01   1.00800           0
     25792 MEMB     195      POPC     H8S      HAL2     0.900000E-01   1.00800           0
     25793 MEMB     195      POPC     C29      CEL1    -0.150000       12.0110           0
     25794 MEMB     195      POPC     H91      HEL1     0.150000       1.00800           0
     25795 MEMB     195      POPC     C210     CEL1    -0.150000       12.0110           0
     25796 MEMB     195      POPC     H101     HEL1     0.150000       1.00800           0
     25797 MEMB     195      POPC     C211     CTL2    -0.180000       12.0110           0
     25798 MEMB     195      POPC     H11R     HAL2     0.900000E-01   1.00800           0
     25799 MEMB     195      POPC     H11S     HAL2     0.900000E-01   1.00800           0
     25800 MEMB     195      POPC     C212     CTL2    -0.180000       12.0110           0
     25801 MEMB     195      POPC     H12R     HAL2     0.900000E-01   1.00800           0
     25802 MEMB     195      POPC     H12S     HAL2     0.900000E-01   1.00800           0
     25803 MEMB     195      POPC     C213     CTL2    -0.180000       12.0110           0
     25804 MEMB     195      POPC     H13R     HAL2     0.900000E-01   1.00800           0
     25805 MEMB     195      POPC     H13S     HAL2     0.900000E-01   1.00800           0
     25806 MEMB     195      POPC     C214     CTL2    -0.180000       12.0110           0
     25807 MEMB     195      POPC     H14R     HAL2     0.900000E-01   1.00800           0
     25808 MEMB     195      POPC     H14S     HAL2     0.900000E-01   1.00800           0
     25809 MEMB     195      POPC     C215     CTL2    -0.180000       12.0110           0
     25810 MEMB     195      POPC     H15R     HAL2     0.900000E-01   1.00800           0
     25811 MEMB     195      POPC     H15S     HAL2     0.900000E-01   1.00800           0
     25812 MEMB     195      POPC     C216     CTL2    -0.180000       12.0110           0
     25813 MEMB     195      POPC     H16R     HAL2     0.900000E-01   1.00800           0
     25814 MEMB     195      POPC     H16S     HAL2     0.900000E-01   1.00800           0
     25815 MEMB     195      POPC     C217     CTL2    -0.180000       12.0110           0
     25816 MEMB     195      POPC     H17R     HAL2     0.900000E-01   1.00800           0
     25817 MEMB     195      POPC     H17S     HAL2     0.900000E-01   1.00800           0
     25818 MEMB     195      POPC     C218     CTL3    -0.270000       12.0110           0
     25819 MEMB     195      POPC     H18R     HAL3     0.900000E-01   1.00800           0
     25820 MEMB     195      POPC     H18S     HAL3     0.900000E-01   1.00800           0
     25821 MEMB     195      POPC     H18T     HAL3     0.900000E-01   1.00800           0
     25822 MEMB     195      POPC     C33      CTL2    -0.180000       12.0110           0
     25823 MEMB     195      POPC     H3X      HAL2     0.900000E-01   1.00800           0
     25824 MEMB     195      POPC     H3Y      HAL2     0.900000E-01   1.00800           0
     25825 MEMB     195      POPC     C34      CTL2    -0.180000       12.0110           0
     25826 MEMB     195      POPC     H4X      HAL2     0.900000E-01   1.00800           0
     25827 MEMB     195      POPC     H4Y      HAL2     0.900000E-01   1.00800           0
     25828 MEMB     195      POPC     C35      CTL2    -0.180000       12.0110           0
     25829 MEMB     195      POPC     H5X      HAL2     0.900000E-01   1.00800           0
     25830 MEMB     195      POPC     H5Y      HAL2     0.900000E-01   1.00800           0
     25831 MEMB     195      POPC     C36      CTL2    -0.180000       12.0110           0
     25832 MEMB     195      POPC     H6X      HAL2     0.900000E-01   1.00800           0
     25833 MEMB     195      POPC     H6Y      HAL2     0.900000E-01   1.00800           0
     25834 MEMB     195      POPC     C37      CTL2    -0.180000       12.0110           0
     25835 MEMB     195      POPC     H7X      HAL2     0.900000E-01   1.00800           0
     25836 MEMB     195      POPC     H7Y      HAL2     0.900000E-01   1.00800           0
     25837 MEMB     195      POPC     C38      CTL2    -0.180000       12.0110           0
     25838 MEMB     195      POPC     H8X      HAL2     0.900000E-01   1.00800           0
     25839 MEMB     195      POPC     H8Y      HAL2     0.900000E-01   1.00800           0
     25840 MEMB     195      POPC     C39      CTL2    -0.180000       12.0110           0
     25841 MEMB     195      POPC     H9X      HAL2     0.900000E-01   1.00800           0
     25842 MEMB     195      POPC     H9Y      HAL2     0.900000E-01   1.00800           0
     25843 MEMB     195      POPC     C310     CTL2    -0.180000       12.0110           0
     25844 MEMB     195      POPC     H10X     HAL2     0.900000E-01   1.00800           0
     25845 MEMB     195      POPC     H10Y     HAL2     0.900000E-01   1.00800           0
     25846 MEMB     195      POPC     C311     CTL2    -0.180000       12.0110           0
     25847 MEMB     195      POPC     H11X     HAL2     0.900000E-01   1.00800           0
     25848 MEMB     195      POPC     H11Y     HAL2     0.900000E-01   1.00800           0
     25849 MEMB     195      POPC     C312     CTL2    -0.180000       12.0110           0
     25850 MEMB     195      POPC     H12X     HAL2     0.900000E-01   1.00800           0
     25851 MEMB     195      POPC     H12Y     HAL2     0.900000E-01   1.00800           0
     25852 MEMB     195      POPC     C313     CTL2    -0.180000       12.0110           0
     25853 MEMB     195      POPC     H13X     HAL2     0.900000E-01   1.00800           0
     25854 MEMB     195      POPC     H13Y     HAL2     0.900000E-01   1.00800           0
     25855 MEMB     195      POPC     C314     CTL2    -0.180000       12.0110           0
     25856 MEMB     195      POPC     H14X     HAL2     0.900000E-01   1.00800           0
     25857 MEMB     195      POPC     H14Y     HAL2     0.900000E-01   1.00800           0
     25858 MEMB     195      POPC     C315     CTL2    -0.180000       12.0110           0
     25859 MEMB     195      POPC     H15X     HAL2     0.900000E-01   1.00800           0
     25860 MEMB     195      POPC     H15Y     HAL2     0.900000E-01   1.00800           0
     25861 MEMB     195      POPC     C316     CTL3    -0.270000       12.0110           0
     25862 MEMB     195      POPC     H16X     HAL3     0.900000E-01   1.00800           0
     25863 MEMB     195      POPC     H16Y     HAL3     0.900000E-01   1.00800           0
     25864 MEMB     195      POPC     H16Z     HAL3     0.900000E-01   1.00800           0
     25865 MEMB     196      POPC     N        NTL     -0.600000       14.0070           0
     25866 MEMB     196      POPC     C12      CTL2    -0.100000       12.0110           0
     25867 MEMB     196      POPC     H12A     HL       0.250000       1.00800           0
     25868 MEMB     196      POPC     H12B     HL       0.250000       1.00800           0
     25869 MEMB     196      POPC     C13      CTL5    -0.350000       12.0110           0
     25870 MEMB     196      POPC     H13A     HL       0.250000       1.00800           0
     25871 MEMB     196      POPC     H13B     HL       0.250000       1.00800           0
     25872 MEMB     196      POPC     H13C     HL       0.250000       1.00800           0
     25873 MEMB     196      POPC     C14      CTL5    -0.350000       12.0110           0
     25874 MEMB     196      POPC     H14A     HL       0.250000       1.00800           0
     25875 MEMB     196      POPC     H14B     HL       0.250000       1.00800           0
     25876 MEMB     196      POPC     H14C     HL       0.250000       1.00800           0
     25877 MEMB     196      POPC     C15      CTL5    -0.350000       12.0110           0
     25878 MEMB     196      POPC     H15A     HL       0.250000       1.00800           0
     25879 MEMB     196      POPC     H15B     HL       0.250000       1.00800           0
     25880 MEMB     196      POPC     H15C     HL       0.250000       1.00800           0
     25881 MEMB     196      POPC     C11      CTL2    -0.800000E-01   12.0110           0
     25882 MEMB     196      POPC     H11A     HAL2     0.900000E-01   1.00800           0
     25883 MEMB     196      POPC     H11B     HAL2     0.900000E-01   1.00800           0
     25884 MEMB     196      POPC     P        PL        1.50000       30.9740           0
     25885 MEMB     196      POPC     O13      O2L     -0.780000       15.9994           0
     25886 MEMB     196      POPC     O14      O2L     -0.780000       15.9994           0
     25887 MEMB     196      POPC     O12      OSLP    -0.570000       15.9994           0
     25888 MEMB     196      POPC     O11      OSLP    -0.570000       15.9994           0
     25889 MEMB     196      POPC     C1       CTL2    -0.800000E-01   12.0110           0
     25890 MEMB     196      POPC     HA       HAL2     0.900000E-01   1.00800           0
     25891 MEMB     196      POPC     HB       HAL2     0.900000E-01   1.00800           0
     25892 MEMB     196      POPC     C2       CTL1     0.170000       12.0110           0
     25893 MEMB     196      POPC     HS       HAL1     0.900000E-01   1.00800           0
     25894 MEMB     196      POPC     O21      OSL     -0.490000       15.9994           0
     25895 MEMB     196      POPC     C21      CL       0.900000       12.0110           0
     25896 MEMB     196      POPC     O22      OBL     -0.630000       15.9994           0
     25897 MEMB     196      POPC     C22      CTL2    -0.220000       12.0110           0
     25898 MEMB     196      POPC     H2R      HAL2     0.900000E-01   1.00800           0
     25899 MEMB     196      POPC     H2S      HAL2     0.900000E-01   1.00800           0
     25900 MEMB     196      POPC     C3       CTL2     0.800000E-01   12.0110           0
     25901 MEMB     196      POPC     HX       HAL2     0.900000E-01   1.00800           0
     25902 MEMB     196      POPC     HY       HAL2     0.900000E-01   1.00800           0
     25903 MEMB     196      POPC     O31      OSL     -0.490000       15.9994           0
     25904 MEMB     196      POPC     C31      CL       0.900000       12.0110           0
     25905 MEMB     196      POPC     O32      OBL     -0.630000       15.9994           0
     25906 MEMB     196      POPC     C32      CTL2    -0.220000       12.0110           0
     25907 MEMB     196      POPC     H2X      HAL2     0.900000E-01   1.00800           0
     25908 MEMB     196      POPC     H2Y      HAL2     0.900000E-01   1.00800           0
     25909 MEMB     196      POPC     C23      CTL2    -0.180000       12.0110           0
     25910 MEMB     196      POPC     H3R      HAL2     0.900000E-01   1.00800           0
     25911 MEMB     196      POPC     H3S      HAL2     0.900000E-01   1.00800           0
     25912 MEMB     196      POPC     C24      CTL2    -0.180000       12.0110           0
     25913 MEMB     196      POPC     H4R      HAL2     0.900000E-01   1.00800           0
     25914 MEMB     196      POPC     H4S      HAL2     0.900000E-01   1.00800           0
     25915 MEMB     196      POPC     C25      CTL2    -0.180000       12.0110           0
     25916 MEMB     196      POPC     H5R      HAL2     0.900000E-01   1.00800           0
     25917 MEMB     196      POPC     H5S      HAL2     0.900000E-01   1.00800           0
     25918 MEMB     196      POPC     C26      CTL2    -0.180000       12.0110           0
     25919 MEMB     196      POPC     H6R      HAL2     0.900000E-01   1.00800           0
     25920 MEMB     196      POPC     H6S      HAL2     0.900000E-01   1.00800           0
     25921 MEMB     196      POPC     C27      CTL2    -0.180000       12.0110           0
     25922 MEMB     196      POPC     H7R      HAL2     0.900000E-01   1.00800           0
     25923 MEMB     196      POPC     H7S      HAL2     0.900000E-01   1.00800           0
     25924 MEMB     196      POPC     C28      CTL2    -0.180000       12.0110           0
     25925 MEMB     196      POPC     H8R      HAL2     0.900000E-01   1.00800           0
     25926 MEMB     196      POPC     H8S      HAL2     0.900000E-01   1.00800           0
     25927 MEMB     196      POPC     C29      CEL1    -0.150000       12.0110           0
     25928 MEMB     196      POPC     H91      HEL1     0.150000       1.00800           0
     25929 MEMB     196      POPC     C210     CEL1    -0.150000       12.0110           0
     25930 MEMB     196      POPC     H101     HEL1     0.150000       1.00800           0
     25931 MEMB     196      POPC     C211     CTL2    -0.180000       12.0110           0
     25932 MEMB     196      POPC     H11R     HAL2     0.900000E-01   1.00800           0
     25933 MEMB     196      POPC     H11S     HAL2     0.900000E-01   1.00800           0
     25934 MEMB     196      POPC     C212     CTL2    -0.180000       12.0110           0
     25935 MEMB     196      POPC     H12R     HAL2     0.900000E-01   1.00800           0
     25936 MEMB     196      POPC     H12S     HAL2     0.900000E-01   1.00800           0
     25937 MEMB     196      POPC     C213     CTL2    -0.180000       12.0110           0
     25938 MEMB     196      POPC     H13R     HAL2     0.900000E-01   1.00800           0
     25939 MEMB     196      POPC     H13S     HAL2     0.900000E-01   1.00800           0
     25940 MEMB     196      POPC     C214     CTL2    -0.180000       12.0110           0
     25941 MEMB     196      POPC     H14R     HAL2     0.900000E-01   1.00800           0
     25942 MEMB     196      POPC     H14S     HAL2     0.900000E-01   1.00800           0
     25943 MEMB     196      POPC     C215     CTL2    -0.180000       12.0110           0
     25944 MEMB     196      POPC     H15R     HAL2     0.900000E-01   1.00800           0
     25945 MEMB     196      POPC     H15S     HAL2     0.900000E-01   1.00800           0
     25946 MEMB     196      POPC     C216     CTL2    -0.180000       12.0110           0
     25947 MEMB     196      POPC     H16R     HAL2     0.900000E-01   1.00800           0
     25948 MEMB     196      POPC     H16S     HAL2     0.900000E-01   1.00800           0
     25949 MEMB     196      POPC     C217     CTL2    -0.180000       12.0110           0
     25950 MEMB     196      POPC     H17R     HAL2     0.900000E-01   1.00800           0
     25951 MEMB     196      POPC     H17S     HAL2     0.900000E-01   1.00800           0
     25952 MEMB     196      POPC     C218     CTL3    -0.270000       12.0110           0
     25953 MEMB     196      POPC     H18R     HAL3     0.900000E-01   1.00800           0
     25954 MEMB     196      POPC     H18S     HAL3     0.900000E-01   1.00800           0
     25955 MEMB     196      POPC     H18T     HAL3     0.900000E-01   1.00800           0
     25956 MEMB     196      POPC     C33      CTL2    -0.180000       12.0110           0
     25957 MEMB     196      POPC     H3X      HAL2     0.900000E-01   1.00800           0
     25958 MEMB     196      POPC     H3Y      HAL2     0.900000E-01   1.00800           0
     25959 MEMB     196      POPC     C34      CTL2    -0.180000       12.0110           0
     25960 MEMB     196      POPC     H4X      HAL2     0.900000E-01   1.00800           0
     25961 MEMB     196      POPC     H4Y      HAL2     0.900000E-01   1.00800           0
     25962 MEMB     196      POPC     C35      CTL2    -0.180000       12.0110           0
     25963 MEMB     196      POPC     H5X      HAL2     0.900000E-01   1.00800           0
     25964 MEMB     196      POPC     H5Y      HAL2     0.900000E-01   1.00800           0
     25965 MEMB     196      POPC     C36      CTL2    -0.180000       12.0110           0
     25966 MEMB     196      POPC     H6X      HAL2     0.900000E-01   1.00800           0
     25967 MEMB     196      POPC     H6Y      HAL2     0.900000E-01   1.00800           0
     25968 MEMB     196      POPC     C37      CTL2    -0.180000       12.0110           0
     25969 MEMB     196      POPC     H7X      HAL2     0.900000E-01   1.00800           0
     25970 MEMB     196      POPC     H7Y      HAL2     0.900000E-01   1.00800           0
     25971 MEMB     196      POPC     C38      CTL2    -0.180000       12.0110           0
     25972 MEMB     196      POPC     H8X      HAL2     0.900000E-01   1.00800           0
     25973 MEMB     196      POPC     H8Y      HAL2     0.900000E-01   1.00800           0
     25974 MEMB     196      POPC     C39      CTL2    -0.180000       12.0110           0
     25975 MEMB     196      POPC     H9X      HAL2     0.900000E-01   1.00800           0
     25976 MEMB     196      POPC     H9Y      HAL2     0.900000E-01   1.00800           0
     25977 MEMB     196      POPC     C310     CTL2    -0.180000       12.0110           0
     25978 MEMB     196      POPC     H10X     HAL2     0.900000E-01   1.00800           0
     25979 MEMB     196      POPC     H10Y     HAL2     0.900000E-01   1.00800           0
     25980 MEMB     196      POPC     C311     CTL2    -0.180000       12.0110           0
     25981 MEMB     196      POPC     H11X     HAL2     0.900000E-01   1.00800           0
     25982 MEMB     196      POPC     H11Y     HAL2     0.900000E-01   1.00800           0
     25983 MEMB     196      POPC     C312     CTL2    -0.180000       12.0110           0
     25984 MEMB     196      POPC     H12X     HAL2     0.900000E-01   1.00800           0
     25985 MEMB     196      POPC     H12Y     HAL2     0.900000E-01   1.00800           0
     25986 MEMB     196      POPC     C313     CTL2    -0.180000       12.0110           0
     25987 MEMB     196      POPC     H13X     HAL2     0.900000E-01   1.00800           0
     25988 MEMB     196      POPC     H13Y     HAL2     0.900000E-01   1.00800           0
     25989 MEMB     196      POPC     C314     CTL2    -0.180000       12.0110           0
     25990 MEMB     196      POPC     H14X     HAL2     0.900000E-01   1.00800           0
     25991 MEMB     196      POPC     H14Y     HAL2     0.900000E-01   1.00800           0
     25992 MEMB     196      POPC     C315     CTL2    -0.180000       12.0110           0
     25993 MEMB     196      POPC     H15X     HAL2     0.900000E-01   1.00800           0
     25994 MEMB     196      POPC     H15Y     HAL2     0.900000E-01   1.00800           0
     25995 MEMB     196      POPC     C316     CTL3    -0.270000       12.0110           0
     25996 MEMB     196      POPC     H16X     HAL3     0.900000E-01   1.00800           0
     25997 MEMB     196      POPC     H16Y     HAL3     0.900000E-01   1.00800           0
     25998 MEMB     196      POPC     H16Z     HAL3     0.900000E-01   1.00800           0
     25999 MEMB     197      POPS     N        NH3L    -0.300000       14.0070           0
     26000 MEMB     197      POPS     HN1      HCL      0.330000       1.00800           0
     26001 MEMB     197      POPS     HN2      HCL      0.330000       1.00800           0
     26002 MEMB     197      POPS     HN3      HCL      0.330000       1.00800           0
     26003 MEMB     197      POPS     C12      CTL1     0.210000       12.0110           0
     26004 MEMB     197      POPS     H12A     HBL      0.100000       1.00800           0
     26005 MEMB     197      POPS     C13      CCL      0.340000       12.0110           0
     26006 MEMB     197      POPS     O13A     OCL     -0.670000       15.9994           0
     26007 MEMB     197      POPS     O13B     OCL     -0.670000       15.9994           0
     26008 MEMB     197      POPS     C11      CTL2    -0.800000E-01   12.0110           0
     26009 MEMB     197      POPS     H11A     HAL2     0.900000E-01   1.00800           0
     26010 MEMB     197      POPS     H11B     HAL2     0.900000E-01   1.00800           0
     26011 MEMB     197      POPS     P        PL        1.50000       30.9740           0
     26012 MEMB     197      POPS     O13      O2L     -0.780000       15.9994           0
     26013 MEMB     197      POPS     O14      O2L     -0.780000       15.9994           0
     26014 MEMB     197      POPS     O12      OSLP    -0.570000       15.9994           0
     26015 MEMB     197      POPS     O11      OSLP    -0.570000       15.9994           0
     26016 MEMB     197      POPS     C1       CTL2    -0.800000E-01   12.0110           0
     26017 MEMB     197      POPS     HA       HAL2     0.900000E-01   1.00800           0
     26018 MEMB     197      POPS     HB       HAL2     0.900000E-01   1.00800           0
     26019 MEMB     197      POPS     C2       CTL1     0.170000       12.0110           0
     26020 MEMB     197      POPS     HS       HAL1     0.900000E-01   1.00800           0
     26021 MEMB     197      POPS     O21      OSL     -0.490000       15.9994           0
     26022 MEMB     197      POPS     C21      CL       0.900000       12.0110           0
     26023 MEMB     197      POPS     O22      OBL     -0.630000       15.9994           0
     26024 MEMB     197      POPS     C22      CTL2    -0.220000       12.0110           0
     26025 MEMB     197      POPS     H2R      HAL2     0.900000E-01   1.00800           0
     26026 MEMB     197      POPS     H2S      HAL2     0.900000E-01   1.00800           0
     26027 MEMB     197      POPS     C3       CTL2     0.800000E-01   12.0110           0
     26028 MEMB     197      POPS     HX       HAL2     0.900000E-01   1.00800           0
     26029 MEMB     197      POPS     HY       HAL2     0.900000E-01   1.00800           0
     26030 MEMB     197      POPS     O31      OSL     -0.490000       15.9994           0
     26031 MEMB     197      POPS     C31      CL       0.900000       12.0110           0
     26032 MEMB     197      POPS     O32      OBL     -0.630000       15.9994           0
     26033 MEMB     197      POPS     C32      CTL2    -0.220000       12.0110           0
     26034 MEMB     197      POPS     H2X      HAL2     0.900000E-01   1.00800           0
     26035 MEMB     197      POPS     H2Y      HAL2     0.900000E-01   1.00800           0
     26036 MEMB     197      POPS     C23      CTL2    -0.180000       12.0110           0
     26037 MEMB     197      POPS     H3R      HAL2     0.900000E-01   1.00800           0
     26038 MEMB     197      POPS     H3S      HAL2     0.900000E-01   1.00800           0
     26039 MEMB     197      POPS     C24      CTL2    -0.180000       12.0110           0
     26040 MEMB     197      POPS     H4R      HAL2     0.900000E-01   1.00800           0
     26041 MEMB     197      POPS     H4S      HAL2     0.900000E-01   1.00800           0
     26042 MEMB     197      POPS     C25      CTL2    -0.180000       12.0110           0
     26043 MEMB     197      POPS     H5R      HAL2     0.900000E-01   1.00800           0
     26044 MEMB     197      POPS     H5S      HAL2     0.900000E-01   1.00800           0
     26045 MEMB     197      POPS     C26      CTL2    -0.180000       12.0110           0
     26046 MEMB     197      POPS     H6R      HAL2     0.900000E-01   1.00800           0
     26047 MEMB     197      POPS     H6S      HAL2     0.900000E-01   1.00800           0
     26048 MEMB     197      POPS     C27      CTL2    -0.180000       12.0110           0
     26049 MEMB     197      POPS     H7R      HAL2     0.900000E-01   1.00800           0
     26050 MEMB     197      POPS     H7S      HAL2     0.900000E-01   1.00800           0
     26051 MEMB     197      POPS     C28      CTL2    -0.180000       12.0110           0
     26052 MEMB     197      POPS     H8R      HAL2     0.900000E-01   1.00800           0
     26053 MEMB     197      POPS     H8S      HAL2     0.900000E-01   1.00800           0
     26054 MEMB     197      POPS     C29      CEL1    -0.150000       12.0110           0
     26055 MEMB     197      POPS     H91      HEL1     0.150000       1.00800           0
     26056 MEMB     197      POPS     C210     CEL1    -0.150000       12.0110           0
     26057 MEMB     197      POPS     H101     HEL1     0.150000       1.00800           0
     26058 MEMB     197      POPS     C211     CTL2    -0.180000       12.0110           0
     26059 MEMB     197      POPS     H11R     HAL2     0.900000E-01   1.00800           0
     26060 MEMB     197      POPS     H11S     HAL2     0.900000E-01   1.00800           0
     26061 MEMB     197      POPS     C212     CTL2    -0.180000       12.0110           0
     26062 MEMB     197      POPS     H12R     HAL2     0.900000E-01   1.00800           0
     26063 MEMB     197      POPS     H12S     HAL2     0.900000E-01   1.00800           0
     26064 MEMB     197      POPS     C213     CTL2    -0.180000       12.0110           0
     26065 MEMB     197      POPS     H13R     HAL2     0.900000E-01   1.00800           0
     26066 MEMB     197      POPS     H13S     HAL2     0.900000E-01   1.00800           0
     26067 MEMB     197      POPS     C214     CTL2    -0.180000       12.0110           0
     26068 MEMB     197      POPS     H14R     HAL2     0.900000E-01   1.00800           0
     26069 MEMB     197      POPS     H14S     HAL2     0.900000E-01   1.00800           0
     26070 MEMB     197      POPS     C215     CTL2    -0.180000       12.0110           0
     26071 MEMB     197      POPS     H15R     HAL2     0.900000E-01   1.00800           0
     26072 MEMB     197      POPS     H15S     HAL2     0.900000E-01   1.00800           0
     26073 MEMB     197      POPS     C216     CTL2    -0.180000       12.0110           0
     26074 MEMB     197      POPS     H16R     HAL2     0.900000E-01   1.00800           0
     26075 MEMB     197      POPS     H16S     HAL2     0.900000E-01   1.00800           0
     26076 MEMB     197      POPS     C217     CTL2    -0.180000       12.0110           0
     26077 MEMB     197      POPS     H17R     HAL2     0.900000E-01   1.00800           0
     26078 MEMB     197      POPS     H17S     HAL2     0.900000E-01   1.00800           0
     26079 MEMB     197      POPS     C218     CTL3    -0.270000       12.0110           0
     26080 MEMB     197      POPS     H18R     HAL3     0.900000E-01   1.00800           0
     26081 MEMB     197      POPS     H18S     HAL3     0.900000E-01   1.00800           0
     26082 MEMB     197      POPS     H18T     HAL3     0.900000E-01   1.00800           0
     26083 MEMB     197      POPS     C33      CTL2    -0.180000       12.0110           0
     26084 MEMB     197      POPS     H3X      HAL2     0.900000E-01   1.00800           0
     26085 MEMB     197      POPS     H3Y      HAL2     0.900000E-01   1.00800           0
     26086 MEMB     197      POPS     C34      CTL2    -0.180000       12.0110           0
     26087 MEMB     197      POPS     H4X      HAL2     0.900000E-01   1.00800           0
     26088 MEMB     197      POPS     H4Y      HAL2     0.900000E-01   1.00800           0
     26089 MEMB     197      POPS     C35      CTL2    -0.180000       12.0110           0
     26090 MEMB     197      POPS     H5X      HAL2     0.900000E-01   1.00800           0
     26091 MEMB     197      POPS     H5Y      HAL2     0.900000E-01   1.00800           0
     26092 MEMB     197      POPS     C36      CTL2    -0.180000       12.0110           0
     26093 MEMB     197      POPS     H6X      HAL2     0.900000E-01   1.00800           0
     26094 MEMB     197      POPS     H6Y      HAL2     0.900000E-01   1.00800           0
     26095 MEMB     197      POPS     C37      CTL2    -0.180000       12.0110           0
     26096 MEMB     197      POPS     H7X      HAL2     0.900000E-01   1.00800           0
     26097 MEMB     197      POPS     H7Y      HAL2     0.900000E-01   1.00800           0
     26098 MEMB     197      POPS     C38      CTL2    -0.180000       12.0110           0
     26099 MEMB     197      POPS     H8X      HAL2     0.900000E-01   1.00800           0
     26100 MEMB     197      POPS     H8Y      HAL2     0.900000E-01   1.00800           0
     26101 MEMB     197      POPS     C39      CTL2    -0.180000       12.0110           0
     26102 MEMB     197      POPS     H9X      HAL2     0.900000E-01   1.00800           0
     26103 MEMB     197      POPS     H9Y      HAL2     0.900000E-01   1.00800           0
     26104 MEMB     197      POPS     C310     CTL2    -0.180000       12.0110           0
     26105 MEMB     197      POPS     H10X     HAL2     0.900000E-01   1.00800           0
     26106 MEMB     197      POPS     H10Y     HAL2     0.900000E-01   1.00800           0
     26107 MEMB     197      POPS     C311     CTL2    -0.180000       12.0110           0
     26108 MEMB     197      POPS     H11X     HAL2     0.900000E-01   1.00800           0
     26109 MEMB     197      POPS     H11Y     HAL2     0.900000E-01   1.00800           0
     26110 MEMB     197      POPS     C312     CTL2    -0.180000       12.0110           0
     26111 MEMB     197      POPS     H12X     HAL2     0.900000E-01   1.00800           0
     26112 MEMB     197      POPS     H12Y     HAL2     0.900000E-01   1.00800           0
     26113 MEMB     197      POPS     C313     CTL2    -0.180000       12.0110           0
     26114 MEMB     197      POPS     H13X     HAL2     0.900000E-01   1.00800           0
     26115 MEMB     197      POPS     H13Y     HAL2     0.900000E-01   1.00800           0
     26116 MEMB     197      POPS     C314     CTL2    -0.180000       12.0110           0
     26117 MEMB     197      POPS     H14X     HAL2     0.900000E-01   1.00800           0
     26118 MEMB     197      POPS     H14Y     HAL2     0.900000E-01   1.00800           0
     26119 MEMB     197      POPS     C315     CTL2    -0.180000       12.0110           0
     26120 MEMB     197      POPS     H15X     HAL2     0.900000E-01   1.00800           0
     26121 MEMB     197      POPS     H15Y     HAL2     0.900000E-01   1.00800           0
     26122 MEMB     197      POPS     C316     CTL3    -0.270000       12.0110           0
     26123 MEMB     197      POPS     H16X     HAL3     0.900000E-01   1.00800           0
     26124 MEMB     197      POPS     H16Y     HAL3     0.900000E-01   1.00800           0
     26125 MEMB     197      POPS     H16Z     HAL3     0.900000E-01   1.00800           0
     26126 MEMB     198      POPC     N        NTL     -0.600000       14.0070           0
     26127 MEMB     198      POPC     C12      CTL2    -0.100000       12.0110           0
     26128 MEMB     198      POPC     H12A     HL       0.250000       1.00800           0
     26129 MEMB     198      POPC     H12B     HL       0.250000       1.00800           0
     26130 MEMB     198      POPC     C13      CTL5    -0.350000       12.0110           0
     26131 MEMB     198      POPC     H13A     HL       0.250000       1.00800           0
     26132 MEMB     198      POPC     H13B     HL       0.250000       1.00800           0
     26133 MEMB     198      POPC     H13C     HL       0.250000       1.00800           0
     26134 MEMB     198      POPC     C14      CTL5    -0.350000       12.0110           0
     26135 MEMB     198      POPC     H14A     HL       0.250000       1.00800           0
     26136 MEMB     198      POPC     H14B     HL       0.250000       1.00800           0
     26137 MEMB     198      POPC     H14C     HL       0.250000       1.00800           0
     26138 MEMB     198      POPC     C15      CTL5    -0.350000       12.0110           0
     26139 MEMB     198      POPC     H15A     HL       0.250000       1.00800           0
     26140 MEMB     198      POPC     H15B     HL       0.250000       1.00800           0
     26141 MEMB     198      POPC     H15C     HL       0.250000       1.00800           0
     26142 MEMB     198      POPC     C11      CTL2    -0.800000E-01   12.0110           0
     26143 MEMB     198      POPC     H11A     HAL2     0.900000E-01   1.00800           0
     26144 MEMB     198      POPC     H11B     HAL2     0.900000E-01   1.00800           0
     26145 MEMB     198      POPC     P        PL        1.50000       30.9740           0
     26146 MEMB     198      POPC     O13      O2L     -0.780000       15.9994           0
     26147 MEMB     198      POPC     O14      O2L     -0.780000       15.9994           0
     26148 MEMB     198      POPC     O12      OSLP    -0.570000       15.9994           0
     26149 MEMB     198      POPC     O11      OSLP    -0.570000       15.9994           0
     26150 MEMB     198      POPC     C1       CTL2    -0.800000E-01   12.0110           0
     26151 MEMB     198      POPC     HA       HAL2     0.900000E-01   1.00800           0
     26152 MEMB     198      POPC     HB       HAL2     0.900000E-01   1.00800           0
     26153 MEMB     198      POPC     C2       CTL1     0.170000       12.0110           0
     26154 MEMB     198      POPC     HS       HAL1     0.900000E-01   1.00800           0
     26155 MEMB     198      POPC     O21      OSL     -0.490000       15.9994           0
     26156 MEMB     198      POPC     C21      CL       0.900000       12.0110           0
     26157 MEMB     198      POPC     O22      OBL     -0.630000       15.9994           0
     26158 MEMB     198      POPC     C22      CTL2    -0.220000       12.0110           0
     26159 MEMB     198      POPC     H2R      HAL2     0.900000E-01   1.00800           0
     26160 MEMB     198      POPC     H2S      HAL2     0.900000E-01   1.00800           0
     26161 MEMB     198      POPC     C3       CTL2     0.800000E-01   12.0110           0
     26162 MEMB     198      POPC     HX       HAL2     0.900000E-01   1.00800           0
     26163 MEMB     198      POPC     HY       HAL2     0.900000E-01   1.00800           0
     26164 MEMB     198      POPC     O31      OSL     -0.490000       15.9994           0
     26165 MEMB     198      POPC     C31      CL       0.900000       12.0110           0
     26166 MEMB     198      POPC     O32      OBL     -0.630000       15.9994           0
     26167 MEMB     198      POPC     C32      CTL2    -0.220000       12.0110           0
     26168 MEMB     198      POPC     H2X      HAL2     0.900000E-01   1.00800           0
     26169 MEMB     198      POPC     H2Y      HAL2     0.900000E-01   1.00800           0
     26170 MEMB     198      POPC     C23      CTL2    -0.180000       12.0110           0
     26171 MEMB     198      POPC     H3R      HAL2     0.900000E-01   1.00800           0
     26172 MEMB     198      POPC     H3S      HAL2     0.900000E-01   1.00800           0
     26173 MEMB     198      POPC     C24      CTL2    -0.180000       12.0110           0
     26174 MEMB     198      POPC     H4R      HAL2     0.900000E-01   1.00800           0
     26175 MEMB     198      POPC     H4S      HAL2     0.900000E-01   1.00800           0
     26176 MEMB     198      POPC     C25      CTL2    -0.180000       12.0110           0
     26177 MEMB     198      POPC     H5R      HAL2     0.900000E-01   1.00800           0
     26178 MEMB     198      POPC     H5S      HAL2     0.900000E-01   1.00800           0
     26179 MEMB     198      POPC     C26      CTL2    -0.180000       12.0110           0
     26180 MEMB     198      POPC     H6R      HAL2     0.900000E-01   1.00800           0
     26181 MEMB     198      POPC     H6S      HAL2     0.900000E-01   1.00800           0
     26182 MEMB     198      POPC     C27      CTL2    -0.180000       12.0110           0
     26183 MEMB     198      POPC     H7R      HAL2     0.900000E-01   1.00800           0
     26184 MEMB     198      POPC     H7S      HAL2     0.900000E-01   1.00800           0
     26185 MEMB     198      POPC     C28      CTL2    -0.180000       12.0110           0
     26186 MEMB     198      POPC     H8R      HAL2     0.900000E-01   1.00800           0
     26187 MEMB     198      POPC     H8S      HAL2     0.900000E-01   1.00800           0
     26188 MEMB     198      POPC     C29      CEL1    -0.150000       12.0110           0
     26189 MEMB     198      POPC     H91      HEL1     0.150000       1.00800           0
     26190 MEMB     198      POPC     C210     CEL1    -0.150000       12.0110           0
     26191 MEMB     198      POPC     H101     HEL1     0.150000       1.00800           0
     26192 MEMB     198      POPC     C211     CTL2    -0.180000       12.0110           0
     26193 MEMB     198      POPC     H11R     HAL2     0.900000E-01   1.00800           0
     26194 MEMB     198      POPC     H11S     HAL2     0.900000E-01   1.00800           0
     26195 MEMB     198      POPC     C212     CTL2    -0.180000       12.0110           0
     26196 MEMB     198      POPC     H12R     HAL2     0.900000E-01   1.00800           0
     26197 MEMB     198      POPC     H12S     HAL2     0.900000E-01   1.00800           0
     26198 MEMB     198      POPC     C213     CTL2    -0.180000       12.0110           0
     26199 MEMB     198      POPC     H13R     HAL2     0.900000E-01   1.00800           0
     26200 MEMB     198      POPC     H13S     HAL2     0.900000E-01   1.00800           0
     26201 MEMB     198      POPC     C214     CTL2    -0.180000       12.0110           0
     26202 MEMB     198      POPC     H14R     HAL2     0.900000E-01   1.00800           0
     26203 MEMB     198      POPC     H14S     HAL2     0.900000E-01   1.00800           0
     26204 MEMB     198      POPC     C215     CTL2    -0.180000       12.0110           0
     26205 MEMB     198      POPC     H15R     HAL2     0.900000E-01   1.00800           0
     26206 MEMB     198      POPC     H15S     HAL2     0.900000E-01   1.00800           0
     26207 MEMB     198      POPC     C216     CTL2    -0.180000       12.0110           0
     26208 MEMB     198      POPC     H16R     HAL2     0.900000E-01   1.00800           0
     26209 MEMB     198      POPC     H16S     HAL2     0.900000E-01   1.00800           0
     26210 MEMB     198      POPC     C217     CTL2    -0.180000       12.0110           0
     26211 MEMB     198      POPC     H17R     HAL2     0.900000E-01   1.00800           0
     26212 MEMB     198      POPC     H17S     HAL2     0.900000E-01   1.00800           0
     26213 MEMB     198      POPC     C218     CTL3    -0.270000       12.0110           0
     26214 MEMB     198      POPC     H18R     HAL3     0.900000E-01   1.00800           0
     26215 MEMB     198      POPC     H18S     HAL3     0.900000E-01   1.00800           0
     26216 MEMB     198      POPC     H18T     HAL3     0.900000E-01   1.00800           0
     26217 MEMB     198      POPC     C33      CTL2    -0.180000       12.0110           0
     26218 MEMB     198      POPC     H3X      HAL2     0.900000E-01   1.00800           0
     26219 MEMB     198      POPC     H3Y      HAL2     0.900000E-01   1.00800           0
     26220 MEMB     198      POPC     C34      CTL2    -0.180000       12.0110           0
     26221 MEMB     198      POPC     H4X      HAL2     0.900000E-01   1.00800           0
     26222 MEMB     198      POPC     H4Y      HAL2     0.900000E-01   1.00800           0
     26223 MEMB     198      POPC     C35      CTL2    -0.180000       12.0110           0
     26224 MEMB     198      POPC     H5X      HAL2     0.900000E-01   1.00800           0
     26225 MEMB     198      POPC     H5Y      HAL2     0.900000E-01   1.00800           0
     26226 MEMB     198      POPC     C36      CTL2    -0.180000       12.0110           0
     26227 MEMB     198      POPC     H6X      HAL2     0.900000E-01   1.00800           0
     26228 MEMB     198      POPC     H6Y      HAL2     0.900000E-01   1.00800           0
     26229 MEMB     198      POPC     C37      CTL2    -0.180000       12.0110           0
     26230 MEMB     198      POPC     H7X      HAL2     0.900000E-01   1.00800           0
     26231 MEMB     198      POPC     H7Y      HAL2     0.900000E-01   1.00800           0
     26232 MEMB     198      POPC     C38      CTL2    -0.180000       12.0110           0
     26233 MEMB     198      POPC     H8X      HAL2     0.900000E-01   1.00800           0
     26234 MEMB     198      POPC     H8Y      HAL2     0.900000E-01   1.00800           0
     26235 MEMB     198      POPC     C39      CTL2    -0.180000       12.0110           0
     26236 MEMB     198      POPC     H9X      HAL2     0.900000E-01   1.00800           0
     26237 MEMB     198      POPC     H9Y      HAL2     0.900000E-01   1.00800           0
     26238 MEMB     198      POPC     C310     CTL2    -0.180000       12.0110           0
     26239 MEMB     198      POPC     H10X     HAL2     0.900000E-01   1.00800           0
     26240 MEMB     198      POPC     H10Y     HAL2     0.900000E-01   1.00800           0
     26241 MEMB     198      POPC     C311     CTL2    -0.180000       12.0110           0
     26242 MEMB     198      POPC     H11X     HAL2     0.900000E-01   1.00800           0
     26243 MEMB     198      POPC     H11Y     HAL2     0.900000E-01   1.00800           0
     26244 MEMB     198      POPC     C312     CTL2    -0.180000       12.0110           0
     26245 MEMB     198      POPC     H12X     HAL2     0.900000E-01   1.00800           0
     26246 MEMB     198      POPC     H12Y     HAL2     0.900000E-01   1.00800           0
     26247 MEMB     198      POPC     C313     CTL2    -0.180000       12.0110           0
     26248 MEMB     198      POPC     H13X     HAL2     0.900000E-01   1.00800           0
     26249 MEMB     198      POPC     H13Y     HAL2     0.900000E-01   1.00800           0
     26250 MEMB     198      POPC     C314     CTL2    -0.180000       12.0110           0
     26251 MEMB     198      POPC     H14X     HAL2     0.900000E-01   1.00800           0
     26252 MEMB     198      POPC     H14Y     HAL2     0.900000E-01   1.00800           0
     26253 MEMB     198      POPC     C315     CTL2    -0.180000       12.0110           0
     26254 MEMB     198      POPC     H15X     HAL2     0.900000E-01   1.00800           0
     26255 MEMB     198      POPC     H15Y     HAL2     0.900000E-01   1.00800           0
     26256 MEMB     198      POPC     C316     CTL3    -0.270000       12.0110           0
     26257 MEMB     198      POPC     H16X     HAL3     0.900000E-01   1.00800           0
     26258 MEMB     198      POPC     H16Y     HAL3     0.900000E-01   1.00800           0
     26259 MEMB     198      POPC     H16Z     HAL3     0.900000E-01   1.00800           0
     26260 MEMB     199      POPS     N        NH3L    -0.300000       14.0070           0
     26261 MEMB     199      POPS     HN1      HCL      0.330000       1.00800           0
     26262 MEMB     199      POPS     HN2      HCL      0.330000       1.00800           0
     26263 MEMB     199      POPS     HN3      HCL      0.330000       1.00800           0
     26264 MEMB     199      POPS     C12      CTL1     0.210000       12.0110           0
     26265 MEMB     199      POPS     H12A     HBL      0.100000       1.00800           0
     26266 MEMB     199      POPS     C13      CCL      0.340000       12.0110           0
     26267 MEMB     199      POPS     O13A     OCL     -0.670000       15.9994           0
     26268 MEMB     199      POPS     O13B     OCL     -0.670000       15.9994           0
     26269 MEMB     199      POPS     C11      CTL2    -0.800000E-01   12.0110           0
     26270 MEMB     199      POPS     H11A     HAL2     0.900000E-01   1.00800           0
     26271 MEMB     199      POPS     H11B     HAL2     0.900000E-01   1.00800           0
     26272 MEMB     199      POPS     P        PL        1.50000       30.9740           0
     26273 MEMB     199      POPS     O13      O2L     -0.780000       15.9994           0
     26274 MEMB     199      POPS     O14      O2L     -0.780000       15.9994           0
     26275 MEMB     199      POPS     O12      OSLP    -0.570000       15.9994           0
     26276 MEMB     199      POPS     O11      OSLP    -0.570000       15.9994           0
     26277 MEMB     199      POPS     C1       CTL2    -0.800000E-01   12.0110           0
     26278 MEMB     199      POPS     HA       HAL2     0.900000E-01   1.00800           0
     26279 MEMB     199      POPS     HB       HAL2     0.900000E-01   1.00800           0
     26280 MEMB     199      POPS     C2       CTL1     0.170000       12.0110           0
     26281 MEMB     199      POPS     HS       HAL1     0.900000E-01   1.00800           0
     26282 MEMB     199      POPS     O21      OSL     -0.490000       15.9994           0
     26283 MEMB     199      POPS     C21      CL       0.900000       12.0110           0
     26284 MEMB     199      POPS     O22      OBL     -0.630000       15.9994           0
     26285 MEMB     199      POPS     C22      CTL2    -0.220000       12.0110           0
     26286 MEMB     199      POPS     H2R      HAL2     0.900000E-01   1.00800           0
     26287 MEMB     199      POPS     H2S      HAL2     0.900000E-01   1.00800           0
     26288 MEMB     199      POPS     C3       CTL2     0.800000E-01   12.0110           0
     26289 MEMB     199      POPS     HX       HAL2     0.900000E-01   1.00800           0
     26290 MEMB     199      POPS     HY       HAL2     0.900000E-01   1.00800           0
     26291 MEMB     199      POPS     O31      OSL     -0.490000       15.9994           0
     26292 MEMB     199      POPS     C31      CL       0.900000       12.0110           0
     26293 MEMB     199      POPS     O32      OBL     -0.630000       15.9994           0
     26294 MEMB     199      POPS     C32      CTL2    -0.220000       12.0110           0
     26295 MEMB     199      POPS     H2X      HAL2     0.900000E-01   1.00800           0
     26296 MEMB     199      POPS     H2Y      HAL2     0.900000E-01   1.00800           0
     26297 MEMB     199      POPS     C23      CTL2    -0.180000       12.0110           0
     26298 MEMB     199      POPS     H3R      HAL2     0.900000E-01   1.00800           0
     26299 MEMB     199      POPS     H3S      HAL2     0.900000E-01   1.00800           0
     26300 MEMB     199      POPS     C24      CTL2    -0.180000       12.0110           0
     26301 MEMB     199      POPS     H4R      HAL2     0.900000E-01   1.00800           0
     26302 MEMB     199      POPS     H4S      HAL2     0.900000E-01   1.00800           0
     26303 MEMB     199      POPS     C25      CTL2    -0.180000       12.0110           0
     26304 MEMB     199      POPS     H5R      HAL2     0.900000E-01   1.00800           0
     26305 MEMB     199      POPS     H5S      HAL2     0.900000E-01   1.00800           0
     26306 MEMB     199      POPS     C26      CTL2    -0.180000       12.0110           0
     26307 MEMB     199      POPS     H6R      HAL2     0.900000E-01   1.00800           0
     26308 MEMB     199      POPS     H6S      HAL2     0.900000E-01   1.00800           0
     26309 MEMB     199      POPS     C27      CTL2    -0.180000       12.0110           0
     26310 MEMB     199      POPS     H7R      HAL2     0.900000E-01   1.00800           0
     26311 MEMB     199      POPS     H7S      HAL2     0.900000E-01   1.00800           0
     26312 MEMB     199      POPS     C28      CTL2    -0.180000       12.0110           0
     26313 MEMB     199      POPS     H8R      HAL2     0.900000E-01   1.00800           0
     26314 MEMB     199      POPS     H8S      HAL2     0.900000E-01   1.00800           0
     26315 MEMB     199      POPS     C29      CEL1    -0.150000       12.0110           0
     26316 MEMB     199      POPS     H91      HEL1     0.150000       1.00800           0
     26317 MEMB     199      POPS     C210     CEL1    -0.150000       12.0110           0
     26318 MEMB     199      POPS     H101     HEL1     0.150000       1.00800           0
     26319 MEMB     199      POPS     C211     CTL2    -0.180000       12.0110           0
     26320 MEMB     199      POPS     H11R     HAL2     0.900000E-01   1.00800           0
     26321 MEMB     199      POPS     H11S     HAL2     0.900000E-01   1.00800           0
     26322 MEMB     199      POPS     C212     CTL2    -0.180000       12.0110           0
     26323 MEMB     199      POPS     H12R     HAL2     0.900000E-01   1.00800           0
     26324 MEMB     199      POPS     H12S     HAL2     0.900000E-01   1.00800           0
     26325 MEMB     199      POPS     C213     CTL2    -0.180000       12.0110           0
     26326 MEMB     199      POPS     H13R     HAL2     0.900000E-01   1.00800           0
     26327 MEMB     199      POPS     H13S     HAL2     0.900000E-01   1.00800           0
     26328 MEMB     199      POPS     C214     CTL2    -0.180000       12.0110           0
     26329 MEMB     199      POPS     H14R     HAL2     0.900000E-01   1.00800           0
     26330 MEMB     199      POPS     H14S     HAL2     0.900000E-01   1.00800           0
     26331 MEMB     199      POPS     C215     CTL2    -0.180000       12.0110           0
     26332 MEMB     199      POPS     H15R     HAL2     0.900000E-01   1.00800           0
     26333 MEMB     199      POPS     H15S     HAL2     0.900000E-01   1.00800           0
     26334 MEMB     199      POPS     C216     CTL2    -0.180000       12.0110           0
     26335 MEMB     199      POPS     H16R     HAL2     0.900000E-01   1.00800           0
     26336 MEMB     199      POPS     H16S     HAL2     0.900000E-01   1.00800           0
     26337 MEMB     199      POPS     C217     CTL2    -0.180000       12.0110           0
     26338 MEMB     199      POPS     H17R     HAL2     0.900000E-01   1.00800           0
     26339 MEMB     199      POPS     H17S     HAL2     0.900000E-01   1.00800           0
     26340 MEMB     199      POPS     C218     CTL3    -0.270000       12.0110           0
     26341 MEMB     199      POPS     H18R     HAL3     0.900000E-01   1.00800           0
     26342 MEMB     199      POPS     H18S     HAL3     0.900000E-01   1.00800           0
     26343 MEMB     199      POPS     H18T     HAL3     0.900000E-01   1.00800           0
     26344 MEMB     199      POPS     C33      CTL2    -0.180000       12.0110           0
     26345 MEMB     199      POPS     H3X      HAL2     0.900000E-01   1.00800           0
     26346 MEMB     199      POPS     H3Y      HAL2     0.900000E-01   1.00800           0
     26347 MEMB     199      POPS     C34      CTL2    -0.180000       12.0110           0
     26348 MEMB     199      POPS     H4X      HAL2     0.900000E-01   1.00800           0
     26349 MEMB     199      POPS     H4Y      HAL2     0.900000E-01   1.00800           0
     26350 MEMB     199      POPS     C35      CTL2    -0.180000       12.0110           0
     26351 MEMB     199      POPS     H5X      HAL2     0.900000E-01   1.00800           0
     26352 MEMB     199      POPS     H5Y      HAL2     0.900000E-01   1.00800           0
     26353 MEMB     199      POPS     C36      CTL2    -0.180000       12.0110           0
     26354 MEMB     199      POPS     H6X      HAL2     0.900000E-01   1.00800           0
     26355 MEMB     199      POPS     H6Y      HAL2     0.900000E-01   1.00800           0
     26356 MEMB     199      POPS     C37      CTL2    -0.180000       12.0110           0
     26357 MEMB     199      POPS     H7X      HAL2     0.900000E-01   1.00800           0
     26358 MEMB     199      POPS     H7Y      HAL2     0.900000E-01   1.00800           0
     26359 MEMB     199      POPS     C38      CTL2    -0.180000       12.0110           0
     26360 MEMB     199      POPS     H8X      HAL2     0.900000E-01   1.00800           0
     26361 MEMB     199      POPS     H8Y      HAL2     0.900000E-01   1.00800           0
     26362 MEMB     199      POPS     C39      CTL2    -0.180000       12.0110           0
     26363 MEMB     199      POPS     H9X      HAL2     0.900000E-01   1.00800           0
     26364 MEMB     199      POPS     H9Y      HAL2     0.900000E-01   1.00800           0
     26365 MEMB     199      POPS     C310     CTL2    -0.180000       12.0110           0
     26366 MEMB     199      POPS     H10X     HAL2     0.900000E-01   1.00800           0
     26367 MEMB     199      POPS     H10Y     HAL2     0.900000E-01   1.00800           0
     26368 MEMB     199      POPS     C311     CTL2    -0.180000       12.0110           0
     26369 MEMB     199      POPS     H11X     HAL2     0.900000E-01   1.00800           0
     26370 MEMB     199      POPS     H11Y     HAL2     0.900000E-01   1.00800           0
     26371 MEMB     199      POPS     C312     CTL2    -0.180000       12.0110           0
     26372 MEMB     199      POPS     H12X     HAL2     0.900000E-01   1.00800           0
     26373 MEMB     199      POPS     H12Y     HAL2     0.900000E-01   1.00800           0
     26374 MEMB     199      POPS     C313     CTL2    -0.180000       12.0110           0
     26375 MEMB     199      POPS     H13X     HAL2     0.900000E-01   1.00800           0
     26376 MEMB     199      POPS     H13Y     HAL2     0.900000E-01   1.00800           0
     26377 MEMB     199      POPS     C314     CTL2    -0.180000       12.0110           0
     26378 MEMB     199      POPS     H14X     HAL2     0.900000E-01   1.00800           0
     26379 MEMB     199      POPS     H14Y     HAL2     0.900000E-01   1.00800           0
     26380 MEMB     199      POPS     C315     CTL2    -0.180000       12.0110           0
     26381 MEMB     199      POPS     H15X     HAL2     0.900000E-01   1.00800           0
     26382 MEMB     199      POPS     H15Y     HAL2     0.900000E-01   1.00800           0
     26383 MEMB     199      POPS     C316     CTL3    -0.270000       12.0110           0
     26384 MEMB     199      POPS     H16X     HAL3     0.900000E-01   1.00800           0
     26385 MEMB     199      POPS     H16Y     HAL3     0.900000E-01   1.00800           0
     26386 MEMB     199      POPS     H16Z     HAL3     0.900000E-01   1.00800           0
     26387 MEMB     200      POPS     N        NH3L    -0.300000       14.0070           0
     26388 MEMB     200      POPS     HN1      HCL      0.330000       1.00800           0
     26389 MEMB     200      POPS     HN2      HCL      0.330000       1.00800           0
     26390 MEMB     200      POPS     HN3      HCL      0.330000       1.00800           0
     26391 MEMB     200      POPS     C12      CTL1     0.210000       12.0110           0
     26392 MEMB     200      POPS     H12A     HBL      0.100000       1.00800           0
     26393 MEMB     200      POPS     C13      CCL      0.340000       12.0110           0
     26394 MEMB     200      POPS     O13A     OCL     -0.670000       15.9994           0
     26395 MEMB     200      POPS     O13B     OCL     -0.670000       15.9994           0
     26396 MEMB     200      POPS     C11      CTL2    -0.800000E-01   12.0110           0
     26397 MEMB     200      POPS     H11A     HAL2     0.900000E-01   1.00800           0
     26398 MEMB     200      POPS     H11B     HAL2     0.900000E-01   1.00800           0
     26399 MEMB     200      POPS     P        PL        1.50000       30.9740           0
     26400 MEMB     200      POPS     O13      O2L     -0.780000       15.9994           0
     26401 MEMB     200      POPS     O14      O2L     -0.780000       15.9994           0
     26402 MEMB     200      POPS     O12      OSLP    -0.570000       15.9994           0
     26403 MEMB     200      POPS     O11      OSLP    -0.570000       15.9994           0
     26404 MEMB     200      POPS     C1       CTL2    -0.800000E-01   12.0110           0
     26405 MEMB     200      POPS     HA       HAL2     0.900000E-01   1.00800           0
     26406 MEMB     200      POPS     HB       HAL2     0.900000E-01   1.00800           0
     26407 MEMB     200      POPS     C2       CTL1     0.170000       12.0110           0
     26408 MEMB     200      POPS     HS       HAL1     0.900000E-01   1.00800           0
     26409 MEMB     200      POPS     O21      OSL     -0.490000       15.9994           0
     26410 MEMB     200      POPS     C21      CL       0.900000       12.0110           0
     26411 MEMB     200      POPS     O22      OBL     -0.630000       15.9994           0
     26412 MEMB     200      POPS     C22      CTL2    -0.220000       12.0110           0
     26413 MEMB     200      POPS     H2R      HAL2     0.900000E-01   1.00800           0
     26414 MEMB     200      POPS     H2S      HAL2     0.900000E-01   1.00800           0
     26415 MEMB     200      POPS     C3       CTL2     0.800000E-01   12.0110           0
     26416 MEMB     200      POPS     HX       HAL2     0.900000E-01   1.00800           0
     26417 MEMB     200      POPS     HY       HAL2     0.900000E-01   1.00800           0
     26418 MEMB     200      POPS     O31      OSL     -0.490000       15.9994           0
     26419 MEMB     200      POPS     C31      CL       0.900000       12.0110           0
     26420 MEMB     200      POPS     O32      OBL     -0.630000       15.9994           0
     26421 MEMB     200      POPS     C32      CTL2    -0.220000       12.0110           0
     26422 MEMB     200      POPS     H2X      HAL2     0.900000E-01   1.00800           0
     26423 MEMB     200      POPS     H2Y      HAL2     0.900000E-01   1.00800           0
     26424 MEMB     200      POPS     C23      CTL2    -0.180000       12.0110           0
     26425 MEMB     200      POPS     H3R      HAL2     0.900000E-01   1.00800           0
     26426 MEMB     200      POPS     H3S      HAL2     0.900000E-01   1.00800           0
     26427 MEMB     200      POPS     C24      CTL2    -0.180000       12.0110           0
     26428 MEMB     200      POPS     H4R      HAL2     0.900000E-01   1.00800           0
     26429 MEMB     200      POPS     H4S      HAL2     0.900000E-01   1.00800           0
     26430 MEMB     200      POPS     C25      CTL2    -0.180000       12.0110           0
     26431 MEMB     200      POPS     H5R      HAL2     0.900000E-01   1.00800           0
     26432 MEMB     200      POPS     H5S      HAL2     0.900000E-01   1.00800           0
     26433 MEMB     200      POPS     C26      CTL2    -0.180000       12.0110           0
     26434 MEMB     200      POPS     H6R      HAL2     0.900000E-01   1.00800           0
     26435 MEMB     200      POPS     H6S      HAL2     0.900000E-01   1.00800           0
     26436 MEMB     200      POPS     C27      CTL2    -0.180000       12.0110           0
     26437 MEMB     200      POPS     H7R      HAL2     0.900000E-01   1.00800           0
     26438 MEMB     200      POPS     H7S      HAL2     0.900000E-01   1.00800           0
     26439 MEMB     200      POPS     C28      CTL2    -0.180000       12.0110           0
     26440 MEMB     200      POPS     H8R      HAL2     0.900000E-01   1.00800           0
     26441 MEMB     200      POPS     H8S      HAL2     0.900000E-01   1.00800           0
     26442 MEMB     200      POPS     C29      CEL1    -0.150000       12.0110           0
     26443 MEMB     200      POPS     H91      HEL1     0.150000       1.00800           0
     26444 MEMB     200      POPS     C210     CEL1    -0.150000       12.0110           0
     26445 MEMB     200      POPS     H101     HEL1     0.150000       1.00800           0
     26446 MEMB     200      POPS     C211     CTL2    -0.180000       12.0110           0
     26447 MEMB     200      POPS     H11R     HAL2     0.900000E-01   1.00800           0
     26448 MEMB     200      POPS     H11S     HAL2     0.900000E-01   1.00800           0
     26449 MEMB     200      POPS     C212     CTL2    -0.180000       12.0110           0
     26450 MEMB     200      POPS     H12R     HAL2     0.900000E-01   1.00800           0
     26451 MEMB     200      POPS     H12S     HAL2     0.900000E-01   1.00800           0
     26452 MEMB     200      POPS     C213     CTL2    -0.180000       12.0110           0
     26453 MEMB     200      POPS     H13R     HAL2     0.900000E-01   1.00800           0
     26454 MEMB     200      POPS     H13S     HAL2     0.900000E-01   1.00800           0
     26455 MEMB     200      POPS     C214     CTL2    -0.180000       12.0110           0
     26456 MEMB     200      POPS     H14R     HAL2     0.900000E-01   1.00800           0
     26457 MEMB     200      POPS     H14S     HAL2     0.900000E-01   1.00800           0
     26458 MEMB     200      POPS     C215     CTL2    -0.180000       12.0110           0
     26459 MEMB     200      POPS     H15R     HAL2     0.900000E-01   1.00800           0
     26460 MEMB     200      POPS     H15S     HAL2     0.900000E-01   1.00800           0
     26461 MEMB     200      POPS     C216     CTL2    -0.180000       12.0110           0
     26462 MEMB     200      POPS     H16R     HAL2     0.900000E-01   1.00800           0
     26463 MEMB     200      POPS     H16S     HAL2     0.900000E-01   1.00800           0
     26464 MEMB     200      POPS     C217     CTL2    -0.180000       12.0110           0
     26465 MEMB     200      POPS     H17R     HAL2     0.900000E-01   1.00800           0
     26466 MEMB     200      POPS     H17S     HAL2     0.900000E-01   1.00800           0
     26467 MEMB     200      POPS     C218     CTL3    -0.270000       12.0110           0
     26468 MEMB     200      POPS     H18R     HAL3     0.900000E-01   1.00800           0
     26469 MEMB     200      POPS     H18S     HAL3     0.900000E-01   1.00800           0
     26470 MEMB     200      POPS     H18T     HAL3     0.900000E-01   1.00800           0
     26471 MEMB     200      POPS     C33      CTL2    -0.180000       12.0110           0
     26472 MEMB     200      POPS     H3X      HAL2     0.900000E-01   1.00800           0
     26473 MEMB     200      POPS     H3Y      HAL2     0.900000E-01   1.00800           0
     26474 MEMB     200      POPS     C34      CTL2    -0.180000       12.0110           0
     26475 MEMB     200      POPS     H4X      HAL2     0.900000E-01   1.00800           0
     26476 MEMB     200      POPS     H4Y      HAL2     0.900000E-01   1.00800           0
     26477 MEMB     200      POPS     C35      CTL2    -0.180000       12.0110           0
     26478 MEMB     200      POPS     H5X      HAL2     0.900000E-01   1.00800           0
     26479 MEMB     200      POPS     H5Y      HAL2     0.900000E-01   1.00800           0
     26480 MEMB     200      POPS     C36      CTL2    -0.180000       12.0110           0
     26481 MEMB     200      POPS     H6X      HAL2     0.900000E-01   1.00800           0
     26482 MEMB     200      POPS     H6Y      HAL2     0.900000E-01   1.00800           0
     26483 MEMB     200      POPS     C37      CTL2    -0.180000       12.0110           0
     26484 MEMB     200      POPS     H7X      HAL2     0.900000E-01   1.00800           0
     26485 MEMB     200      POPS     H7Y      HAL2     0.900000E-01   1.00800           0
     26486 MEMB     200      POPS     C38      CTL2    -0.180000       12.0110           0
     26487 MEMB     200      POPS     H8X      HAL2     0.900000E-01   1.00800           0
     26488 MEMB     200      POPS     H8Y      HAL2     0.900000E-01   1.00800           0
     26489 MEMB     200      POPS     C39      CTL2    -0.180000       12.0110           0
     26490 MEMB     200      POPS     H9X      HAL2     0.900000E-01   1.00800           0
     26491 MEMB     200      POPS     H9Y      HAL2     0.900000E-01   1.00800           0
     26492 MEMB     200      POPS     C310     CTL2    -0.180000       12.0110           0
     26493 MEMB     200      POPS     H10X     HAL2     0.900000E-01   1.00800           0
     26494 MEMB     200      POPS     H10Y     HAL2     0.900000E-01   1.00800           0
     26495 MEMB     200      POPS     C311     CTL2    -0.180000       12.0110           0
     26496 MEMB     200      POPS     H11X     HAL2     0.900000E-01   1.00800           0
     26497 MEMB     200      POPS     H11Y     HAL2     0.900000E-01   1.00800           0
     26498 MEMB     200      POPS     C312     CTL2    -0.180000       12.0110           0
     26499 MEMB     200      POPS     H12X     HAL2     0.900000E-01   1.00800           0
     26500 MEMB     200      POPS     H12Y     HAL2     0.900000E-01   1.00800           0
     26501 MEMB     200      POPS     C313     CTL2    -0.180000       12.0110           0
     26502 MEMB     200      POPS     H13X     HAL2     0.900000E-01   1.00800           0
     26503 MEMB     200      POPS     H13Y     HAL2     0.900000E-01   1.00800           0
     26504 MEMB     200      POPS     C314     CTL2    -0.180000       12.0110           0
     26505 MEMB     200      POPS     H14X     HAL2     0.900000E-01   1.00800           0
     26506 MEMB     200      POPS     H14Y     HAL2     0.900000E-01   1.00800           0
     26507 MEMB     200      POPS     C315     CTL2    -0.180000       12.0110           0
     26508 MEMB     200      POPS     H15X     HAL2     0.900000E-01   1.00800           0
     26509 MEMB     200      POPS     H15Y     HAL2     0.900000E-01   1.00800           0
     26510 MEMB     200      POPS     C316     CTL3    -0.270000       12.0110           0
     26511 MEMB     200      POPS     H16X     HAL3     0.900000E-01   1.00800           0
     26512 MEMB     200      POPS     H16Y     HAL3     0.900000E-01   1.00800           0
     26513 MEMB     200      POPS     H16Z     HAL3     0.900000E-01   1.00800           0
     26514 MEMB     201      POPC     N        NTL     -0.600000       14.0070           0
     26515 MEMB     201      POPC     C12      CTL2    -0.100000       12.0110           0
     26516 MEMB     201      POPC     H12A     HL       0.250000       1.00800           0
     26517 MEMB     201      POPC     H12B     HL       0.250000       1.00800           0
     26518 MEMB     201      POPC     C13      CTL5    -0.350000       12.0110           0
     26519 MEMB     201      POPC     H13A     HL       0.250000       1.00800           0
     26520 MEMB     201      POPC     H13B     HL       0.250000       1.00800           0
     26521 MEMB     201      POPC     H13C     HL       0.250000       1.00800           0
     26522 MEMB     201      POPC     C14      CTL5    -0.350000       12.0110           0
     26523 MEMB     201      POPC     H14A     HL       0.250000       1.00800           0
     26524 MEMB     201      POPC     H14B     HL       0.250000       1.00800           0
     26525 MEMB     201      POPC     H14C     HL       0.250000       1.00800           0
     26526 MEMB     201      POPC     C15      CTL5    -0.350000       12.0110           0
     26527 MEMB     201      POPC     H15A     HL       0.250000       1.00800           0
     26528 MEMB     201      POPC     H15B     HL       0.250000       1.00800           0
     26529 MEMB     201      POPC     H15C     HL       0.250000       1.00800           0
     26530 MEMB     201      POPC     C11      CTL2    -0.800000E-01   12.0110           0
     26531 MEMB     201      POPC     H11A     HAL2     0.900000E-01   1.00800           0
     26532 MEMB     201      POPC     H11B     HAL2     0.900000E-01   1.00800           0
     26533 MEMB     201      POPC     P        PL        1.50000       30.9740           0
     26534 MEMB     201      POPC     O13      O2L     -0.780000       15.9994           0
     26535 MEMB     201      POPC     O14      O2L     -0.780000       15.9994           0
     26536 MEMB     201      POPC     O12      OSLP    -0.570000       15.9994           0
     26537 MEMB     201      POPC     O11      OSLP    -0.570000       15.9994           0
     26538 MEMB     201      POPC     C1       CTL2    -0.800000E-01   12.0110           0
     26539 MEMB     201      POPC     HA       HAL2     0.900000E-01   1.00800           0
     26540 MEMB     201      POPC     HB       HAL2     0.900000E-01   1.00800           0
     26541 MEMB     201      POPC     C2       CTL1     0.170000       12.0110           0
     26542 MEMB     201      POPC     HS       HAL1     0.900000E-01   1.00800           0
     26543 MEMB     201      POPC     O21      OSL     -0.490000       15.9994           0
     26544 MEMB     201      POPC     C21      CL       0.900000       12.0110           0
     26545 MEMB     201      POPC     O22      OBL     -0.630000       15.9994           0
     26546 MEMB     201      POPC     C22      CTL2    -0.220000       12.0110           0
     26547 MEMB     201      POPC     H2R      HAL2     0.900000E-01   1.00800           0
     26548 MEMB     201      POPC     H2S      HAL2     0.900000E-01   1.00800           0
     26549 MEMB     201      POPC     C3       CTL2     0.800000E-01   12.0110           0
     26550 MEMB     201      POPC     HX       HAL2     0.900000E-01   1.00800           0
     26551 MEMB     201      POPC     HY       HAL2     0.900000E-01   1.00800           0
     26552 MEMB     201      POPC     O31      OSL     -0.490000       15.9994           0
     26553 MEMB     201      POPC     C31      CL       0.900000       12.0110           0
     26554 MEMB     201      POPC     O32      OBL     -0.630000       15.9994           0
     26555 MEMB     201      POPC     C32      CTL2    -0.220000       12.0110           0
     26556 MEMB     201      POPC     H2X      HAL2     0.900000E-01   1.00800           0
     26557 MEMB     201      POPC     H2Y      HAL2     0.900000E-01   1.00800           0
     26558 MEMB     201      POPC     C23      CTL2    -0.180000       12.0110           0
     26559 MEMB     201      POPC     H3R      HAL2     0.900000E-01   1.00800           0
     26560 MEMB     201      POPC     H3S      HAL2     0.900000E-01   1.00800           0
     26561 MEMB     201      POPC     C24      CTL2    -0.180000       12.0110           0
     26562 MEMB     201      POPC     H4R      HAL2     0.900000E-01   1.00800           0
     26563 MEMB     201      POPC     H4S      HAL2     0.900000E-01   1.00800           0
     26564 MEMB     201      POPC     C25      CTL2    -0.180000       12.0110           0
     26565 MEMB     201      POPC     H5R      HAL2     0.900000E-01   1.00800           0
     26566 MEMB     201      POPC     H5S      HAL2     0.900000E-01   1.00800           0
     26567 MEMB     201      POPC     C26      CTL2    -0.180000       12.0110           0
     26568 MEMB     201      POPC     H6R      HAL2     0.900000E-01   1.00800           0
     26569 MEMB     201      POPC     H6S      HAL2     0.900000E-01   1.00800           0
     26570 MEMB     201      POPC     C27      CTL2    -0.180000       12.0110           0
     26571 MEMB     201      POPC     H7R      HAL2     0.900000E-01   1.00800           0
     26572 MEMB     201      POPC     H7S      HAL2     0.900000E-01   1.00800           0
     26573 MEMB     201      POPC     C28      CTL2    -0.180000       12.0110           0
     26574 MEMB     201      POPC     H8R      HAL2     0.900000E-01   1.00800           0
     26575 MEMB     201      POPC     H8S      HAL2     0.900000E-01   1.00800           0
     26576 MEMB     201      POPC     C29      CEL1    -0.150000       12.0110           0
     26577 MEMB     201      POPC     H91      HEL1     0.150000       1.00800           0
     26578 MEMB     201      POPC     C210     CEL1    -0.150000       12.0110           0
     26579 MEMB     201      POPC     H101     HEL1     0.150000       1.00800           0
     26580 MEMB     201      POPC     C211     CTL2    -0.180000       12.0110           0
     26581 MEMB     201      POPC     H11R     HAL2     0.900000E-01   1.00800           0
     26582 MEMB     201      POPC     H11S     HAL2     0.900000E-01   1.00800           0
     26583 MEMB     201      POPC     C212     CTL2    -0.180000       12.0110           0
     26584 MEMB     201      POPC     H12R     HAL2     0.900000E-01   1.00800           0
     26585 MEMB     201      POPC     H12S     HAL2     0.900000E-01   1.00800           0
     26586 MEMB     201      POPC     C213     CTL2    -0.180000       12.0110           0
     26587 MEMB     201      POPC     H13R     HAL2     0.900000E-01   1.00800           0
     26588 MEMB     201      POPC     H13S     HAL2     0.900000E-01   1.00800           0
     26589 MEMB     201      POPC     C214     CTL2    -0.180000       12.0110           0
     26590 MEMB     201      POPC     H14R     HAL2     0.900000E-01   1.00800           0
     26591 MEMB     201      POPC     H14S     HAL2     0.900000E-01   1.00800           0
     26592 MEMB     201      POPC     C215     CTL2    -0.180000       12.0110           0
     26593 MEMB     201      POPC     H15R     HAL2     0.900000E-01   1.00800           0
     26594 MEMB     201      POPC     H15S     HAL2     0.900000E-01   1.00800           0
     26595 MEMB     201      POPC     C216     CTL2    -0.180000       12.0110           0
     26596 MEMB     201      POPC     H16R     HAL2     0.900000E-01   1.00800           0
     26597 MEMB     201      POPC     H16S     HAL2     0.900000E-01   1.00800           0
     26598 MEMB     201      POPC     C217     CTL2    -0.180000       12.0110           0
     26599 MEMB     201      POPC     H17R     HAL2     0.900000E-01   1.00800           0
     26600 MEMB     201      POPC     H17S     HAL2     0.900000E-01   1.00800           0
     26601 MEMB     201      POPC     C218     CTL3    -0.270000       12.0110           0
     26602 MEMB     201      POPC     H18R     HAL3     0.900000E-01   1.00800           0
     26603 MEMB     201      POPC     H18S     HAL3     0.900000E-01   1.00800           0
     26604 MEMB     201      POPC     H18T     HAL3     0.900000E-01   1.00800           0
     26605 MEMB     201      POPC     C33      CTL2    -0.180000       12.0110           0
     26606 MEMB     201      POPC     H3X      HAL2     0.900000E-01   1.00800           0
     26607 MEMB     201      POPC     H3Y      HAL2     0.900000E-01   1.00800           0
     26608 MEMB     201      POPC     C34      CTL2    -0.180000       12.0110           0
     26609 MEMB     201      POPC     H4X      HAL2     0.900000E-01   1.00800           0
     26610 MEMB     201      POPC     H4Y      HAL2     0.900000E-01   1.00800           0
     26611 MEMB     201      POPC     C35      CTL2    -0.180000       12.0110           0
     26612 MEMB     201      POPC     H5X      HAL2     0.900000E-01   1.00800           0
     26613 MEMB     201      POPC     H5Y      HAL2     0.900000E-01   1.00800           0
     26614 MEMB     201      POPC     C36      CTL2    -0.180000       12.0110           0
     26615 MEMB     201      POPC     H6X      HAL2     0.900000E-01   1.00800           0
     26616 MEMB     201      POPC     H6Y      HAL2     0.900000E-01   1.00800           0
     26617 MEMB     201      POPC     C37      CTL2    -0.180000       12.0110           0
     26618 MEMB     201      POPC     H7X      HAL2     0.900000E-01   1.00800           0
     26619 MEMB     201      POPC     H7Y      HAL2     0.900000E-01   1.00800           0
     26620 MEMB     201      POPC     C38      CTL2    -0.180000       12.0110           0
     26621 MEMB     201      POPC     H8X      HAL2     0.900000E-01   1.00800           0
     26622 MEMB     201      POPC     H8Y      HAL2     0.900000E-01   1.00800           0
     26623 MEMB     201      POPC     C39      CTL2    -0.180000       12.0110           0
     26624 MEMB     201      POPC     H9X      HAL2     0.900000E-01   1.00800           0
     26625 MEMB     201      POPC     H9Y      HAL2     0.900000E-01   1.00800           0
     26626 MEMB     201      POPC     C310     CTL2    -0.180000       12.0110           0
     26627 MEMB     201      POPC     H10X     HAL2     0.900000E-01   1.00800           0
     26628 MEMB     201      POPC     H10Y     HAL2     0.900000E-01   1.00800           0
     26629 MEMB     201      POPC     C311     CTL2    -0.180000       12.0110           0
     26630 MEMB     201      POPC     H11X     HAL2     0.900000E-01   1.00800           0
     26631 MEMB     201      POPC     H11Y     HAL2     0.900000E-01   1.00800           0
     26632 MEMB     201      POPC     C312     CTL2    -0.180000       12.0110           0
     26633 MEMB     201      POPC     H12X     HAL2     0.900000E-01   1.00800           0
     26634 MEMB     201      POPC     H12Y     HAL2     0.900000E-01   1.00800           0
     26635 MEMB     201      POPC     C313     CTL2    -0.180000       12.0110           0
     26636 MEMB     201      POPC     H13X     HAL2     0.900000E-01   1.00800           0
     26637 MEMB     201      POPC     H13Y     HAL2     0.900000E-01   1.00800           0
     26638 MEMB     201      POPC     C314     CTL2    -0.180000       12.0110           0
     26639 MEMB     201      POPC     H14X     HAL2     0.900000E-01   1.00800           0
     26640 MEMB     201      POPC     H14Y     HAL2     0.900000E-01   1.00800           0
     26641 MEMB     201      POPC     C315     CTL2    -0.180000       12.0110           0
     26642 MEMB     201      POPC     H15X     HAL2     0.900000E-01   1.00800           0
     26643 MEMB     201      POPC     H15Y     HAL2     0.900000E-01   1.00800           0
     26644 MEMB     201      POPC     C316     CTL3    -0.270000       12.0110           0
     26645 MEMB     201      POPC     H16X     HAL3     0.900000E-01   1.00800           0
     26646 MEMB     201      POPC     H16Y     HAL3     0.900000E-01   1.00800           0
     26647 MEMB     201      POPC     H16Z     HAL3     0.900000E-01   1.00800           0
     26648 MEMB     202      POPC     N        NTL     -0.600000       14.0070           0
     26649 MEMB     202      POPC     C12      CTL2    -0.100000       12.0110           0
     26650 MEMB     202      POPC     H12A     HL       0.250000       1.00800           0
     26651 MEMB     202      POPC     H12B     HL       0.250000       1.00800           0
     26652 MEMB     202      POPC     C13      CTL5    -0.350000       12.0110           0
     26653 MEMB     202      POPC     H13A     HL       0.250000       1.00800           0
     26654 MEMB     202      POPC     H13B     HL       0.250000       1.00800           0
     26655 MEMB     202      POPC     H13C     HL       0.250000       1.00800           0
     26656 MEMB     202      POPC     C14      CTL5    -0.350000       12.0110           0
     26657 MEMB     202      POPC     H14A     HL       0.250000       1.00800           0
     26658 MEMB     202      POPC     H14B     HL       0.250000       1.00800           0
     26659 MEMB     202      POPC     H14C     HL       0.250000       1.00800           0
     26660 MEMB     202      POPC     C15      CTL5    -0.350000       12.0110           0
     26661 MEMB     202      POPC     H15A     HL       0.250000       1.00800           0
     26662 MEMB     202      POPC     H15B     HL       0.250000       1.00800           0
     26663 MEMB     202      POPC     H15C     HL       0.250000       1.00800           0
     26664 MEMB     202      POPC     C11      CTL2    -0.800000E-01   12.0110           0
     26665 MEMB     202      POPC     H11A     HAL2     0.900000E-01   1.00800           0
     26666 MEMB     202      POPC     H11B     HAL2     0.900000E-01   1.00800           0
     26667 MEMB     202      POPC     P        PL        1.50000       30.9740           0
     26668 MEMB     202      POPC     O13      O2L     -0.780000       15.9994           0
     26669 MEMB     202      POPC     O14      O2L     -0.780000       15.9994           0
     26670 MEMB     202      POPC     O12      OSLP    -0.570000       15.9994           0
     26671 MEMB     202      POPC     O11      OSLP    -0.570000       15.9994           0
     26672 MEMB     202      POPC     C1       CTL2    -0.800000E-01   12.0110           0
     26673 MEMB     202      POPC     HA       HAL2     0.900000E-01   1.00800           0
     26674 MEMB     202      POPC     HB       HAL2     0.900000E-01   1.00800           0
     26675 MEMB     202      POPC     C2       CTL1     0.170000       12.0110           0
     26676 MEMB     202      POPC     HS       HAL1     0.900000E-01   1.00800           0
     26677 MEMB     202      POPC     O21      OSL     -0.490000       15.9994           0
     26678 MEMB     202      POPC     C21      CL       0.900000       12.0110           0
     26679 MEMB     202      POPC     O22      OBL     -0.630000       15.9994           0
     26680 MEMB     202      POPC     C22      CTL2    -0.220000       12.0110           0
     26681 MEMB     202      POPC     H2R      HAL2     0.900000E-01   1.00800           0
     26682 MEMB     202      POPC     H2S      HAL2     0.900000E-01   1.00800           0
     26683 MEMB     202      POPC     C3       CTL2     0.800000E-01   12.0110           0
     26684 MEMB     202      POPC     HX       HAL2     0.900000E-01   1.00800           0
     26685 MEMB     202      POPC     HY       HAL2     0.900000E-01   1.00800           0
     26686 MEMB     202      POPC     O31      OSL     -0.490000       15.9994           0
     26687 MEMB     202      POPC     C31      CL       0.900000       12.0110           0
     26688 MEMB     202      POPC     O32      OBL     -0.630000       15.9994           0
     26689 MEMB     202      POPC     C32      CTL2    -0.220000       12.0110           0
     26690 MEMB     202      POPC     H2X      HAL2     0.900000E-01   1.00800           0
     26691 MEMB     202      POPC     H2Y      HAL2     0.900000E-01   1.00800           0
     26692 MEMB     202      POPC     C23      CTL2    -0.180000       12.0110           0
     26693 MEMB     202      POPC     H3R      HAL2     0.900000E-01   1.00800           0
     26694 MEMB     202      POPC     H3S      HAL2     0.900000E-01   1.00800           0
     26695 MEMB     202      POPC     C24      CTL2    -0.180000       12.0110           0
     26696 MEMB     202      POPC     H4R      HAL2     0.900000E-01   1.00800           0
     26697 MEMB     202      POPC     H4S      HAL2     0.900000E-01   1.00800           0
     26698 MEMB     202      POPC     C25      CTL2    -0.180000       12.0110           0
     26699 MEMB     202      POPC     H5R      HAL2     0.900000E-01   1.00800           0
     26700 MEMB     202      POPC     H5S      HAL2     0.900000E-01   1.00800           0
     26701 MEMB     202      POPC     C26      CTL2    -0.180000       12.0110           0
     26702 MEMB     202      POPC     H6R      HAL2     0.900000E-01   1.00800           0
     26703 MEMB     202      POPC     H6S      HAL2     0.900000E-01   1.00800           0
     26704 MEMB     202      POPC     C27      CTL2    -0.180000       12.0110           0
     26705 MEMB     202      POPC     H7R      HAL2     0.900000E-01   1.00800           0
     26706 MEMB     202      POPC     H7S      HAL2     0.900000E-01   1.00800           0
     26707 MEMB     202      POPC     C28      CTL2    -0.180000       12.0110           0
     26708 MEMB     202      POPC     H8R      HAL2     0.900000E-01   1.00800           0
     26709 MEMB     202      POPC     H8S      HAL2     0.900000E-01   1.00800           0
     26710 MEMB     202      POPC     C29      CEL1    -0.150000       12.0110           0
     26711 MEMB     202      POPC     H91      HEL1     0.150000       1.00800           0
     26712 MEMB     202      POPC     C210     CEL1    -0.150000       12.0110           0
     26713 MEMB     202      POPC     H101     HEL1     0.150000       1.00800           0
     26714 MEMB     202      POPC     C211     CTL2    -0.180000       12.0110           0
     26715 MEMB     202      POPC     H11R     HAL2     0.900000E-01   1.00800           0
     26716 MEMB     202      POPC     H11S     HAL2     0.900000E-01   1.00800           0
     26717 MEMB     202      POPC     C212     CTL2    -0.180000       12.0110           0
     26718 MEMB     202      POPC     H12R     HAL2     0.900000E-01   1.00800           0
     26719 MEMB     202      POPC     H12S     HAL2     0.900000E-01   1.00800           0
     26720 MEMB     202      POPC     C213     CTL2    -0.180000       12.0110           0
     26721 MEMB     202      POPC     H13R     HAL2     0.900000E-01   1.00800           0
     26722 MEMB     202      POPC     H13S     HAL2     0.900000E-01   1.00800           0
     26723 MEMB     202      POPC     C214     CTL2    -0.180000       12.0110           0
     26724 MEMB     202      POPC     H14R     HAL2     0.900000E-01   1.00800           0
     26725 MEMB     202      POPC     H14S     HAL2     0.900000E-01   1.00800           0
     26726 MEMB     202      POPC     C215     CTL2    -0.180000       12.0110           0
     26727 MEMB     202      POPC     H15R     HAL2     0.900000E-01   1.00800           0
     26728 MEMB     202      POPC     H15S     HAL2     0.900000E-01   1.00800           0
     26729 MEMB     202      POPC     C216     CTL2    -0.180000       12.0110           0
     26730 MEMB     202      POPC     H16R     HAL2     0.900000E-01   1.00800           0
     26731 MEMB     202      POPC     H16S     HAL2     0.900000E-01   1.00800           0
     26732 MEMB     202      POPC     C217     CTL2    -0.180000       12.0110           0
     26733 MEMB     202      POPC     H17R     HAL2     0.900000E-01   1.00800           0
     26734 MEMB     202      POPC     H17S     HAL2     0.900000E-01   1.00800           0
     26735 MEMB     202      POPC     C218     CTL3    -0.270000       12.0110           0
     26736 MEMB     202      POPC     H18R     HAL3     0.900000E-01   1.00800           0
     26737 MEMB     202      POPC     H18S     HAL3     0.900000E-01   1.00800           0
     26738 MEMB     202      POPC     H18T     HAL3     0.900000E-01   1.00800           0
     26739 MEMB     202      POPC     C33      CTL2    -0.180000       12.0110           0
     26740 MEMB     202      POPC     H3X      HAL2     0.900000E-01   1.00800           0
     26741 MEMB     202      POPC     H3Y      HAL2     0.900000E-01   1.00800           0
     26742 MEMB     202      POPC     C34      CTL2    -0.180000       12.0110           0
     26743 MEMB     202      POPC     H4X      HAL2     0.900000E-01   1.00800           0
     26744 MEMB     202      POPC     H4Y      HAL2     0.900000E-01   1.00800           0
     26745 MEMB     202      POPC     C35      CTL2    -0.180000       12.0110           0
     26746 MEMB     202      POPC     H5X      HAL2     0.900000E-01   1.00800           0
     26747 MEMB     202      POPC     H5Y      HAL2     0.900000E-01   1.00800           0
     26748 MEMB     202      POPC     C36      CTL2    -0.180000       12.0110           0
     26749 MEMB     202      POPC     H6X      HAL2     0.900000E-01   1.00800           0
     26750 MEMB     202      POPC     H6Y      HAL2     0.900000E-01   1.00800           0
     26751 MEMB     202      POPC     C37      CTL2    -0.180000       12.0110           0
     26752 MEMB     202      POPC     H7X      HAL2     0.900000E-01   1.00800           0
     26753 MEMB     202      POPC     H7Y      HAL2     0.900000E-01   1.00800           0
     26754 MEMB     202      POPC     C38      CTL2    -0.180000       12.0110           0
     26755 MEMB     202      POPC     H8X      HAL2     0.900000E-01   1.00800           0
     26756 MEMB     202      POPC     H8Y      HAL2     0.900000E-01   1.00800           0
     26757 MEMB     202      POPC     C39      CTL2    -0.180000       12.0110           0
     26758 MEMB     202      POPC     H9X      HAL2     0.900000E-01   1.00800           0
     26759 MEMB     202      POPC     H9Y      HAL2     0.900000E-01   1.00800           0
     26760 MEMB     202      POPC     C310     CTL2    -0.180000       12.0110           0
     26761 MEMB     202      POPC     H10X     HAL2     0.900000E-01   1.00800           0
     26762 MEMB     202      POPC     H10Y     HAL2     0.900000E-01   1.00800           0
     26763 MEMB     202      POPC     C311     CTL2    -0.180000       12.0110           0
     26764 MEMB     202      POPC     H11X     HAL2     0.900000E-01   1.00800           0
     26765 MEMB     202      POPC     H11Y     HAL2     0.900000E-01   1.00800           0
     26766 MEMB     202      POPC     C312     CTL2    -0.180000       12.0110           0
     26767 MEMB     202      POPC     H12X     HAL2     0.900000E-01   1.00800           0
     26768 MEMB     202      POPC     H12Y     HAL2     0.900000E-01   1.00800           0
     26769 MEMB     202      POPC     C313     CTL2    -0.180000       12.0110           0
     26770 MEMB     202      POPC     H13X     HAL2     0.900000E-01   1.00800           0
     26771 MEMB     202      POPC     H13Y     HAL2     0.900000E-01   1.00800           0
     26772 MEMB     202      POPC     C314     CTL2    -0.180000       12.0110           0
     26773 MEMB     202      POPC     H14X     HAL2     0.900000E-01   1.00800           0
     26774 MEMB     202      POPC     H14Y     HAL2     0.900000E-01   1.00800           0
     26775 MEMB     202      POPC     C315     CTL2    -0.180000       12.0110           0
     26776 MEMB     202      POPC     H15X     HAL2     0.900000E-01   1.00800           0
     26777 MEMB     202      POPC     H15Y     HAL2     0.900000E-01   1.00800           0
     26778 MEMB     202      POPC     C316     CTL3    -0.270000       12.0110           0
     26779 MEMB     202      POPC     H16X     HAL3     0.900000E-01   1.00800           0
     26780 MEMB     202      POPC     H16Y     HAL3     0.900000E-01   1.00800           0
     26781 MEMB     202      POPC     H16Z     HAL3     0.900000E-01   1.00800           0
     26782 MEMB     203      POPC     N        NTL     -0.600000       14.0070           0
     26783 MEMB     203      POPC     C12      CTL2    -0.100000       12.0110           0
     26784 MEMB     203      POPC     H12A     HL       0.250000       1.00800           0
     26785 MEMB     203      POPC     H12B     HL       0.250000       1.00800           0
     26786 MEMB     203      POPC     C13      CTL5    -0.350000       12.0110           0
     26787 MEMB     203      POPC     H13A     HL       0.250000       1.00800           0
     26788 MEMB     203      POPC     H13B     HL       0.250000       1.00800           0
     26789 MEMB     203      POPC     H13C     HL       0.250000       1.00800           0
     26790 MEMB     203      POPC     C14      CTL5    -0.350000       12.0110           0
     26791 MEMB     203      POPC     H14A     HL       0.250000       1.00800           0
     26792 MEMB     203      POPC     H14B     HL       0.250000       1.00800           0
     26793 MEMB     203      POPC     H14C     HL       0.250000       1.00800           0
     26794 MEMB     203      POPC     C15      CTL5    -0.350000       12.0110           0
     26795 MEMB     203      POPC     H15A     HL       0.250000       1.00800           0
     26796 MEMB     203      POPC     H15B     HL       0.250000       1.00800           0
     26797 MEMB     203      POPC     H15C     HL       0.250000       1.00800           0
     26798 MEMB     203      POPC     C11      CTL2    -0.800000E-01   12.0110           0
     26799 MEMB     203      POPC     H11A     HAL2     0.900000E-01   1.00800           0
     26800 MEMB     203      POPC     H11B     HAL2     0.900000E-01   1.00800           0
     26801 MEMB     203      POPC     P        PL        1.50000       30.9740           0
     26802 MEMB     203      POPC     O13      O2L     -0.780000       15.9994           0
     26803 MEMB     203      POPC     O14      O2L     -0.780000       15.9994           0
     26804 MEMB     203      POPC     O12      OSLP    -0.570000       15.9994           0
     26805 MEMB     203      POPC     O11      OSLP    -0.570000       15.9994           0
     26806 MEMB     203      POPC     C1       CTL2    -0.800000E-01   12.0110           0
     26807 MEMB     203      POPC     HA       HAL2     0.900000E-01   1.00800           0
     26808 MEMB     203      POPC     HB       HAL2     0.900000E-01   1.00800           0
     26809 MEMB     203      POPC     C2       CTL1     0.170000       12.0110           0
     26810 MEMB     203      POPC     HS       HAL1     0.900000E-01   1.00800           0
     26811 MEMB     203      POPC     O21      OSL     -0.490000       15.9994           0
     26812 MEMB     203      POPC     C21      CL       0.900000       12.0110           0
     26813 MEMB     203      POPC     O22      OBL     -0.630000       15.9994           0
     26814 MEMB     203      POPC     C22      CTL2    -0.220000       12.0110           0
     26815 MEMB     203      POPC     H2R      HAL2     0.900000E-01   1.00800           0
     26816 MEMB     203      POPC     H2S      HAL2     0.900000E-01   1.00800           0
     26817 MEMB     203      POPC     C3       CTL2     0.800000E-01   12.0110           0
     26818 MEMB     203      POPC     HX       HAL2     0.900000E-01   1.00800           0
     26819 MEMB     203      POPC     HY       HAL2     0.900000E-01   1.00800           0
     26820 MEMB     203      POPC     O31      OSL     -0.490000       15.9994           0
     26821 MEMB     203      POPC     C31      CL       0.900000       12.0110           0
     26822 MEMB     203      POPC     O32      OBL     -0.630000       15.9994           0
     26823 MEMB     203      POPC     C32      CTL2    -0.220000       12.0110           0
     26824 MEMB     203      POPC     H2X      HAL2     0.900000E-01   1.00800           0
     26825 MEMB     203      POPC     H2Y      HAL2     0.900000E-01   1.00800           0
     26826 MEMB     203      POPC     C23      CTL2    -0.180000       12.0110           0
     26827 MEMB     203      POPC     H3R      HAL2     0.900000E-01   1.00800           0
     26828 MEMB     203      POPC     H3S      HAL2     0.900000E-01   1.00800           0
     26829 MEMB     203      POPC     C24      CTL2    -0.180000       12.0110           0
     26830 MEMB     203      POPC     H4R      HAL2     0.900000E-01   1.00800           0
     26831 MEMB     203      POPC     H4S      HAL2     0.900000E-01   1.00800           0
     26832 MEMB     203      POPC     C25      CTL2    -0.180000       12.0110           0
     26833 MEMB     203      POPC     H5R      HAL2     0.900000E-01   1.00800           0
     26834 MEMB     203      POPC     H5S      HAL2     0.900000E-01   1.00800           0
     26835 MEMB     203      POPC     C26      CTL2    -0.180000       12.0110           0
     26836 MEMB     203      POPC     H6R      HAL2     0.900000E-01   1.00800           0
     26837 MEMB     203      POPC     H6S      HAL2     0.900000E-01   1.00800           0
     26838 MEMB     203      POPC     C27      CTL2    -0.180000       12.0110           0
     26839 MEMB     203      POPC     H7R      HAL2     0.900000E-01   1.00800           0
     26840 MEMB     203      POPC     H7S      HAL2     0.900000E-01   1.00800           0
     26841 MEMB     203      POPC     C28      CTL2    -0.180000       12.0110           0
     26842 MEMB     203      POPC     H8R      HAL2     0.900000E-01   1.00800           0
     26843 MEMB     203      POPC     H8S      HAL2     0.900000E-01   1.00800           0
     26844 MEMB     203      POPC     C29      CEL1    -0.150000       12.0110           0
     26845 MEMB     203      POPC     H91      HEL1     0.150000       1.00800           0
     26846 MEMB     203      POPC     C210     CEL1    -0.150000       12.0110           0
     26847 MEMB     203      POPC     H101     HEL1     0.150000       1.00800           0
     26848 MEMB     203      POPC     C211     CTL2    -0.180000       12.0110           0
     26849 MEMB     203      POPC     H11R     HAL2     0.900000E-01   1.00800           0
     26850 MEMB     203      POPC     H11S     HAL2     0.900000E-01   1.00800           0
     26851 MEMB     203      POPC     C212     CTL2    -0.180000       12.0110           0
     26852 MEMB     203      POPC     H12R     HAL2     0.900000E-01   1.00800           0
     26853 MEMB     203      POPC     H12S     HAL2     0.900000E-01   1.00800           0
     26854 MEMB     203      POPC     C213     CTL2    -0.180000       12.0110           0
     26855 MEMB     203      POPC     H13R     HAL2     0.900000E-01   1.00800           0
     26856 MEMB     203      POPC     H13S     HAL2     0.900000E-01   1.00800           0
     26857 MEMB     203      POPC     C214     CTL2    -0.180000       12.0110           0
     26858 MEMB     203      POPC     H14R     HAL2     0.900000E-01   1.00800           0
     26859 MEMB     203      POPC     H14S     HAL2     0.900000E-01   1.00800           0
     26860 MEMB     203      POPC     C215     CTL2    -0.180000       12.0110           0
     26861 MEMB     203      POPC     H15R     HAL2     0.900000E-01   1.00800           0
     26862 MEMB     203      POPC     H15S     HAL2     0.900000E-01   1.00800           0
     26863 MEMB     203      POPC     C216     CTL2    -0.180000       12.0110           0
     26864 MEMB     203      POPC     H16R     HAL2     0.900000E-01   1.00800           0
     26865 MEMB     203      POPC     H16S     HAL2     0.900000E-01   1.00800           0
     26866 MEMB     203      POPC     C217     CTL2    -0.180000       12.0110           0
     26867 MEMB     203      POPC     H17R     HAL2     0.900000E-01   1.00800           0
     26868 MEMB     203      POPC     H17S     HAL2     0.900000E-01   1.00800           0
     26869 MEMB     203      POPC     C218     CTL3    -0.270000       12.0110           0
     26870 MEMB     203      POPC     H18R     HAL3     0.900000E-01   1.00800           0
     26871 MEMB     203      POPC     H18S     HAL3     0.900000E-01   1.00800           0
     26872 MEMB     203      POPC     H18T     HAL3     0.900000E-01   1.00800           0
     26873 MEMB     203      POPC     C33      CTL2    -0.180000       12.0110           0
     26874 MEMB     203      POPC     H3X      HAL2     0.900000E-01   1.00800           0
     26875 MEMB     203      POPC     H3Y      HAL2     0.900000E-01   1.00800           0
     26876 MEMB     203      POPC     C34      CTL2    -0.180000       12.0110           0
     26877 MEMB     203      POPC     H4X      HAL2     0.900000E-01   1.00800           0
     26878 MEMB     203      POPC     H4Y      HAL2     0.900000E-01   1.00800           0
     26879 MEMB     203      POPC     C35      CTL2    -0.180000       12.0110           0
     26880 MEMB     203      POPC     H5X      HAL2     0.900000E-01   1.00800           0
     26881 MEMB     203      POPC     H5Y      HAL2     0.900000E-01   1.00800           0
     26882 MEMB     203      POPC     C36      CTL2    -0.180000       12.0110           0
     26883 MEMB     203      POPC     H6X      HAL2     0.900000E-01   1.00800           0
     26884 MEMB     203      POPC     H6Y      HAL2     0.900000E-01   1.00800           0
     26885 MEMB     203      POPC     C37      CTL2    -0.180000       12.0110           0
     26886 MEMB     203      POPC     H7X      HAL2     0.900000E-01   1.00800           0
     26887 MEMB     203      POPC     H7Y      HAL2     0.900000E-01   1.00800           0
     26888 MEMB     203      POPC     C38      CTL2    -0.180000       12.0110           0
     26889 MEMB     203      POPC     H8X      HAL2     0.900000E-01   1.00800           0
     26890 MEMB     203      POPC     H8Y      HAL2     0.900000E-01   1.00800           0
     26891 MEMB     203      POPC     C39      CTL2    -0.180000       12.0110           0
     26892 MEMB     203      POPC     H9X      HAL2     0.900000E-01   1.00800           0
     26893 MEMB     203      POPC     H9Y      HAL2     0.900000E-01   1.00800           0
     26894 MEMB     203      POPC     C310     CTL2    -0.180000       12.0110           0
     26895 MEMB     203      POPC     H10X     HAL2     0.900000E-01   1.00800           0
     26896 MEMB     203      POPC     H10Y     HAL2     0.900000E-01   1.00800           0
     26897 MEMB     203      POPC     C311     CTL2    -0.180000       12.0110           0
     26898 MEMB     203      POPC     H11X     HAL2     0.900000E-01   1.00800           0
     26899 MEMB     203      POPC     H11Y     HAL2     0.900000E-01   1.00800           0
     26900 MEMB     203      POPC     C312     CTL2    -0.180000       12.0110           0
     26901 MEMB     203      POPC     H12X     HAL2     0.900000E-01   1.00800           0
     26902 MEMB     203      POPC     H12Y     HAL2     0.900000E-01   1.00800           0
     26903 MEMB     203      POPC     C313     CTL2    -0.180000       12.0110           0
     26904 MEMB     203      POPC     H13X     HAL2     0.900000E-01   1.00800           0
     26905 MEMB     203      POPC     H13Y     HAL2     0.900000E-01   1.00800           0
     26906 MEMB     203      POPC     C314     CTL2    -0.180000       12.0110           0
     26907 MEMB     203      POPC     H14X     HAL2     0.900000E-01   1.00800           0
     26908 MEMB     203      POPC     H14Y     HAL2     0.900000E-01   1.00800           0
     26909 MEMB     203      POPC     C315     CTL2    -0.180000       12.0110           0
     26910 MEMB     203      POPC     H15X     HAL2     0.900000E-01   1.00800           0
     26911 MEMB     203      POPC     H15Y     HAL2     0.900000E-01   1.00800           0
     26912 MEMB     203      POPC     C316     CTL3    -0.270000       12.0110           0
     26913 MEMB     203      POPC     H16X     HAL3     0.900000E-01   1.00800           0
     26914 MEMB     203      POPC     H16Y     HAL3     0.900000E-01   1.00800           0
     26915 MEMB     203      POPC     H16Z     HAL3     0.900000E-01   1.00800           0
     26916 MEMB     204      POPC     N        NTL     -0.600000       14.0070           0
     26917 MEMB     204      POPC     C12      CTL2    -0.100000       12.0110           0
     26918 MEMB     204      POPC     H12A     HL       0.250000       1.00800           0
     26919 MEMB     204      POPC     H12B     HL       0.250000       1.00800           0
     26920 MEMB     204      POPC     C13      CTL5    -0.350000       12.0110           0
     26921 MEMB     204      POPC     H13A     HL       0.250000       1.00800           0
     26922 MEMB     204      POPC     H13B     HL       0.250000       1.00800           0
     26923 MEMB     204      POPC     H13C     HL       0.250000       1.00800           0
     26924 MEMB     204      POPC     C14      CTL5    -0.350000       12.0110           0
     26925 MEMB     204      POPC     H14A     HL       0.250000       1.00800           0
     26926 MEMB     204      POPC     H14B     HL       0.250000       1.00800           0
     26927 MEMB     204      POPC     H14C     HL       0.250000       1.00800           0
     26928 MEMB     204      POPC     C15      CTL5    -0.350000       12.0110           0
     26929 MEMB     204      POPC     H15A     HL       0.250000       1.00800           0
     26930 MEMB     204      POPC     H15B     HL       0.250000       1.00800           0
     26931 MEMB     204      POPC     H15C     HL       0.250000       1.00800           0
     26932 MEMB     204      POPC     C11      CTL2    -0.800000E-01   12.0110           0
     26933 MEMB     204      POPC     H11A     HAL2     0.900000E-01   1.00800           0
     26934 MEMB     204      POPC     H11B     HAL2     0.900000E-01   1.00800           0
     26935 MEMB     204      POPC     P        PL        1.50000       30.9740           0
     26936 MEMB     204      POPC     O13      O2L     -0.780000       15.9994           0
     26937 MEMB     204      POPC     O14      O2L     -0.780000       15.9994           0
     26938 MEMB     204      POPC     O12      OSLP    -0.570000       15.9994           0
     26939 MEMB     204      POPC     O11      OSLP    -0.570000       15.9994           0
     26940 MEMB     204      POPC     C1       CTL2    -0.800000E-01   12.0110           0
     26941 MEMB     204      POPC     HA       HAL2     0.900000E-01   1.00800           0
     26942 MEMB     204      POPC     HB       HAL2     0.900000E-01   1.00800           0
     26943 MEMB     204      POPC     C2       CTL1     0.170000       12.0110           0
     26944 MEMB     204      POPC     HS       HAL1     0.900000E-01   1.00800           0
     26945 MEMB     204      POPC     O21      OSL     -0.490000       15.9994           0
     26946 MEMB     204      POPC     C21      CL       0.900000       12.0110           0
     26947 MEMB     204      POPC     O22      OBL     -0.630000       15.9994           0
     26948 MEMB     204      POPC     C22      CTL2    -0.220000       12.0110           0
     26949 MEMB     204      POPC     H2R      HAL2     0.900000E-01   1.00800           0
     26950 MEMB     204      POPC     H2S      HAL2     0.900000E-01   1.00800           0
     26951 MEMB     204      POPC     C3       CTL2     0.800000E-01   12.0110           0
     26952 MEMB     204      POPC     HX       HAL2     0.900000E-01   1.00800           0
     26953 MEMB     204      POPC     HY       HAL2     0.900000E-01   1.00800           0
     26954 MEMB     204      POPC     O31      OSL     -0.490000       15.9994           0
     26955 MEMB     204      POPC     C31      CL       0.900000       12.0110           0
     26956 MEMB     204      POPC     O32      OBL     -0.630000       15.9994           0
     26957 MEMB     204      POPC     C32      CTL2    -0.220000       12.0110           0
     26958 MEMB     204      POPC     H2X      HAL2     0.900000E-01   1.00800           0
     26959 MEMB     204      POPC     H2Y      HAL2     0.900000E-01   1.00800           0
     26960 MEMB     204      POPC     C23      CTL2    -0.180000       12.0110           0
     26961 MEMB     204      POPC     H3R      HAL2     0.900000E-01   1.00800           0
     26962 MEMB     204      POPC     H3S      HAL2     0.900000E-01   1.00800           0
     26963 MEMB     204      POPC     C24      CTL2    -0.180000       12.0110           0
     26964 MEMB     204      POPC     H4R      HAL2     0.900000E-01   1.00800           0
     26965 MEMB     204      POPC     H4S      HAL2     0.900000E-01   1.00800           0
     26966 MEMB     204      POPC     C25      CTL2    -0.180000       12.0110           0
     26967 MEMB     204      POPC     H5R      HAL2     0.900000E-01   1.00800           0
     26968 MEMB     204      POPC     H5S      HAL2     0.900000E-01   1.00800           0
     26969 MEMB     204      POPC     C26      CTL2    -0.180000       12.0110           0
     26970 MEMB     204      POPC     H6R      HAL2     0.900000E-01   1.00800           0
     26971 MEMB     204      POPC     H6S      HAL2     0.900000E-01   1.00800           0
     26972 MEMB     204      POPC     C27      CTL2    -0.180000       12.0110           0
     26973 MEMB     204      POPC     H7R      HAL2     0.900000E-01   1.00800           0
     26974 MEMB     204      POPC     H7S      HAL2     0.900000E-01   1.00800           0
     26975 MEMB     204      POPC     C28      CTL2    -0.180000       12.0110           0
     26976 MEMB     204      POPC     H8R      HAL2     0.900000E-01   1.00800           0
     26977 MEMB     204      POPC     H8S      HAL2     0.900000E-01   1.00800           0
     26978 MEMB     204      POPC     C29      CEL1    -0.150000       12.0110           0
     26979 MEMB     204      POPC     H91      HEL1     0.150000       1.00800           0
     26980 MEMB     204      POPC     C210     CEL1    -0.150000       12.0110           0
     26981 MEMB     204      POPC     H101     HEL1     0.150000       1.00800           0
     26982 MEMB     204      POPC     C211     CTL2    -0.180000       12.0110           0
     26983 MEMB     204      POPC     H11R     HAL2     0.900000E-01   1.00800           0
     26984 MEMB     204      POPC     H11S     HAL2     0.900000E-01   1.00800           0
     26985 MEMB     204      POPC     C212     CTL2    -0.180000       12.0110           0
     26986 MEMB     204      POPC     H12R     HAL2     0.900000E-01   1.00800           0
     26987 MEMB     204      POPC     H12S     HAL2     0.900000E-01   1.00800           0
     26988 MEMB     204      POPC     C213     CTL2    -0.180000       12.0110           0
     26989 MEMB     204      POPC     H13R     HAL2     0.900000E-01   1.00800           0
     26990 MEMB     204      POPC     H13S     HAL2     0.900000E-01   1.00800           0
     26991 MEMB     204      POPC     C214     CTL2    -0.180000       12.0110           0
     26992 MEMB     204      POPC     H14R     HAL2     0.900000E-01   1.00800           0
     26993 MEMB     204      POPC     H14S     HAL2     0.900000E-01   1.00800           0
     26994 MEMB     204      POPC     C215     CTL2    -0.180000       12.0110           0
     26995 MEMB     204      POPC     H15R     HAL2     0.900000E-01   1.00800           0
     26996 MEMB     204      POPC     H15S     HAL2     0.900000E-01   1.00800           0
     26997 MEMB     204      POPC     C216     CTL2    -0.180000       12.0110           0
     26998 MEMB     204      POPC     H16R     HAL2     0.900000E-01   1.00800           0
     26999 MEMB     204      POPC     H16S     HAL2     0.900000E-01   1.00800           0
     27000 MEMB     204      POPC     C217     CTL2    -0.180000       12.0110           0
     27001 MEMB     204      POPC     H17R     HAL2     0.900000E-01   1.00800           0
     27002 MEMB     204      POPC     H17S     HAL2     0.900000E-01   1.00800           0
     27003 MEMB     204      POPC     C218     CTL3    -0.270000       12.0110           0
     27004 MEMB     204      POPC     H18R     HAL3     0.900000E-01   1.00800           0
     27005 MEMB     204      POPC     H18S     HAL3     0.900000E-01   1.00800           0
     27006 MEMB     204      POPC     H18T     HAL3     0.900000E-01   1.00800           0
     27007 MEMB     204      POPC     C33      CTL2    -0.180000       12.0110           0
     27008 MEMB     204      POPC     H3X      HAL2     0.900000E-01   1.00800           0
     27009 MEMB     204      POPC     H3Y      HAL2     0.900000E-01   1.00800           0
     27010 MEMB     204      POPC     C34      CTL2    -0.180000       12.0110           0
     27011 MEMB     204      POPC     H4X      HAL2     0.900000E-01   1.00800           0
     27012 MEMB     204      POPC     H4Y      HAL2     0.900000E-01   1.00800           0
     27013 MEMB     204      POPC     C35      CTL2    -0.180000       12.0110           0
     27014 MEMB     204      POPC     H5X      HAL2     0.900000E-01   1.00800           0
     27015 MEMB     204      POPC     H5Y      HAL2     0.900000E-01   1.00800           0
     27016 MEMB     204      POPC     C36      CTL2    -0.180000       12.0110           0
     27017 MEMB     204      POPC     H6X      HAL2     0.900000E-01   1.00800           0
     27018 MEMB     204      POPC     H6Y      HAL2     0.900000E-01   1.00800           0
     27019 MEMB     204      POPC     C37      CTL2    -0.180000       12.0110           0
     27020 MEMB     204      POPC     H7X      HAL2     0.900000E-01   1.00800           0
     27021 MEMB     204      POPC     H7Y      HAL2     0.900000E-01   1.00800           0
     27022 MEMB     204      POPC     C38      CTL2    -0.180000       12.0110           0
     27023 MEMB     204      POPC     H8X      HAL2     0.900000E-01   1.00800           0
     27024 MEMB     204      POPC     H8Y      HAL2     0.900000E-01   1.00800           0
     27025 MEMB     204      POPC     C39      CTL2    -0.180000       12.0110           0
     27026 MEMB     204      POPC     H9X      HAL2     0.900000E-01   1.00800           0
     27027 MEMB     204      POPC     H9Y      HAL2     0.900000E-01   1.00800           0
     27028 MEMB     204      POPC     C310     CTL2    -0.180000       12.0110           0
     27029 MEMB     204      POPC     H10X     HAL2     0.900000E-01   1.00800           0
     27030 MEMB     204      POPC     H10Y     HAL2     0.900000E-01   1.00800           0
     27031 MEMB     204      POPC     C311     CTL2    -0.180000       12.0110           0
     27032 MEMB     204      POPC     H11X     HAL2     0.900000E-01   1.00800           0
     27033 MEMB     204      POPC     H11Y     HAL2     0.900000E-01   1.00800           0
     27034 MEMB     204      POPC     C312     CTL2    -0.180000       12.0110           0
     27035 MEMB     204      POPC     H12X     HAL2     0.900000E-01   1.00800           0
     27036 MEMB     204      POPC     H12Y     HAL2     0.900000E-01   1.00800           0
     27037 MEMB     204      POPC     C313     CTL2    -0.180000       12.0110           0
     27038 MEMB     204      POPC     H13X     HAL2     0.900000E-01   1.00800           0
     27039 MEMB     204      POPC     H13Y     HAL2     0.900000E-01   1.00800           0
     27040 MEMB     204      POPC     C314     CTL2    -0.180000       12.0110           0
     27041 MEMB     204      POPC     H14X     HAL2     0.900000E-01   1.00800           0
     27042 MEMB     204      POPC     H14Y     HAL2     0.900000E-01   1.00800           0
     27043 MEMB     204      POPC     C315     CTL2    -0.180000       12.0110           0
     27044 MEMB     204      POPC     H15X     HAL2     0.900000E-01   1.00800           0
     27045 MEMB     204      POPC     H15Y     HAL2     0.900000E-01   1.00800           0
     27046 MEMB     204      POPC     C316     CTL3    -0.270000       12.0110           0
     27047 MEMB     204      POPC     H16X     HAL3     0.900000E-01   1.00800           0
     27048 MEMB     204      POPC     H16Y     HAL3     0.900000E-01   1.00800           0
     27049 MEMB     204      POPC     H16Z     HAL3     0.900000E-01   1.00800           0
     27050 MEMB     205      POPS     N        NH3L    -0.300000       14.0070           0
     27051 MEMB     205      POPS     HN1      HCL      0.330000       1.00800           0
     27052 MEMB     205      POPS     HN2      HCL      0.330000       1.00800           0
     27053 MEMB     205      POPS     HN3      HCL      0.330000       1.00800           0
     27054 MEMB     205      POPS     C12      CTL1     0.210000       12.0110           0
     27055 MEMB     205      POPS     H12A     HBL      0.100000       1.00800           0
     27056 MEMB     205      POPS     C13      CCL      0.340000       12.0110           0
     27057 MEMB     205      POPS     O13A     OCL     -0.670000       15.9994           0
     27058 MEMB     205      POPS     O13B     OCL     -0.670000       15.9994           0
     27059 MEMB     205      POPS     C11      CTL2    -0.800000E-01   12.0110           0
     27060 MEMB     205      POPS     H11A     HAL2     0.900000E-01   1.00800           0
     27061 MEMB     205      POPS     H11B     HAL2     0.900000E-01   1.00800           0
     27062 MEMB     205      POPS     P        PL        1.50000       30.9740           0
     27063 MEMB     205      POPS     O13      O2L     -0.780000       15.9994           0
     27064 MEMB     205      POPS     O14      O2L     -0.780000       15.9994           0
     27065 MEMB     205      POPS     O12      OSLP    -0.570000       15.9994           0
     27066 MEMB     205      POPS     O11      OSLP    -0.570000       15.9994           0
     27067 MEMB     205      POPS     C1       CTL2    -0.800000E-01   12.0110           0
     27068 MEMB     205      POPS     HA       HAL2     0.900000E-01   1.00800           0
     27069 MEMB     205      POPS     HB       HAL2     0.900000E-01   1.00800           0
     27070 MEMB     205      POPS     C2       CTL1     0.170000       12.0110           0
     27071 MEMB     205      POPS     HS       HAL1     0.900000E-01   1.00800           0
     27072 MEMB     205      POPS     O21      OSL     -0.490000       15.9994           0
     27073 MEMB     205      POPS     C21      CL       0.900000       12.0110           0
     27074 MEMB     205      POPS     O22      OBL     -0.630000       15.9994           0
     27075 MEMB     205      POPS     C22      CTL2    -0.220000       12.0110           0
     27076 MEMB     205      POPS     H2R      HAL2     0.900000E-01   1.00800           0
     27077 MEMB     205      POPS     H2S      HAL2     0.900000E-01   1.00800           0
     27078 MEMB     205      POPS     C3       CTL2     0.800000E-01   12.0110           0
     27079 MEMB     205      POPS     HX       HAL2     0.900000E-01   1.00800           0
     27080 MEMB     205      POPS     HY       HAL2     0.900000E-01   1.00800           0
     27081 MEMB     205      POPS     O31      OSL     -0.490000       15.9994           0
     27082 MEMB     205      POPS     C31      CL       0.900000       12.0110           0
     27083 MEMB     205      POPS     O32      OBL     -0.630000       15.9994           0
     27084 MEMB     205      POPS     C32      CTL2    -0.220000       12.0110           0
     27085 MEMB     205      POPS     H2X      HAL2     0.900000E-01   1.00800           0
     27086 MEMB     205      POPS     H2Y      HAL2     0.900000E-01   1.00800           0
     27087 MEMB     205      POPS     C23      CTL2    -0.180000       12.0110           0
     27088 MEMB     205      POPS     H3R      HAL2     0.900000E-01   1.00800           0
     27089 MEMB     205      POPS     H3S      HAL2     0.900000E-01   1.00800           0
     27090 MEMB     205      POPS     C24      CTL2    -0.180000       12.0110           0
     27091 MEMB     205      POPS     H4R      HAL2     0.900000E-01   1.00800           0
     27092 MEMB     205      POPS     H4S      HAL2     0.900000E-01   1.00800           0
     27093 MEMB     205      POPS     C25      CTL2    -0.180000       12.0110           0
     27094 MEMB     205      POPS     H5R      HAL2     0.900000E-01   1.00800           0
     27095 MEMB     205      POPS     H5S      HAL2     0.900000E-01   1.00800           0
     27096 MEMB     205      POPS     C26      CTL2    -0.180000       12.0110           0
     27097 MEMB     205      POPS     H6R      HAL2     0.900000E-01   1.00800           0
     27098 MEMB     205      POPS     H6S      HAL2     0.900000E-01   1.00800           0
     27099 MEMB     205      POPS     C27      CTL2    -0.180000       12.0110           0
     27100 MEMB     205      POPS     H7R      HAL2     0.900000E-01   1.00800           0
     27101 MEMB     205      POPS     H7S      HAL2     0.900000E-01   1.00800           0
     27102 MEMB     205      POPS     C28      CTL2    -0.180000       12.0110           0
     27103 MEMB     205      POPS     H8R      HAL2     0.900000E-01   1.00800           0
     27104 MEMB     205      POPS     H8S      HAL2     0.900000E-01   1.00800           0
     27105 MEMB     205      POPS     C29      CEL1    -0.150000       12.0110           0
     27106 MEMB     205      POPS     H91      HEL1     0.150000       1.00800           0
     27107 MEMB     205      POPS     C210     CEL1    -0.150000       12.0110           0
     27108 MEMB     205      POPS     H101     HEL1     0.150000       1.00800           0
     27109 MEMB     205      POPS     C211     CTL2    -0.180000       12.0110           0
     27110 MEMB     205      POPS     H11R     HAL2     0.900000E-01   1.00800           0
     27111 MEMB     205      POPS     H11S     HAL2     0.900000E-01   1.00800           0
     27112 MEMB     205      POPS     C212     CTL2    -0.180000       12.0110           0
     27113 MEMB     205      POPS     H12R     HAL2     0.900000E-01   1.00800           0
     27114 MEMB     205      POPS     H12S     HAL2     0.900000E-01   1.00800           0
     27115 MEMB     205      POPS     C213     CTL2    -0.180000       12.0110           0
     27116 MEMB     205      POPS     H13R     HAL2     0.900000E-01   1.00800           0
     27117 MEMB     205      POPS     H13S     HAL2     0.900000E-01   1.00800           0
     27118 MEMB     205      POPS     C214     CTL2    -0.180000       12.0110           0
     27119 MEMB     205      POPS     H14R     HAL2     0.900000E-01   1.00800           0
     27120 MEMB     205      POPS     H14S     HAL2     0.900000E-01   1.00800           0
     27121 MEMB     205      POPS     C215     CTL2    -0.180000       12.0110           0
     27122 MEMB     205      POPS     H15R     HAL2     0.900000E-01   1.00800           0
     27123 MEMB     205      POPS     H15S     HAL2     0.900000E-01   1.00800           0
     27124 MEMB     205      POPS     C216     CTL2    -0.180000       12.0110           0
     27125 MEMB     205      POPS     H16R     HAL2     0.900000E-01   1.00800           0
     27126 MEMB     205      POPS     H16S     HAL2     0.900000E-01   1.00800           0
     27127 MEMB     205      POPS     C217     CTL2    -0.180000       12.0110           0
     27128 MEMB     205      POPS     H17R     HAL2     0.900000E-01   1.00800           0
     27129 MEMB     205      POPS     H17S     HAL2     0.900000E-01   1.00800           0
     27130 MEMB     205      POPS     C218     CTL3    -0.270000       12.0110           0
     27131 MEMB     205      POPS     H18R     HAL3     0.900000E-01   1.00800           0
     27132 MEMB     205      POPS     H18S     HAL3     0.900000E-01   1.00800           0
     27133 MEMB     205      POPS     H18T     HAL3     0.900000E-01   1.00800           0
     27134 MEMB     205      POPS     C33      CTL2    -0.180000       12.0110           0
     27135 MEMB     205      POPS     H3X      HAL2     0.900000E-01   1.00800           0
     27136 MEMB     205      POPS     H3Y      HAL2     0.900000E-01   1.00800           0
     27137 MEMB     205      POPS     C34      CTL2    -0.180000       12.0110           0
     27138 MEMB     205      POPS     H4X      HAL2     0.900000E-01   1.00800           0
     27139 MEMB     205      POPS     H4Y      HAL2     0.900000E-01   1.00800           0
     27140 MEMB     205      POPS     C35      CTL2    -0.180000       12.0110           0
     27141 MEMB     205      POPS     H5X      HAL2     0.900000E-01   1.00800           0
     27142 MEMB     205      POPS     H5Y      HAL2     0.900000E-01   1.00800           0
     27143 MEMB     205      POPS     C36      CTL2    -0.180000       12.0110           0
     27144 MEMB     205      POPS     H6X      HAL2     0.900000E-01   1.00800           0
     27145 MEMB     205      POPS     H6Y      HAL2     0.900000E-01   1.00800           0
     27146 MEMB     205      POPS     C37      CTL2    -0.180000       12.0110           0
     27147 MEMB     205      POPS     H7X      HAL2     0.900000E-01   1.00800           0
     27148 MEMB     205      POPS     H7Y      HAL2     0.900000E-01   1.00800           0
     27149 MEMB     205      POPS     C38      CTL2    -0.180000       12.0110           0
     27150 MEMB     205      POPS     H8X      HAL2     0.900000E-01   1.00800           0
     27151 MEMB     205      POPS     H8Y      HAL2     0.900000E-01   1.00800           0
     27152 MEMB     205      POPS     C39      CTL2    -0.180000       12.0110           0
     27153 MEMB     205      POPS     H9X      HAL2     0.900000E-01   1.00800           0
     27154 MEMB     205      POPS     H9Y      HAL2     0.900000E-01   1.00800           0
     27155 MEMB     205      POPS     C310     CTL2    -0.180000       12.0110           0
     27156 MEMB     205      POPS     H10X     HAL2     0.900000E-01   1.00800           0
     27157 MEMB     205      POPS     H10Y     HAL2     0.900000E-01   1.00800           0
     27158 MEMB     205      POPS     C311     CTL2    -0.180000       12.0110           0
     27159 MEMB     205      POPS     H11X     HAL2     0.900000E-01   1.00800           0
     27160 MEMB     205      POPS     H11Y     HAL2     0.900000E-01   1.00800           0
     27161 MEMB     205      POPS     C312     CTL2    -0.180000       12.0110           0
     27162 MEMB     205      POPS     H12X     HAL2     0.900000E-01   1.00800           0
     27163 MEMB     205      POPS     H12Y     HAL2     0.900000E-01   1.00800           0
     27164 MEMB     205      POPS     C313     CTL2    -0.180000       12.0110           0
     27165 MEMB     205      POPS     H13X     HAL2     0.900000E-01   1.00800           0
     27166 MEMB     205      POPS     H13Y     HAL2     0.900000E-01   1.00800           0
     27167 MEMB     205      POPS     C314     CTL2    -0.180000       12.0110           0
     27168 MEMB     205      POPS     H14X     HAL2     0.900000E-01   1.00800           0
     27169 MEMB     205      POPS     H14Y     HAL2     0.900000E-01   1.00800           0
     27170 MEMB     205      POPS     C315     CTL2    -0.180000       12.0110           0
     27171 MEMB     205      POPS     H15X     HAL2     0.900000E-01   1.00800           0
     27172 MEMB     205      POPS     H15Y     HAL2     0.900000E-01   1.00800           0
     27173 MEMB     205      POPS     C316     CTL3    -0.270000       12.0110           0
     27174 MEMB     205      POPS     H16X     HAL3     0.900000E-01   1.00800           0
     27175 MEMB     205      POPS     H16Y     HAL3     0.900000E-01   1.00800           0
     27176 MEMB     205      POPS     H16Z     HAL3     0.900000E-01   1.00800           0
     27177 MEMB     206      POPC     N        NTL     -0.600000       14.0070           0
     27178 MEMB     206      POPC     C12      CTL2    -0.100000       12.0110           0
     27179 MEMB     206      POPC     H12A     HL       0.250000       1.00800           0
     27180 MEMB     206      POPC     H12B     HL       0.250000       1.00800           0
     27181 MEMB     206      POPC     C13      CTL5    -0.350000       12.0110           0
     27182 MEMB     206      POPC     H13A     HL       0.250000       1.00800           0
     27183 MEMB     206      POPC     H13B     HL       0.250000       1.00800           0
     27184 MEMB     206      POPC     H13C     HL       0.250000       1.00800           0
     27185 MEMB     206      POPC     C14      CTL5    -0.350000       12.0110           0
     27186 MEMB     206      POPC     H14A     HL       0.250000       1.00800           0
     27187 MEMB     206      POPC     H14B     HL       0.250000       1.00800           0
     27188 MEMB     206      POPC     H14C     HL       0.250000       1.00800           0
     27189 MEMB     206      POPC     C15      CTL5    -0.350000       12.0110           0
     27190 MEMB     206      POPC     H15A     HL       0.250000       1.00800           0
     27191 MEMB     206      POPC     H15B     HL       0.250000       1.00800           0
     27192 MEMB     206      POPC     H15C     HL       0.250000       1.00800           0
     27193 MEMB     206      POPC     C11      CTL2    -0.800000E-01   12.0110           0
     27194 MEMB     206      POPC     H11A     HAL2     0.900000E-01   1.00800           0
     27195 MEMB     206      POPC     H11B     HAL2     0.900000E-01   1.00800           0
     27196 MEMB     206      POPC     P        PL        1.50000       30.9740           0
     27197 MEMB     206      POPC     O13      O2L     -0.780000       15.9994           0
     27198 MEMB     206      POPC     O14      O2L     -0.780000       15.9994           0
     27199 MEMB     206      POPC     O12      OSLP    -0.570000       15.9994           0
     27200 MEMB     206      POPC     O11      OSLP    -0.570000       15.9994           0
     27201 MEMB     206      POPC     C1       CTL2    -0.800000E-01   12.0110           0
     27202 MEMB     206      POPC     HA       HAL2     0.900000E-01   1.00800           0
     27203 MEMB     206      POPC     HB       HAL2     0.900000E-01   1.00800           0
     27204 MEMB     206      POPC     C2       CTL1     0.170000       12.0110           0
     27205 MEMB     206      POPC     HS       HAL1     0.900000E-01   1.00800           0
     27206 MEMB     206      POPC     O21      OSL     -0.490000       15.9994           0
     27207 MEMB     206      POPC     C21      CL       0.900000       12.0110           0
     27208 MEMB     206      POPC     O22      OBL     -0.630000       15.9994           0
     27209 MEMB     206      POPC     C22      CTL2    -0.220000       12.0110           0
     27210 MEMB     206      POPC     H2R      HAL2     0.900000E-01   1.00800           0
     27211 MEMB     206      POPC     H2S      HAL2     0.900000E-01   1.00800           0
     27212 MEMB     206      POPC     C3       CTL2     0.800000E-01   12.0110           0
     27213 MEMB     206      POPC     HX       HAL2     0.900000E-01   1.00800           0
     27214 MEMB     206      POPC     HY       HAL2     0.900000E-01   1.00800           0
     27215 MEMB     206      POPC     O31      OSL     -0.490000       15.9994           0
     27216 MEMB     206      POPC     C31      CL       0.900000       12.0110           0
     27217 MEMB     206      POPC     O32      OBL     -0.630000       15.9994           0
     27218 MEMB     206      POPC     C32      CTL2    -0.220000       12.0110           0
     27219 MEMB     206      POPC     H2X      HAL2     0.900000E-01   1.00800           0
     27220 MEMB     206      POPC     H2Y      HAL2     0.900000E-01   1.00800           0
     27221 MEMB     206      POPC     C23      CTL2    -0.180000       12.0110           0
     27222 MEMB     206      POPC     H3R      HAL2     0.900000E-01   1.00800           0
     27223 MEMB     206      POPC     H3S      HAL2     0.900000E-01   1.00800           0
     27224 MEMB     206      POPC     C24      CTL2    -0.180000       12.0110           0
     27225 MEMB     206      POPC     H4R      HAL2     0.900000E-01   1.00800           0
     27226 MEMB     206      POPC     H4S      HAL2     0.900000E-01   1.00800           0
     27227 MEMB     206      POPC     C25      CTL2    -0.180000       12.0110           0
     27228 MEMB     206      POPC     H5R      HAL2     0.900000E-01   1.00800           0
     27229 MEMB     206      POPC     H5S      HAL2     0.900000E-01   1.00800           0
     27230 MEMB     206      POPC     C26      CTL2    -0.180000       12.0110           0
     27231 MEMB     206      POPC     H6R      HAL2     0.900000E-01   1.00800           0
     27232 MEMB     206      POPC     H6S      HAL2     0.900000E-01   1.00800           0
     27233 MEMB     206      POPC     C27      CTL2    -0.180000       12.0110           0
     27234 MEMB     206      POPC     H7R      HAL2     0.900000E-01   1.00800           0
     27235 MEMB     206      POPC     H7S      HAL2     0.900000E-01   1.00800           0
     27236 MEMB     206      POPC     C28      CTL2    -0.180000       12.0110           0
     27237 MEMB     206      POPC     H8R      HAL2     0.900000E-01   1.00800           0
     27238 MEMB     206      POPC     H8S      HAL2     0.900000E-01   1.00800           0
     27239 MEMB     206      POPC     C29      CEL1    -0.150000       12.0110           0
     27240 MEMB     206      POPC     H91      HEL1     0.150000       1.00800           0
     27241 MEMB     206      POPC     C210     CEL1    -0.150000       12.0110           0
     27242 MEMB     206      POPC     H101     HEL1     0.150000       1.00800           0
     27243 MEMB     206      POPC     C211     CTL2    -0.180000       12.0110           0
     27244 MEMB     206      POPC     H11R     HAL2     0.900000E-01   1.00800           0
     27245 MEMB     206      POPC     H11S     HAL2     0.900000E-01   1.00800           0
     27246 MEMB     206      POPC     C212     CTL2    -0.180000       12.0110           0
     27247 MEMB     206      POPC     H12R     HAL2     0.900000E-01   1.00800           0
     27248 MEMB     206      POPC     H12S     HAL2     0.900000E-01   1.00800           0
     27249 MEMB     206      POPC     C213     CTL2    -0.180000       12.0110           0
     27250 MEMB     206      POPC     H13R     HAL2     0.900000E-01   1.00800           0
     27251 MEMB     206      POPC     H13S     HAL2     0.900000E-01   1.00800           0
     27252 MEMB     206      POPC     C214     CTL2    -0.180000       12.0110           0
     27253 MEMB     206      POPC     H14R     HAL2     0.900000E-01   1.00800           0
     27254 MEMB     206      POPC     H14S     HAL2     0.900000E-01   1.00800           0
     27255 MEMB     206      POPC     C215     CTL2    -0.180000       12.0110           0
     27256 MEMB     206      POPC     H15R     HAL2     0.900000E-01   1.00800           0
     27257 MEMB     206      POPC     H15S     HAL2     0.900000E-01   1.00800           0
     27258 MEMB     206      POPC     C216     CTL2    -0.180000       12.0110           0
     27259 MEMB     206      POPC     H16R     HAL2     0.900000E-01   1.00800           0
     27260 MEMB     206      POPC     H16S     HAL2     0.900000E-01   1.00800           0
     27261 MEMB     206      POPC     C217     CTL2    -0.180000       12.0110           0
     27262 MEMB     206      POPC     H17R     HAL2     0.900000E-01   1.00800           0
     27263 MEMB     206      POPC     H17S     HAL2     0.900000E-01   1.00800           0
     27264 MEMB     206      POPC     C218     CTL3    -0.270000       12.0110           0
     27265 MEMB     206      POPC     H18R     HAL3     0.900000E-01   1.00800           0
     27266 MEMB     206      POPC     H18S     HAL3     0.900000E-01   1.00800           0
     27267 MEMB     206      POPC     H18T     HAL3     0.900000E-01   1.00800           0
     27268 MEMB     206      POPC     C33      CTL2    -0.180000       12.0110           0
     27269 MEMB     206      POPC     H3X      HAL2     0.900000E-01   1.00800           0
     27270 MEMB     206      POPC     H3Y      HAL2     0.900000E-01   1.00800           0
     27271 MEMB     206      POPC     C34      CTL2    -0.180000       12.0110           0
     27272 MEMB     206      POPC     H4X      HAL2     0.900000E-01   1.00800           0
     27273 MEMB     206      POPC     H4Y      HAL2     0.900000E-01   1.00800           0
     27274 MEMB     206      POPC     C35      CTL2    -0.180000       12.0110           0
     27275 MEMB     206      POPC     H5X      HAL2     0.900000E-01   1.00800           0
     27276 MEMB     206      POPC     H5Y      HAL2     0.900000E-01   1.00800           0
     27277 MEMB     206      POPC     C36      CTL2    -0.180000       12.0110           0
     27278 MEMB     206      POPC     H6X      HAL2     0.900000E-01   1.00800           0
     27279 MEMB     206      POPC     H6Y      HAL2     0.900000E-01   1.00800           0
     27280 MEMB     206      POPC     C37      CTL2    -0.180000       12.0110           0
     27281 MEMB     206      POPC     H7X      HAL2     0.900000E-01   1.00800           0
     27282 MEMB     206      POPC     H7Y      HAL2     0.900000E-01   1.00800           0
     27283 MEMB     206      POPC     C38      CTL2    -0.180000       12.0110           0
     27284 MEMB     206      POPC     H8X      HAL2     0.900000E-01   1.00800           0
     27285 MEMB     206      POPC     H8Y      HAL2     0.900000E-01   1.00800           0
     27286 MEMB     206      POPC     C39      CTL2    -0.180000       12.0110           0
     27287 MEMB     206      POPC     H9X      HAL2     0.900000E-01   1.00800           0
     27288 MEMB     206      POPC     H9Y      HAL2     0.900000E-01   1.00800           0
     27289 MEMB     206      POPC     C310     CTL2    -0.180000       12.0110           0
     27290 MEMB     206      POPC     H10X     HAL2     0.900000E-01   1.00800           0
     27291 MEMB     206      POPC     H10Y     HAL2     0.900000E-01   1.00800           0
     27292 MEMB     206      POPC     C311     CTL2    -0.180000       12.0110           0
     27293 MEMB     206      POPC     H11X     HAL2     0.900000E-01   1.00800           0
     27294 MEMB     206      POPC     H11Y     HAL2     0.900000E-01   1.00800           0
     27295 MEMB     206      POPC     C312     CTL2    -0.180000       12.0110           0
     27296 MEMB     206      POPC     H12X     HAL2     0.900000E-01   1.00800           0
     27297 MEMB     206      POPC     H12Y     HAL2     0.900000E-01   1.00800           0
     27298 MEMB     206      POPC     C313     CTL2    -0.180000       12.0110           0
     27299 MEMB     206      POPC     H13X     HAL2     0.900000E-01   1.00800           0
     27300 MEMB     206      POPC     H13Y     HAL2     0.900000E-01   1.00800           0
     27301 MEMB     206      POPC     C314     CTL2    -0.180000       12.0110           0
     27302 MEMB     206      POPC     H14X     HAL2     0.900000E-01   1.00800           0
     27303 MEMB     206      POPC     H14Y     HAL2     0.900000E-01   1.00800           0
     27304 MEMB     206      POPC     C315     CTL2    -0.180000       12.0110           0
     27305 MEMB     206      POPC     H15X     HAL2     0.900000E-01   1.00800           0
     27306 MEMB     206      POPC     H15Y     HAL2     0.900000E-01   1.00800           0
     27307 MEMB     206      POPC     C316     CTL3    -0.270000       12.0110           0
     27308 MEMB     206      POPC     H16X     HAL3     0.900000E-01   1.00800           0
     27309 MEMB     206      POPC     H16Y     HAL3     0.900000E-01   1.00800           0
     27310 MEMB     206      POPC     H16Z     HAL3     0.900000E-01   1.00800           0
     27311 MEMB     207      POPC     N        NTL     -0.600000       14.0070           0
     27312 MEMB     207      POPC     C12      CTL2    -0.100000       12.0110           0
     27313 MEMB     207      POPC     H12A     HL       0.250000       1.00800           0
     27314 MEMB     207      POPC     H12B     HL       0.250000       1.00800           0
     27315 MEMB     207      POPC     C13      CTL5    -0.350000       12.0110           0
     27316 MEMB     207      POPC     H13A     HL       0.250000       1.00800           0
     27317 MEMB     207      POPC     H13B     HL       0.250000       1.00800           0
     27318 MEMB     207      POPC     H13C     HL       0.250000       1.00800           0
     27319 MEMB     207      POPC     C14      CTL5    -0.350000       12.0110           0
     27320 MEMB     207      POPC     H14A     HL       0.250000       1.00800           0
     27321 MEMB     207      POPC     H14B     HL       0.250000       1.00800           0
     27322 MEMB     207      POPC     H14C     HL       0.250000       1.00800           0
     27323 MEMB     207      POPC     C15      CTL5    -0.350000       12.0110           0
     27324 MEMB     207      POPC     H15A     HL       0.250000       1.00800           0
     27325 MEMB     207      POPC     H15B     HL       0.250000       1.00800           0
     27326 MEMB     207      POPC     H15C     HL       0.250000       1.00800           0
     27327 MEMB     207      POPC     C11      CTL2    -0.800000E-01   12.0110           0
     27328 MEMB     207      POPC     H11A     HAL2     0.900000E-01   1.00800           0
     27329 MEMB     207      POPC     H11B     HAL2     0.900000E-01   1.00800           0
     27330 MEMB     207      POPC     P        PL        1.50000       30.9740           0
     27331 MEMB     207      POPC     O13      O2L     -0.780000       15.9994           0
     27332 MEMB     207      POPC     O14      O2L     -0.780000       15.9994           0
     27333 MEMB     207      POPC     O12      OSLP    -0.570000       15.9994           0
     27334 MEMB     207      POPC     O11      OSLP    -0.570000       15.9994           0
     27335 MEMB     207      POPC     C1       CTL2    -0.800000E-01   12.0110           0
     27336 MEMB     207      POPC     HA       HAL2     0.900000E-01   1.00800           0
     27337 MEMB     207      POPC     HB       HAL2     0.900000E-01   1.00800           0
     27338 MEMB     207      POPC     C2       CTL1     0.170000       12.0110           0
     27339 MEMB     207      POPC     HS       HAL1     0.900000E-01   1.00800           0
     27340 MEMB     207      POPC     O21      OSL     -0.490000       15.9994           0
     27341 MEMB     207      POPC     C21      CL       0.900000       12.0110           0
     27342 MEMB     207      POPC     O22      OBL     -0.630000       15.9994           0
     27343 MEMB     207      POPC     C22      CTL2    -0.220000       12.0110           0
     27344 MEMB     207      POPC     H2R      HAL2     0.900000E-01   1.00800           0
     27345 MEMB     207      POPC     H2S      HAL2     0.900000E-01   1.00800           0
     27346 MEMB     207      POPC     C3       CTL2     0.800000E-01   12.0110           0
     27347 MEMB     207      POPC     HX       HAL2     0.900000E-01   1.00800           0
     27348 MEMB     207      POPC     HY       HAL2     0.900000E-01   1.00800           0
     27349 MEMB     207      POPC     O31      OSL     -0.490000       15.9994           0
     27350 MEMB     207      POPC     C31      CL       0.900000       12.0110           0
     27351 MEMB     207      POPC     O32      OBL     -0.630000       15.9994           0
     27352 MEMB     207      POPC     C32      CTL2    -0.220000       12.0110           0
     27353 MEMB     207      POPC     H2X      HAL2     0.900000E-01   1.00800           0
     27354 MEMB     207      POPC     H2Y      HAL2     0.900000E-01   1.00800           0
     27355 MEMB     207      POPC     C23      CTL2    -0.180000       12.0110           0
     27356 MEMB     207      POPC     H3R      HAL2     0.900000E-01   1.00800           0
     27357 MEMB     207      POPC     H3S      HAL2     0.900000E-01   1.00800           0
     27358 MEMB     207      POPC     C24      CTL2    -0.180000       12.0110           0
     27359 MEMB     207      POPC     H4R      HAL2     0.900000E-01   1.00800           0
     27360 MEMB     207      POPC     H4S      HAL2     0.900000E-01   1.00800           0
     27361 MEMB     207      POPC     C25      CTL2    -0.180000       12.0110           0
     27362 MEMB     207      POPC     H5R      HAL2     0.900000E-01   1.00800           0
     27363 MEMB     207      POPC     H5S      HAL2     0.900000E-01   1.00800           0
     27364 MEMB     207      POPC     C26      CTL2    -0.180000       12.0110           0
     27365 MEMB     207      POPC     H6R      HAL2     0.900000E-01   1.00800           0
     27366 MEMB     207      POPC     H6S      HAL2     0.900000E-01   1.00800           0
     27367 MEMB     207      POPC     C27      CTL2    -0.180000       12.0110           0
     27368 MEMB     207      POPC     H7R      HAL2     0.900000E-01   1.00800           0
     27369 MEMB     207      POPC     H7S      HAL2     0.900000E-01   1.00800           0
     27370 MEMB     207      POPC     C28      CTL2    -0.180000       12.0110           0
     27371 MEMB     207      POPC     H8R      HAL2     0.900000E-01   1.00800           0
     27372 MEMB     207      POPC     H8S      HAL2     0.900000E-01   1.00800           0
     27373 MEMB     207      POPC     C29      CEL1    -0.150000       12.0110           0
     27374 MEMB     207      POPC     H91      HEL1     0.150000       1.00800           0
     27375 MEMB     207      POPC     C210     CEL1    -0.150000       12.0110           0
     27376 MEMB     207      POPC     H101     HEL1     0.150000       1.00800           0
     27377 MEMB     207      POPC     C211     CTL2    -0.180000       12.0110           0
     27378 MEMB     207      POPC     H11R     HAL2     0.900000E-01   1.00800           0
     27379 MEMB     207      POPC     H11S     HAL2     0.900000E-01   1.00800           0
     27380 MEMB     207      POPC     C212     CTL2    -0.180000       12.0110           0
     27381 MEMB     207      POPC     H12R     HAL2     0.900000E-01   1.00800           0
     27382 MEMB     207      POPC     H12S     HAL2     0.900000E-01   1.00800           0
     27383 MEMB     207      POPC     C213     CTL2    -0.180000       12.0110           0
     27384 MEMB     207      POPC     H13R     HAL2     0.900000E-01   1.00800           0
     27385 MEMB     207      POPC     H13S     HAL2     0.900000E-01   1.00800           0
     27386 MEMB     207      POPC     C214     CTL2    -0.180000       12.0110           0
     27387 MEMB     207      POPC     H14R     HAL2     0.900000E-01   1.00800           0
     27388 MEMB     207      POPC     H14S     HAL2     0.900000E-01   1.00800           0
     27389 MEMB     207      POPC     C215     CTL2    -0.180000       12.0110           0
     27390 MEMB     207      POPC     H15R     HAL2     0.900000E-01   1.00800           0
     27391 MEMB     207      POPC     H15S     HAL2     0.900000E-01   1.00800           0
     27392 MEMB     207      POPC     C216     CTL2    -0.180000       12.0110           0
     27393 MEMB     207      POPC     H16R     HAL2     0.900000E-01   1.00800           0
     27394 MEMB     207      POPC     H16S     HAL2     0.900000E-01   1.00800           0
     27395 MEMB     207      POPC     C217     CTL2    -0.180000       12.0110           0
     27396 MEMB     207      POPC     H17R     HAL2     0.900000E-01   1.00800           0
     27397 MEMB     207      POPC     H17S     HAL2     0.900000E-01   1.00800           0
     27398 MEMB     207      POPC     C218     CTL3    -0.270000       12.0110           0
     27399 MEMB     207      POPC     H18R     HAL3     0.900000E-01   1.00800           0
     27400 MEMB     207      POPC     H18S     HAL3     0.900000E-01   1.00800           0
     27401 MEMB     207      POPC     H18T     HAL3     0.900000E-01   1.00800           0
     27402 MEMB     207      POPC     C33      CTL2    -0.180000       12.0110           0
     27403 MEMB     207      POPC     H3X      HAL2     0.900000E-01   1.00800           0
     27404 MEMB     207      POPC     H3Y      HAL2     0.900000E-01   1.00800           0
     27405 MEMB     207      POPC     C34      CTL2    -0.180000       12.0110           0
     27406 MEMB     207      POPC     H4X      HAL2     0.900000E-01   1.00800           0
     27407 MEMB     207      POPC     H4Y      HAL2     0.900000E-01   1.00800           0
     27408 MEMB     207      POPC     C35      CTL2    -0.180000       12.0110           0
     27409 MEMB     207      POPC     H5X      HAL2     0.900000E-01   1.00800           0
     27410 MEMB     207      POPC     H5Y      HAL2     0.900000E-01   1.00800           0
     27411 MEMB     207      POPC     C36      CTL2    -0.180000       12.0110           0
     27412 MEMB     207      POPC     H6X      HAL2     0.900000E-01   1.00800           0
     27413 MEMB     207      POPC     H6Y      HAL2     0.900000E-01   1.00800           0
     27414 MEMB     207      POPC     C37      CTL2    -0.180000       12.0110           0
     27415 MEMB     207      POPC     H7X      HAL2     0.900000E-01   1.00800           0
     27416 MEMB     207      POPC     H7Y      HAL2     0.900000E-01   1.00800           0
     27417 MEMB     207      POPC     C38      CTL2    -0.180000       12.0110           0
     27418 MEMB     207      POPC     H8X      HAL2     0.900000E-01   1.00800           0
     27419 MEMB     207      POPC     H8Y      HAL2     0.900000E-01   1.00800           0
     27420 MEMB     207      POPC     C39      CTL2    -0.180000       12.0110           0
     27421 MEMB     207      POPC     H9X      HAL2     0.900000E-01   1.00800           0
     27422 MEMB     207      POPC     H9Y      HAL2     0.900000E-01   1.00800           0
     27423 MEMB     207      POPC     C310     CTL2    -0.180000       12.0110           0
     27424 MEMB     207      POPC     H10X     HAL2     0.900000E-01   1.00800           0
     27425 MEMB     207      POPC     H10Y     HAL2     0.900000E-01   1.00800           0
     27426 MEMB     207      POPC     C311     CTL2    -0.180000       12.0110           0
     27427 MEMB     207      POPC     H11X     HAL2     0.900000E-01   1.00800           0
     27428 MEMB     207      POPC     H11Y     HAL2     0.900000E-01   1.00800           0
     27429 MEMB     207      POPC     C312     CTL2    -0.180000       12.0110           0
     27430 MEMB     207      POPC     H12X     HAL2     0.900000E-01   1.00800           0
     27431 MEMB     207      POPC     H12Y     HAL2     0.900000E-01   1.00800           0
     27432 MEMB     207      POPC     C313     CTL2    -0.180000       12.0110           0
     27433 MEMB     207      POPC     H13X     HAL2     0.900000E-01   1.00800           0
     27434 MEMB     207      POPC     H13Y     HAL2     0.900000E-01   1.00800           0
     27435 MEMB     207      POPC     C314     CTL2    -0.180000       12.0110           0
     27436 MEMB     207      POPC     H14X     HAL2     0.900000E-01   1.00800           0
     27437 MEMB     207      POPC     H14Y     HAL2     0.900000E-01   1.00800           0
     27438 MEMB     207      POPC     C315     CTL2    -0.180000       12.0110           0
     27439 MEMB     207      POPC     H15X     HAL2     0.900000E-01   1.00800           0
     27440 MEMB     207      POPC     H15Y     HAL2     0.900000E-01   1.00800           0
     27441 MEMB     207      POPC     C316     CTL3    -0.270000       12.0110           0
     27442 MEMB     207      POPC     H16X     HAL3     0.900000E-01   1.00800           0
     27443 MEMB     207      POPC     H16Y     HAL3     0.900000E-01   1.00800           0
     27444 MEMB     207      POPC     H16Z     HAL3     0.900000E-01   1.00800           0
     27445 MEMB     208      POPC     N        NTL     -0.600000       14.0070           0
     27446 MEMB     208      POPC     C12      CTL2    -0.100000       12.0110           0
     27447 MEMB     208      POPC     H12A     HL       0.250000       1.00800           0
     27448 MEMB     208      POPC     H12B     HL       0.250000       1.00800           0
     27449 MEMB     208      POPC     C13      CTL5    -0.350000       12.0110           0
     27450 MEMB     208      POPC     H13A     HL       0.250000       1.00800           0
     27451 MEMB     208      POPC     H13B     HL       0.250000       1.00800           0
     27452 MEMB     208      POPC     H13C     HL       0.250000       1.00800           0
     27453 MEMB     208      POPC     C14      CTL5    -0.350000       12.0110           0
     27454 MEMB     208      POPC     H14A     HL       0.250000       1.00800           0
     27455 MEMB     208      POPC     H14B     HL       0.250000       1.00800           0
     27456 MEMB     208      POPC     H14C     HL       0.250000       1.00800           0
     27457 MEMB     208      POPC     C15      CTL5    -0.350000       12.0110           0
     27458 MEMB     208      POPC     H15A     HL       0.250000       1.00800           0
     27459 MEMB     208      POPC     H15B     HL       0.250000       1.00800           0
     27460 MEMB     208      POPC     H15C     HL       0.250000       1.00800           0
     27461 MEMB     208      POPC     C11      CTL2    -0.800000E-01   12.0110           0
     27462 MEMB     208      POPC     H11A     HAL2     0.900000E-01   1.00800           0
     27463 MEMB     208      POPC     H11B     HAL2     0.900000E-01   1.00800           0
     27464 MEMB     208      POPC     P        PL        1.50000       30.9740           0
     27465 MEMB     208      POPC     O13      O2L     -0.780000       15.9994           0
     27466 MEMB     208      POPC     O14      O2L     -0.780000       15.9994           0
     27467 MEMB     208      POPC     O12      OSLP    -0.570000       15.9994           0
     27468 MEMB     208      POPC     O11      OSLP    -0.570000       15.9994           0
     27469 MEMB     208      POPC     C1       CTL2    -0.800000E-01   12.0110           0
     27470 MEMB     208      POPC     HA       HAL2     0.900000E-01   1.00800           0
     27471 MEMB     208      POPC     HB       HAL2     0.900000E-01   1.00800           0
     27472 MEMB     208      POPC     C2       CTL1     0.170000       12.0110           0
     27473 MEMB     208      POPC     HS       HAL1     0.900000E-01   1.00800           0
     27474 MEMB     208      POPC     O21      OSL     -0.490000       15.9994           0
     27475 MEMB     208      POPC     C21      CL       0.900000       12.0110           0
     27476 MEMB     208      POPC     O22      OBL     -0.630000       15.9994           0
     27477 MEMB     208      POPC     C22      CTL2    -0.220000       12.0110           0
     27478 MEMB     208      POPC     H2R      HAL2     0.900000E-01   1.00800           0
     27479 MEMB     208      POPC     H2S      HAL2     0.900000E-01   1.00800           0
     27480 MEMB     208      POPC     C3       CTL2     0.800000E-01   12.0110           0
     27481 MEMB     208      POPC     HX       HAL2     0.900000E-01   1.00800           0
     27482 MEMB     208      POPC     HY       HAL2     0.900000E-01   1.00800           0
     27483 MEMB     208      POPC     O31      OSL     -0.490000       15.9994           0
     27484 MEMB     208      POPC     C31      CL       0.900000       12.0110           0
     27485 MEMB     208      POPC     O32      OBL     -0.630000       15.9994           0
     27486 MEMB     208      POPC     C32      CTL2    -0.220000       12.0110           0
     27487 MEMB     208      POPC     H2X      HAL2     0.900000E-01   1.00800           0
     27488 MEMB     208      POPC     H2Y      HAL2     0.900000E-01   1.00800           0
     27489 MEMB     208      POPC     C23      CTL2    -0.180000       12.0110           0
     27490 MEMB     208      POPC     H3R      HAL2     0.900000E-01   1.00800           0
     27491 MEMB     208      POPC     H3S      HAL2     0.900000E-01   1.00800           0
     27492 MEMB     208      POPC     C24      CTL2    -0.180000       12.0110           0
     27493 MEMB     208      POPC     H4R      HAL2     0.900000E-01   1.00800           0
     27494 MEMB     208      POPC     H4S      HAL2     0.900000E-01   1.00800           0
     27495 MEMB     208      POPC     C25      CTL2    -0.180000       12.0110           0
     27496 MEMB     208      POPC     H5R      HAL2     0.900000E-01   1.00800           0
     27497 MEMB     208      POPC     H5S      HAL2     0.900000E-01   1.00800           0
     27498 MEMB     208      POPC     C26      CTL2    -0.180000       12.0110           0
     27499 MEMB     208      POPC     H6R      HAL2     0.900000E-01   1.00800           0
     27500 MEMB     208      POPC     H6S      HAL2     0.900000E-01   1.00800           0
     27501 MEMB     208      POPC     C27      CTL2    -0.180000       12.0110           0
     27502 MEMB     208      POPC     H7R      HAL2     0.900000E-01   1.00800           0
     27503 MEMB     208      POPC     H7S      HAL2     0.900000E-01   1.00800           0
     27504 MEMB     208      POPC     C28      CTL2    -0.180000       12.0110           0
     27505 MEMB     208      POPC     H8R      HAL2     0.900000E-01   1.00800           0
     27506 MEMB     208      POPC     H8S      HAL2     0.900000E-01   1.00800           0
     27507 MEMB     208      POPC     C29      CEL1    -0.150000       12.0110           0
     27508 MEMB     208      POPC     H91      HEL1     0.150000       1.00800           0
     27509 MEMB     208      POPC     C210     CEL1    -0.150000       12.0110           0
     27510 MEMB     208      POPC     H101     HEL1     0.150000       1.00800           0
     27511 MEMB     208      POPC     C211     CTL2    -0.180000       12.0110           0
     27512 MEMB     208      POPC     H11R     HAL2     0.900000E-01   1.00800           0
     27513 MEMB     208      POPC     H11S     HAL2     0.900000E-01   1.00800           0
     27514 MEMB     208      POPC     C212     CTL2    -0.180000       12.0110           0
     27515 MEMB     208      POPC     H12R     HAL2     0.900000E-01   1.00800           0
     27516 MEMB     208      POPC     H12S     HAL2     0.900000E-01   1.00800           0
     27517 MEMB     208      POPC     C213     CTL2    -0.180000       12.0110           0
     27518 MEMB     208      POPC     H13R     HAL2     0.900000E-01   1.00800           0
     27519 MEMB     208      POPC     H13S     HAL2     0.900000E-01   1.00800           0
     27520 MEMB     208      POPC     C214     CTL2    -0.180000       12.0110           0
     27521 MEMB     208      POPC     H14R     HAL2     0.900000E-01   1.00800           0
     27522 MEMB     208      POPC     H14S     HAL2     0.900000E-01   1.00800           0
     27523 MEMB     208      POPC     C215     CTL2    -0.180000       12.0110           0
     27524 MEMB     208      POPC     H15R     HAL2     0.900000E-01   1.00800           0
     27525 MEMB     208      POPC     H15S     HAL2     0.900000E-01   1.00800           0
     27526 MEMB     208      POPC     C216     CTL2    -0.180000       12.0110           0
     27527 MEMB     208      POPC     H16R     HAL2     0.900000E-01   1.00800           0
     27528 MEMB     208      POPC     H16S     HAL2     0.900000E-01   1.00800           0
     27529 MEMB     208      POPC     C217     CTL2    -0.180000       12.0110           0
     27530 MEMB     208      POPC     H17R     HAL2     0.900000E-01   1.00800           0
     27531 MEMB     208      POPC     H17S     HAL2     0.900000E-01   1.00800           0
     27532 MEMB     208      POPC     C218     CTL3    -0.270000       12.0110           0
     27533 MEMB     208      POPC     H18R     HAL3     0.900000E-01   1.00800           0
     27534 MEMB     208      POPC     H18S     HAL3     0.900000E-01   1.00800           0
     27535 MEMB     208      POPC     H18T     HAL3     0.900000E-01   1.00800           0
     27536 MEMB     208      POPC     C33      CTL2    -0.180000       12.0110           0
     27537 MEMB     208      POPC     H3X      HAL2     0.900000E-01   1.00800           0
     27538 MEMB     208      POPC     H3Y      HAL2     0.900000E-01   1.00800           0
     27539 MEMB     208      POPC     C34      CTL2    -0.180000       12.0110           0
     27540 MEMB     208      POPC     H4X      HAL2     0.900000E-01   1.00800           0
     27541 MEMB     208      POPC     H4Y      HAL2     0.900000E-01   1.00800           0
     27542 MEMB     208      POPC     C35      CTL2    -0.180000       12.0110           0
     27543 MEMB     208      POPC     H5X      HAL2     0.900000E-01   1.00800           0
     27544 MEMB     208      POPC     H5Y      HAL2     0.900000E-01   1.00800           0
     27545 MEMB     208      POPC     C36      CTL2    -0.180000       12.0110           0
     27546 MEMB     208      POPC     H6X      HAL2     0.900000E-01   1.00800           0
     27547 MEMB     208      POPC     H6Y      HAL2     0.900000E-01   1.00800           0
     27548 MEMB     208      POPC     C37      CTL2    -0.180000       12.0110           0
     27549 MEMB     208      POPC     H7X      HAL2     0.900000E-01   1.00800           0
     27550 MEMB     208      POPC     H7Y      HAL2     0.900000E-01   1.00800           0
     27551 MEMB     208      POPC     C38      CTL2    -0.180000       12.0110           0
     27552 MEMB     208      POPC     H8X      HAL2     0.900000E-01   1.00800           0
     27553 MEMB     208      POPC     H8Y      HAL2     0.900000E-01   1.00800           0
     27554 MEMB     208      POPC     C39      CTL2    -0.180000       12.0110           0
     27555 MEMB     208      POPC     H9X      HAL2     0.900000E-01   1.00800           0
     27556 MEMB     208      POPC     H9Y      HAL2     0.900000E-01   1.00800           0
     27557 MEMB     208      POPC     C310     CTL2    -0.180000       12.0110           0
     27558 MEMB     208      POPC     H10X     HAL2     0.900000E-01   1.00800           0
     27559 MEMB     208      POPC     H10Y     HAL2     0.900000E-01   1.00800           0
     27560 MEMB     208      POPC     C311     CTL2    -0.180000       12.0110           0
     27561 MEMB     208      POPC     H11X     HAL2     0.900000E-01   1.00800           0
     27562 MEMB     208      POPC     H11Y     HAL2     0.900000E-01   1.00800           0
     27563 MEMB     208      POPC     C312     CTL2    -0.180000       12.0110           0
     27564 MEMB     208      POPC     H12X     HAL2     0.900000E-01   1.00800           0
     27565 MEMB     208      POPC     H12Y     HAL2     0.900000E-01   1.00800           0
     27566 MEMB     208      POPC     C313     CTL2    -0.180000       12.0110           0
     27567 MEMB     208      POPC     H13X     HAL2     0.900000E-01   1.00800           0
     27568 MEMB     208      POPC     H13Y     HAL2     0.900000E-01   1.00800           0
     27569 MEMB     208      POPC     C314     CTL2    -0.180000       12.0110           0
     27570 MEMB     208      POPC     H14X     HAL2     0.900000E-01   1.00800           0
     27571 MEMB     208      POPC     H14Y     HAL2     0.900000E-01   1.00800           0
     27572 MEMB     208      POPC     C315     CTL2    -0.180000       12.0110           0
     27573 MEMB     208      POPC     H15X     HAL2     0.900000E-01   1.00800           0
     27574 MEMB     208      POPC     H15Y     HAL2     0.900000E-01   1.00800           0
     27575 MEMB     208      POPC     C316     CTL3    -0.270000       12.0110           0
     27576 MEMB     208      POPC     H16X     HAL3     0.900000E-01   1.00800           0
     27577 MEMB     208      POPC     H16Y     HAL3     0.900000E-01   1.00800           0
     27578 MEMB     208      POPC     H16Z     HAL3     0.900000E-01   1.00800           0
     27579 MEMB     209      POPC     N        NTL     -0.600000       14.0070           0
     27580 MEMB     209      POPC     C12      CTL2    -0.100000       12.0110           0
     27581 MEMB     209      POPC     H12A     HL       0.250000       1.00800           0
     27582 MEMB     209      POPC     H12B     HL       0.250000       1.00800           0
     27583 MEMB     209      POPC     C13      CTL5    -0.350000       12.0110           0
     27584 MEMB     209      POPC     H13A     HL       0.250000       1.00800           0
     27585 MEMB     209      POPC     H13B     HL       0.250000       1.00800           0
     27586 MEMB     209      POPC     H13C     HL       0.250000       1.00800           0
     27587 MEMB     209      POPC     C14      CTL5    -0.350000       12.0110           0
     27588 MEMB     209      POPC     H14A     HL       0.250000       1.00800           0
     27589 MEMB     209      POPC     H14B     HL       0.250000       1.00800           0
     27590 MEMB     209      POPC     H14C     HL       0.250000       1.00800           0
     27591 MEMB     209      POPC     C15      CTL5    -0.350000       12.0110           0
     27592 MEMB     209      POPC     H15A     HL       0.250000       1.00800           0
     27593 MEMB     209      POPC     H15B     HL       0.250000       1.00800           0
     27594 MEMB     209      POPC     H15C     HL       0.250000       1.00800           0
     27595 MEMB     209      POPC     C11      CTL2    -0.800000E-01   12.0110           0
     27596 MEMB     209      POPC     H11A     HAL2     0.900000E-01   1.00800           0
     27597 MEMB     209      POPC     H11B     HAL2     0.900000E-01   1.00800           0
     27598 MEMB     209      POPC     P        PL        1.50000       30.9740           0
     27599 MEMB     209      POPC     O13      O2L     -0.780000       15.9994           0
     27600 MEMB     209      POPC     O14      O2L     -0.780000       15.9994           0
     27601 MEMB     209      POPC     O12      OSLP    -0.570000       15.9994           0
     27602 MEMB     209      POPC     O11      OSLP    -0.570000       15.9994           0
     27603 MEMB     209      POPC     C1       CTL2    -0.800000E-01   12.0110           0
     27604 MEMB     209      POPC     HA       HAL2     0.900000E-01   1.00800           0
     27605 MEMB     209      POPC     HB       HAL2     0.900000E-01   1.00800           0
     27606 MEMB     209      POPC     C2       CTL1     0.170000       12.0110           0
     27607 MEMB     209      POPC     HS       HAL1     0.900000E-01   1.00800           0
     27608 MEMB     209      POPC     O21      OSL     -0.490000       15.9994           0
     27609 MEMB     209      POPC     C21      CL       0.900000       12.0110           0
     27610 MEMB     209      POPC     O22      OBL     -0.630000       15.9994           0
     27611 MEMB     209      POPC     C22      CTL2    -0.220000       12.0110           0
     27612 MEMB     209      POPC     H2R      HAL2     0.900000E-01   1.00800           0
     27613 MEMB     209      POPC     H2S      HAL2     0.900000E-01   1.00800           0
     27614 MEMB     209      POPC     C3       CTL2     0.800000E-01   12.0110           0
     27615 MEMB     209      POPC     HX       HAL2     0.900000E-01   1.00800           0
     27616 MEMB     209      POPC     HY       HAL2     0.900000E-01   1.00800           0
     27617 MEMB     209      POPC     O31      OSL     -0.490000       15.9994           0
     27618 MEMB     209      POPC     C31      CL       0.900000       12.0110           0
     27619 MEMB     209      POPC     O32      OBL     -0.630000       15.9994           0
     27620 MEMB     209      POPC     C32      CTL2    -0.220000       12.0110           0
     27621 MEMB     209      POPC     H2X      HAL2     0.900000E-01   1.00800           0
     27622 MEMB     209      POPC     H2Y      HAL2     0.900000E-01   1.00800           0
     27623 MEMB     209      POPC     C23      CTL2    -0.180000       12.0110           0
     27624 MEMB     209      POPC     H3R      HAL2     0.900000E-01   1.00800           0
     27625 MEMB     209      POPC     H3S      HAL2     0.900000E-01   1.00800           0
     27626 MEMB     209      POPC     C24      CTL2    -0.180000       12.0110           0
     27627 MEMB     209      POPC     H4R      HAL2     0.900000E-01   1.00800           0
     27628 MEMB     209      POPC     H4S      HAL2     0.900000E-01   1.00800           0
     27629 MEMB     209      POPC     C25      CTL2    -0.180000       12.0110           0
     27630 MEMB     209      POPC     H5R      HAL2     0.900000E-01   1.00800           0
     27631 MEMB     209      POPC     H5S      HAL2     0.900000E-01   1.00800           0
     27632 MEMB     209      POPC     C26      CTL2    -0.180000       12.0110           0
     27633 MEMB     209      POPC     H6R      HAL2     0.900000E-01   1.00800           0
     27634 MEMB     209      POPC     H6S      HAL2     0.900000E-01   1.00800           0
     27635 MEMB     209      POPC     C27      CTL2    -0.180000       12.0110           0
     27636 MEMB     209      POPC     H7R      HAL2     0.900000E-01   1.00800           0
     27637 MEMB     209      POPC     H7S      HAL2     0.900000E-01   1.00800           0
     27638 MEMB     209      POPC     C28      CTL2    -0.180000       12.0110           0
     27639 MEMB     209      POPC     H8R      HAL2     0.900000E-01   1.00800           0
     27640 MEMB     209      POPC     H8S      HAL2     0.900000E-01   1.00800           0
     27641 MEMB     209      POPC     C29      CEL1    -0.150000       12.0110           0
     27642 MEMB     209      POPC     H91      HEL1     0.150000       1.00800           0
     27643 MEMB     209      POPC     C210     CEL1    -0.150000       12.0110           0
     27644 MEMB     209      POPC     H101     HEL1     0.150000       1.00800           0
     27645 MEMB     209      POPC     C211     CTL2    -0.180000       12.0110           0
     27646 MEMB     209      POPC     H11R     HAL2     0.900000E-01   1.00800           0
     27647 MEMB     209      POPC     H11S     HAL2     0.900000E-01   1.00800           0
     27648 MEMB     209      POPC     C212     CTL2    -0.180000       12.0110           0
     27649 MEMB     209      POPC     H12R     HAL2     0.900000E-01   1.00800           0
     27650 MEMB     209      POPC     H12S     HAL2     0.900000E-01   1.00800           0
     27651 MEMB     209      POPC     C213     CTL2    -0.180000       12.0110           0
     27652 MEMB     209      POPC     H13R     HAL2     0.900000E-01   1.00800           0
     27653 MEMB     209      POPC     H13S     HAL2     0.900000E-01   1.00800           0
     27654 MEMB     209      POPC     C214     CTL2    -0.180000       12.0110           0
     27655 MEMB     209      POPC     H14R     HAL2     0.900000E-01   1.00800           0
     27656 MEMB     209      POPC     H14S     HAL2     0.900000E-01   1.00800           0
     27657 MEMB     209      POPC     C215     CTL2    -0.180000       12.0110           0
     27658 MEMB     209      POPC     H15R     HAL2     0.900000E-01   1.00800           0
     27659 MEMB     209      POPC     H15S     HAL2     0.900000E-01   1.00800           0
     27660 MEMB     209      POPC     C216     CTL2    -0.180000       12.0110           0
     27661 MEMB     209      POPC     H16R     HAL2     0.900000E-01   1.00800           0
     27662 MEMB     209      POPC     H16S     HAL2     0.900000E-01   1.00800           0
     27663 MEMB     209      POPC     C217     CTL2    -0.180000       12.0110           0
     27664 MEMB     209      POPC     H17R     HAL2     0.900000E-01   1.00800           0
     27665 MEMB     209      POPC     H17S     HAL2     0.900000E-01   1.00800           0
     27666 MEMB     209      POPC     C218     CTL3    -0.270000       12.0110           0
     27667 MEMB     209      POPC     H18R     HAL3     0.900000E-01   1.00800           0
     27668 MEMB     209      POPC     H18S     HAL3     0.900000E-01   1.00800           0
     27669 MEMB     209      POPC     H18T     HAL3     0.900000E-01   1.00800           0
     27670 MEMB     209      POPC     C33      CTL2    -0.180000       12.0110           0
     27671 MEMB     209      POPC     H3X      HAL2     0.900000E-01   1.00800           0
     27672 MEMB     209      POPC     H3Y      HAL2     0.900000E-01   1.00800           0
     27673 MEMB     209      POPC     C34      CTL2    -0.180000       12.0110           0
     27674 MEMB     209      POPC     H4X      HAL2     0.900000E-01   1.00800           0
     27675 MEMB     209      POPC     H4Y      HAL2     0.900000E-01   1.00800           0
     27676 MEMB     209      POPC     C35      CTL2    -0.180000       12.0110           0
     27677 MEMB     209      POPC     H5X      HAL2     0.900000E-01   1.00800           0
     27678 MEMB     209      POPC     H5Y      HAL2     0.900000E-01   1.00800           0
     27679 MEMB     209      POPC     C36      CTL2    -0.180000       12.0110           0
     27680 MEMB     209      POPC     H6X      HAL2     0.900000E-01   1.00800           0
     27681 MEMB     209      POPC     H6Y      HAL2     0.900000E-01   1.00800           0
     27682 MEMB     209      POPC     C37      CTL2    -0.180000       12.0110           0
     27683 MEMB     209      POPC     H7X      HAL2     0.900000E-01   1.00800           0
     27684 MEMB     209      POPC     H7Y      HAL2     0.900000E-01   1.00800           0
     27685 MEMB     209      POPC     C38      CTL2    -0.180000       12.0110           0
     27686 MEMB     209      POPC     H8X      HAL2     0.900000E-01   1.00800           0
     27687 MEMB     209      POPC     H8Y      HAL2     0.900000E-01   1.00800           0
     27688 MEMB     209      POPC     C39      CTL2    -0.180000       12.0110           0
     27689 MEMB     209      POPC     H9X      HAL2     0.900000E-01   1.00800           0
     27690 MEMB     209      POPC     H9Y      HAL2     0.900000E-01   1.00800           0
     27691 MEMB     209      POPC     C310     CTL2    -0.180000       12.0110           0
     27692 MEMB     209      POPC     H10X     HAL2     0.900000E-01   1.00800           0
     27693 MEMB     209      POPC     H10Y     HAL2     0.900000E-01   1.00800           0
     27694 MEMB     209      POPC     C311     CTL2    -0.180000       12.0110           0
     27695 MEMB     209      POPC     H11X     HAL2     0.900000E-01   1.00800           0
     27696 MEMB     209      POPC     H11Y     HAL2     0.900000E-01   1.00800           0
     27697 MEMB     209      POPC     C312     CTL2    -0.180000       12.0110           0
     27698 MEMB     209      POPC     H12X     HAL2     0.900000E-01   1.00800           0
     27699 MEMB     209      POPC     H12Y     HAL2     0.900000E-01   1.00800           0
     27700 MEMB     209      POPC     C313     CTL2    -0.180000       12.0110           0
     27701 MEMB     209      POPC     H13X     HAL2     0.900000E-01   1.00800           0
     27702 MEMB     209      POPC     H13Y     HAL2     0.900000E-01   1.00800           0
     27703 MEMB     209      POPC     C314     CTL2    -0.180000       12.0110           0
     27704 MEMB     209      POPC     H14X     HAL2     0.900000E-01   1.00800           0
     27705 MEMB     209      POPC     H14Y     HAL2     0.900000E-01   1.00800           0
     27706 MEMB     209      POPC     C315     CTL2    -0.180000       12.0110           0
     27707 MEMB     209      POPC     H15X     HAL2     0.900000E-01   1.00800           0
     27708 MEMB     209      POPC     H15Y     HAL2     0.900000E-01   1.00800           0
     27709 MEMB     209      POPC     C316     CTL3    -0.270000       12.0110           0
     27710 MEMB     209      POPC     H16X     HAL3     0.900000E-01   1.00800           0
     27711 MEMB     209      POPC     H16Y     HAL3     0.900000E-01   1.00800           0
     27712 MEMB     209      POPC     H16Z     HAL3     0.900000E-01   1.00800           0
     27713 MEMB     210      POPS     N        NH3L    -0.300000       14.0070           0
     27714 MEMB     210      POPS     HN1      HCL      0.330000       1.00800           0
     27715 MEMB     210      POPS     HN2      HCL      0.330000       1.00800           0
     27716 MEMB     210      POPS     HN3      HCL      0.330000       1.00800           0
     27717 MEMB     210      POPS     C12      CTL1     0.210000       12.0110           0
     27718 MEMB     210      POPS     H12A     HBL      0.100000       1.00800           0
     27719 MEMB     210      POPS     C13      CCL      0.340000       12.0110           0
     27720 MEMB     210      POPS     O13A     OCL     -0.670000       15.9994           0
     27721 MEMB     210      POPS     O13B     OCL     -0.670000       15.9994           0
     27722 MEMB     210      POPS     C11      CTL2    -0.800000E-01   12.0110           0
     27723 MEMB     210      POPS     H11A     HAL2     0.900000E-01   1.00800           0
     27724 MEMB     210      POPS     H11B     HAL2     0.900000E-01   1.00800           0
     27725 MEMB     210      POPS     P        PL        1.50000       30.9740           0
     27726 MEMB     210      POPS     O13      O2L     -0.780000       15.9994           0
     27727 MEMB     210      POPS     O14      O2L     -0.780000       15.9994           0
     27728 MEMB     210      POPS     O12      OSLP    -0.570000       15.9994           0
     27729 MEMB     210      POPS     O11      OSLP    -0.570000       15.9994           0
     27730 MEMB     210      POPS     C1       CTL2    -0.800000E-01   12.0110           0
     27731 MEMB     210      POPS     HA       HAL2     0.900000E-01   1.00800           0
     27732 MEMB     210      POPS     HB       HAL2     0.900000E-01   1.00800           0
     27733 MEMB     210      POPS     C2       CTL1     0.170000       12.0110           0
     27734 MEMB     210      POPS     HS       HAL1     0.900000E-01   1.00800           0
     27735 MEMB     210      POPS     O21      OSL     -0.490000       15.9994           0
     27736 MEMB     210      POPS     C21      CL       0.900000       12.0110           0
     27737 MEMB     210      POPS     O22      OBL     -0.630000       15.9994           0
     27738 MEMB     210      POPS     C22      CTL2    -0.220000       12.0110           0
     27739 MEMB     210      POPS     H2R      HAL2     0.900000E-01   1.00800           0
     27740 MEMB     210      POPS     H2S      HAL2     0.900000E-01   1.00800           0
     27741 MEMB     210      POPS     C3       CTL2     0.800000E-01   12.0110           0
     27742 MEMB     210      POPS     HX       HAL2     0.900000E-01   1.00800           0
     27743 MEMB     210      POPS     HY       HAL2     0.900000E-01   1.00800           0
     27744 MEMB     210      POPS     O31      OSL     -0.490000       15.9994           0
     27745 MEMB     210      POPS     C31      CL       0.900000       12.0110           0
     27746 MEMB     210      POPS     O32      OBL     -0.630000       15.9994           0
     27747 MEMB     210      POPS     C32      CTL2    -0.220000       12.0110           0
     27748 MEMB     210      POPS     H2X      HAL2     0.900000E-01   1.00800           0
     27749 MEMB     210      POPS     H2Y      HAL2     0.900000E-01   1.00800           0
     27750 MEMB     210      POPS     C23      CTL2    -0.180000       12.0110           0
     27751 MEMB     210      POPS     H3R      HAL2     0.900000E-01   1.00800           0
     27752 MEMB     210      POPS     H3S      HAL2     0.900000E-01   1.00800           0
     27753 MEMB     210      POPS     C24      CTL2    -0.180000       12.0110           0
     27754 MEMB     210      POPS     H4R      HAL2     0.900000E-01   1.00800           0
     27755 MEMB     210      POPS     H4S      HAL2     0.900000E-01   1.00800           0
     27756 MEMB     210      POPS     C25      CTL2    -0.180000       12.0110           0
     27757 MEMB     210      POPS     H5R      HAL2     0.900000E-01   1.00800           0
     27758 MEMB     210      POPS     H5S      HAL2     0.900000E-01   1.00800           0
     27759 MEMB     210      POPS     C26      CTL2    -0.180000       12.0110           0
     27760 MEMB     210      POPS     H6R      HAL2     0.900000E-01   1.00800           0
     27761 MEMB     210      POPS     H6S      HAL2     0.900000E-01   1.00800           0
     27762 MEMB     210      POPS     C27      CTL2    -0.180000       12.0110           0
     27763 MEMB     210      POPS     H7R      HAL2     0.900000E-01   1.00800           0
     27764 MEMB     210      POPS     H7S      HAL2     0.900000E-01   1.00800           0
     27765 MEMB     210      POPS     C28      CTL2    -0.180000       12.0110           0
     27766 MEMB     210      POPS     H8R      HAL2     0.900000E-01   1.00800           0
     27767 MEMB     210      POPS     H8S      HAL2     0.900000E-01   1.00800           0
     27768 MEMB     210      POPS     C29      CEL1    -0.150000       12.0110           0
     27769 MEMB     210      POPS     H91      HEL1     0.150000       1.00800           0
     27770 MEMB     210      POPS     C210     CEL1    -0.150000       12.0110           0
     27771 MEMB     210      POPS     H101     HEL1     0.150000       1.00800           0
     27772 MEMB     210      POPS     C211     CTL2    -0.180000       12.0110           0
     27773 MEMB     210      POPS     H11R     HAL2     0.900000E-01   1.00800           0
     27774 MEMB     210      POPS     H11S     HAL2     0.900000E-01   1.00800           0
     27775 MEMB     210      POPS     C212     CTL2    -0.180000       12.0110           0
     27776 MEMB     210      POPS     H12R     HAL2     0.900000E-01   1.00800           0
     27777 MEMB     210      POPS     H12S     HAL2     0.900000E-01   1.00800           0
     27778 MEMB     210      POPS     C213     CTL2    -0.180000       12.0110           0
     27779 MEMB     210      POPS     H13R     HAL2     0.900000E-01   1.00800           0
     27780 MEMB     210      POPS     H13S     HAL2     0.900000E-01   1.00800           0
     27781 MEMB     210      POPS     C214     CTL2    -0.180000       12.0110           0
     27782 MEMB     210      POPS     H14R     HAL2     0.900000E-01   1.00800           0
     27783 MEMB     210      POPS     H14S     HAL2     0.900000E-01   1.00800           0
     27784 MEMB     210      POPS     C215     CTL2    -0.180000       12.0110           0
     27785 MEMB     210      POPS     H15R     HAL2     0.900000E-01   1.00800           0
     27786 MEMB     210      POPS     H15S     HAL2     0.900000E-01   1.00800           0
     27787 MEMB     210      POPS     C216     CTL2    -0.180000       12.0110           0
     27788 MEMB     210      POPS     H16R     HAL2     0.900000E-01   1.00800           0
     27789 MEMB     210      POPS     H16S     HAL2     0.900000E-01   1.00800           0
     27790 MEMB     210      POPS     C217     CTL2    -0.180000       12.0110           0
     27791 MEMB     210      POPS     H17R     HAL2     0.900000E-01   1.00800           0
     27792 MEMB     210      POPS     H17S     HAL2     0.900000E-01   1.00800           0
     27793 MEMB     210      POPS     C218     CTL3    -0.270000       12.0110           0
     27794 MEMB     210      POPS     H18R     HAL3     0.900000E-01   1.00800           0
     27795 MEMB     210      POPS     H18S     HAL3     0.900000E-01   1.00800           0
     27796 MEMB     210      POPS     H18T     HAL3     0.900000E-01   1.00800           0
     27797 MEMB     210      POPS     C33      CTL2    -0.180000       12.0110           0
     27798 MEMB     210      POPS     H3X      HAL2     0.900000E-01   1.00800           0
     27799 MEMB     210      POPS     H3Y      HAL2     0.900000E-01   1.00800           0
     27800 MEMB     210      POPS     C34      CTL2    -0.180000       12.0110           0
     27801 MEMB     210      POPS     H4X      HAL2     0.900000E-01   1.00800           0
     27802 MEMB     210      POPS     H4Y      HAL2     0.900000E-01   1.00800           0
     27803 MEMB     210      POPS     C35      CTL2    -0.180000       12.0110           0
     27804 MEMB     210      POPS     H5X      HAL2     0.900000E-01   1.00800           0
     27805 MEMB     210      POPS     H5Y      HAL2     0.900000E-01   1.00800           0
     27806 MEMB     210      POPS     C36      CTL2    -0.180000       12.0110           0
     27807 MEMB     210      POPS     H6X      HAL2     0.900000E-01   1.00800           0
     27808 MEMB     210      POPS     H6Y      HAL2     0.900000E-01   1.00800           0
     27809 MEMB     210      POPS     C37      CTL2    -0.180000       12.0110           0
     27810 MEMB     210      POPS     H7X      HAL2     0.900000E-01   1.00800           0
     27811 MEMB     210      POPS     H7Y      HAL2     0.900000E-01   1.00800           0
     27812 MEMB     210      POPS     C38      CTL2    -0.180000       12.0110           0
     27813 MEMB     210      POPS     H8X      HAL2     0.900000E-01   1.00800           0
     27814 MEMB     210      POPS     H8Y      HAL2     0.900000E-01   1.00800           0
     27815 MEMB     210      POPS     C39      CTL2    -0.180000       12.0110           0
     27816 MEMB     210      POPS     H9X      HAL2     0.900000E-01   1.00800           0
     27817 MEMB     210      POPS     H9Y      HAL2     0.900000E-01   1.00800           0
     27818 MEMB     210      POPS     C310     CTL2    -0.180000       12.0110           0
     27819 MEMB     210      POPS     H10X     HAL2     0.900000E-01   1.00800           0
     27820 MEMB     210      POPS     H10Y     HAL2     0.900000E-01   1.00800           0
     27821 MEMB     210      POPS     C311     CTL2    -0.180000       12.0110           0
     27822 MEMB     210      POPS     H11X     HAL2     0.900000E-01   1.00800           0
     27823 MEMB     210      POPS     H11Y     HAL2     0.900000E-01   1.00800           0
     27824 MEMB     210      POPS     C312     CTL2    -0.180000       12.0110           0
     27825 MEMB     210      POPS     H12X     HAL2     0.900000E-01   1.00800           0
     27826 MEMB     210      POPS     H12Y     HAL2     0.900000E-01   1.00800           0
     27827 MEMB     210      POPS     C313     CTL2    -0.180000       12.0110           0
     27828 MEMB     210      POPS     H13X     HAL2     0.900000E-01   1.00800           0
     27829 MEMB     210      POPS     H13Y     HAL2     0.900000E-01   1.00800           0
     27830 MEMB     210      POPS     C314     CTL2    -0.180000       12.0110           0
     27831 MEMB     210      POPS     H14X     HAL2     0.900000E-01   1.00800           0
     27832 MEMB     210      POPS     H14Y     HAL2     0.900000E-01   1.00800           0
     27833 MEMB     210      POPS     C315     CTL2    -0.180000       12.0110           0
     27834 MEMB     210      POPS     H15X     HAL2     0.900000E-01   1.00800           0
     27835 MEMB     210      POPS     H15Y     HAL2     0.900000E-01   1.00800           0
     27836 MEMB     210      POPS     C316     CTL3    -0.270000       12.0110           0
     27837 MEMB     210      POPS     H16X     HAL3     0.900000E-01   1.00800           0
     27838 MEMB     210      POPS     H16Y     HAL3     0.900000E-01   1.00800           0
     27839 MEMB     210      POPS     H16Z     HAL3     0.900000E-01   1.00800           0
     27840 MEMB     211      POPC     N        NTL     -0.600000       14.0070           0
     27841 MEMB     211      POPC     C12      CTL2    -0.100000       12.0110           0
     27842 MEMB     211      POPC     H12A     HL       0.250000       1.00800           0
     27843 MEMB     211      POPC     H12B     HL       0.250000       1.00800           0
     27844 MEMB     211      POPC     C13      CTL5    -0.350000       12.0110           0
     27845 MEMB     211      POPC     H13A     HL       0.250000       1.00800           0
     27846 MEMB     211      POPC     H13B     HL       0.250000       1.00800           0
     27847 MEMB     211      POPC     H13C     HL       0.250000       1.00800           0
     27848 MEMB     211      POPC     C14      CTL5    -0.350000       12.0110           0
     27849 MEMB     211      POPC     H14A     HL       0.250000       1.00800           0
     27850 MEMB     211      POPC     H14B     HL       0.250000       1.00800           0
     27851 MEMB     211      POPC     H14C     HL       0.250000       1.00800           0
     27852 MEMB     211      POPC     C15      CTL5    -0.350000       12.0110           0
     27853 MEMB     211      POPC     H15A     HL       0.250000       1.00800           0
     27854 MEMB     211      POPC     H15B     HL       0.250000       1.00800           0
     27855 MEMB     211      POPC     H15C     HL       0.250000       1.00800           0
     27856 MEMB     211      POPC     C11      CTL2    -0.800000E-01   12.0110           0
     27857 MEMB     211      POPC     H11A     HAL2     0.900000E-01   1.00800           0
     27858 MEMB     211      POPC     H11B     HAL2     0.900000E-01   1.00800           0
     27859 MEMB     211      POPC     P        PL        1.50000       30.9740           0
     27860 MEMB     211      POPC     O13      O2L     -0.780000       15.9994           0
     27861 MEMB     211      POPC     O14      O2L     -0.780000       15.9994           0
     27862 MEMB     211      POPC     O12      OSLP    -0.570000       15.9994           0
     27863 MEMB     211      POPC     O11      OSLP    -0.570000       15.9994           0
     27864 MEMB     211      POPC     C1       CTL2    -0.800000E-01   12.0110           0
     27865 MEMB     211      POPC     HA       HAL2     0.900000E-01   1.00800           0
     27866 MEMB     211      POPC     HB       HAL2     0.900000E-01   1.00800           0
     27867 MEMB     211      POPC     C2       CTL1     0.170000       12.0110           0
     27868 MEMB     211      POPC     HS       HAL1     0.900000E-01   1.00800           0
     27869 MEMB     211      POPC     O21      OSL     -0.490000       15.9994           0
     27870 MEMB     211      POPC     C21      CL       0.900000       12.0110           0
     27871 MEMB     211      POPC     O22      OBL     -0.630000       15.9994           0
     27872 MEMB     211      POPC     C22      CTL2    -0.220000       12.0110           0
     27873 MEMB     211      POPC     H2R      HAL2     0.900000E-01   1.00800           0
     27874 MEMB     211      POPC     H2S      HAL2     0.900000E-01   1.00800           0
     27875 MEMB     211      POPC     C3       CTL2     0.800000E-01   12.0110           0
     27876 MEMB     211      POPC     HX       HAL2     0.900000E-01   1.00800           0
     27877 MEMB     211      POPC     HY       HAL2     0.900000E-01   1.00800           0
     27878 MEMB     211      POPC     O31      OSL     -0.490000       15.9994           0
     27879 MEMB     211      POPC     C31      CL       0.900000       12.0110           0
     27880 MEMB     211      POPC     O32      OBL     -0.630000       15.9994           0
     27881 MEMB     211      POPC     C32      CTL2    -0.220000       12.0110           0
     27882 MEMB     211      POPC     H2X      HAL2     0.900000E-01   1.00800           0
     27883 MEMB     211      POPC     H2Y      HAL2     0.900000E-01   1.00800           0
     27884 MEMB     211      POPC     C23      CTL2    -0.180000       12.0110           0
     27885 MEMB     211      POPC     H3R      HAL2     0.900000E-01   1.00800           0
     27886 MEMB     211      POPC     H3S      HAL2     0.900000E-01   1.00800           0
     27887 MEMB     211      POPC     C24      CTL2    -0.180000       12.0110           0
     27888 MEMB     211      POPC     H4R      HAL2     0.900000E-01   1.00800           0
     27889 MEMB     211      POPC     H4S      HAL2     0.900000E-01   1.00800           0
     27890 MEMB     211      POPC     C25      CTL2    -0.180000       12.0110           0
     27891 MEMB     211      POPC     H5R      HAL2     0.900000E-01   1.00800           0
     27892 MEMB     211      POPC     H5S      HAL2     0.900000E-01   1.00800           0
     27893 MEMB     211      POPC     C26      CTL2    -0.180000       12.0110           0
     27894 MEMB     211      POPC     H6R      HAL2     0.900000E-01   1.00800           0
     27895 MEMB     211      POPC     H6S      HAL2     0.900000E-01   1.00800           0
     27896 MEMB     211      POPC     C27      CTL2    -0.180000       12.0110           0
     27897 MEMB     211      POPC     H7R      HAL2     0.900000E-01   1.00800           0
     27898 MEMB     211      POPC     H7S      HAL2     0.900000E-01   1.00800           0
     27899 MEMB     211      POPC     C28      CTL2    -0.180000       12.0110           0
     27900 MEMB     211      POPC     H8R      HAL2     0.900000E-01   1.00800           0
     27901 MEMB     211      POPC     H8S      HAL2     0.900000E-01   1.00800           0
     27902 MEMB     211      POPC     C29      CEL1    -0.150000       12.0110           0
     27903 MEMB     211      POPC     H91      HEL1     0.150000       1.00800           0
     27904 MEMB     211      POPC     C210     CEL1    -0.150000       12.0110           0
     27905 MEMB     211      POPC     H101     HEL1     0.150000       1.00800           0
     27906 MEMB     211      POPC     C211     CTL2    -0.180000       12.0110           0
     27907 MEMB     211      POPC     H11R     HAL2     0.900000E-01   1.00800           0
     27908 MEMB     211      POPC     H11S     HAL2     0.900000E-01   1.00800           0
     27909 MEMB     211      POPC     C212     CTL2    -0.180000       12.0110           0
     27910 MEMB     211      POPC     H12R     HAL2     0.900000E-01   1.00800           0
     27911 MEMB     211      POPC     H12S     HAL2     0.900000E-01   1.00800           0
     27912 MEMB     211      POPC     C213     CTL2    -0.180000       12.0110           0
     27913 MEMB     211      POPC     H13R     HAL2     0.900000E-01   1.00800           0
     27914 MEMB     211      POPC     H13S     HAL2     0.900000E-01   1.00800           0
     27915 MEMB     211      POPC     C214     CTL2    -0.180000       12.0110           0
     27916 MEMB     211      POPC     H14R     HAL2     0.900000E-01   1.00800           0
     27917 MEMB     211      POPC     H14S     HAL2     0.900000E-01   1.00800           0
     27918 MEMB     211      POPC     C215     CTL2    -0.180000       12.0110           0
     27919 MEMB     211      POPC     H15R     HAL2     0.900000E-01   1.00800           0
     27920 MEMB     211      POPC     H15S     HAL2     0.900000E-01   1.00800           0
     27921 MEMB     211      POPC     C216     CTL2    -0.180000       12.0110           0
     27922 MEMB     211      POPC     H16R     HAL2     0.900000E-01   1.00800           0
     27923 MEMB     211      POPC     H16S     HAL2     0.900000E-01   1.00800           0
     27924 MEMB     211      POPC     C217     CTL2    -0.180000       12.0110           0
     27925 MEMB     211      POPC     H17R     HAL2     0.900000E-01   1.00800           0
     27926 MEMB     211      POPC     H17S     HAL2     0.900000E-01   1.00800           0
     27927 MEMB     211      POPC     C218     CTL3    -0.270000       12.0110           0
     27928 MEMB     211      POPC     H18R     HAL3     0.900000E-01   1.00800           0
     27929 MEMB     211      POPC     H18S     HAL3     0.900000E-01   1.00800           0
     27930 MEMB     211      POPC     H18T     HAL3     0.900000E-01   1.00800           0
     27931 MEMB     211      POPC     C33      CTL2    -0.180000       12.0110           0
     27932 MEMB     211      POPC     H3X      HAL2     0.900000E-01   1.00800           0
     27933 MEMB     211      POPC     H3Y      HAL2     0.900000E-01   1.00800           0
     27934 MEMB     211      POPC     C34      CTL2    -0.180000       12.0110           0
     27935 MEMB     211      POPC     H4X      HAL2     0.900000E-01   1.00800           0
     27936 MEMB     211      POPC     H4Y      HAL2     0.900000E-01   1.00800           0
     27937 MEMB     211      POPC     C35      CTL2    -0.180000       12.0110           0
     27938 MEMB     211      POPC     H5X      HAL2     0.900000E-01   1.00800           0
     27939 MEMB     211      POPC     H5Y      HAL2     0.900000E-01   1.00800           0
     27940 MEMB     211      POPC     C36      CTL2    -0.180000       12.0110           0
     27941 MEMB     211      POPC     H6X      HAL2     0.900000E-01   1.00800           0
     27942 MEMB     211      POPC     H6Y      HAL2     0.900000E-01   1.00800           0
     27943 MEMB     211      POPC     C37      CTL2    -0.180000       12.0110           0
     27944 MEMB     211      POPC     H7X      HAL2     0.900000E-01   1.00800           0
     27945 MEMB     211      POPC     H7Y      HAL2     0.900000E-01   1.00800           0
     27946 MEMB     211      POPC     C38      CTL2    -0.180000       12.0110           0
     27947 MEMB     211      POPC     H8X      HAL2     0.900000E-01   1.00800           0
     27948 MEMB     211      POPC     H8Y      HAL2     0.900000E-01   1.00800           0
     27949 MEMB     211      POPC     C39      CTL2    -0.180000       12.0110           0
     27950 MEMB     211      POPC     H9X      HAL2     0.900000E-01   1.00800           0
     27951 MEMB     211      POPC     H9Y      HAL2     0.900000E-01   1.00800           0
     27952 MEMB     211      POPC     C310     CTL2    -0.180000       12.0110           0
     27953 MEMB     211      POPC     H10X     HAL2     0.900000E-01   1.00800           0
     27954 MEMB     211      POPC     H10Y     HAL2     0.900000E-01   1.00800           0
     27955 MEMB     211      POPC     C311     CTL2    -0.180000       12.0110           0
     27956 MEMB     211      POPC     H11X     HAL2     0.900000E-01   1.00800           0
     27957 MEMB     211      POPC     H11Y     HAL2     0.900000E-01   1.00800           0
     27958 MEMB     211      POPC     C312     CTL2    -0.180000       12.0110           0
     27959 MEMB     211      POPC     H12X     HAL2     0.900000E-01   1.00800           0
     27960 MEMB     211      POPC     H12Y     HAL2     0.900000E-01   1.00800           0
     27961 MEMB     211      POPC     C313     CTL2    -0.180000       12.0110           0
     27962 MEMB     211      POPC     H13X     HAL2     0.900000E-01   1.00800           0
     27963 MEMB     211      POPC     H13Y     HAL2     0.900000E-01   1.00800           0
     27964 MEMB     211      POPC     C314     CTL2    -0.180000       12.0110           0
     27965 MEMB     211      POPC     H14X     HAL2     0.900000E-01   1.00800           0
     27966 MEMB     211      POPC     H14Y     HAL2     0.900000E-01   1.00800           0
     27967 MEMB     211      POPC     C315     CTL2    -0.180000       12.0110           0
     27968 MEMB     211      POPC     H15X     HAL2     0.900000E-01   1.00800           0
     27969 MEMB     211      POPC     H15Y     HAL2     0.900000E-01   1.00800           0
     27970 MEMB     211      POPC     C316     CTL3    -0.270000       12.0110           0
     27971 MEMB     211      POPC     H16X     HAL3     0.900000E-01   1.00800           0
     27972 MEMB     211      POPC     H16Y     HAL3     0.900000E-01   1.00800           0
     27973 MEMB     211      POPC     H16Z     HAL3     0.900000E-01   1.00800           0
     27974 MEMB     212      POPS     N        NH3L    -0.300000       14.0070           0
     27975 MEMB     212      POPS     HN1      HCL      0.330000       1.00800           0
     27976 MEMB     212      POPS     HN2      HCL      0.330000       1.00800           0
     27977 MEMB     212      POPS     HN3      HCL      0.330000       1.00800           0
     27978 MEMB     212      POPS     C12      CTL1     0.210000       12.0110           0
     27979 MEMB     212      POPS     H12A     HBL      0.100000       1.00800           0
     27980 MEMB     212      POPS     C13      CCL      0.340000       12.0110           0
     27981 MEMB     212      POPS     O13A     OCL     -0.670000       15.9994           0
     27982 MEMB     212      POPS     O13B     OCL     -0.670000       15.9994           0
     27983 MEMB     212      POPS     C11      CTL2    -0.800000E-01   12.0110           0
     27984 MEMB     212      POPS     H11A     HAL2     0.900000E-01   1.00800           0
     27985 MEMB     212      POPS     H11B     HAL2     0.900000E-01   1.00800           0
     27986 MEMB     212      POPS     P        PL        1.50000       30.9740           0
     27987 MEMB     212      POPS     O13      O2L     -0.780000       15.9994           0
     27988 MEMB     212      POPS     O14      O2L     -0.780000       15.9994           0
     27989 MEMB     212      POPS     O12      OSLP    -0.570000       15.9994           0
     27990 MEMB     212      POPS     O11      OSLP    -0.570000       15.9994           0
     27991 MEMB     212      POPS     C1       CTL2    -0.800000E-01   12.0110           0
     27992 MEMB     212      POPS     HA       HAL2     0.900000E-01   1.00800           0
     27993 MEMB     212      POPS     HB       HAL2     0.900000E-01   1.00800           0
     27994 MEMB     212      POPS     C2       CTL1     0.170000       12.0110           0
     27995 MEMB     212      POPS     HS       HAL1     0.900000E-01   1.00800           0
     27996 MEMB     212      POPS     O21      OSL     -0.490000       15.9994           0
     27997 MEMB     212      POPS     C21      CL       0.900000       12.0110           0
     27998 MEMB     212      POPS     O22      OBL     -0.630000       15.9994           0
     27999 MEMB     212      POPS     C22      CTL2    -0.220000       12.0110           0
     28000 MEMB     212      POPS     H2R      HAL2     0.900000E-01   1.00800           0
     28001 MEMB     212      POPS     H2S      HAL2     0.900000E-01   1.00800           0
     28002 MEMB     212      POPS     C3       CTL2     0.800000E-01   12.0110           0
     28003 MEMB     212      POPS     HX       HAL2     0.900000E-01   1.00800           0
     28004 MEMB     212      POPS     HY       HAL2     0.900000E-01   1.00800           0
     28005 MEMB     212      POPS     O31      OSL     -0.490000       15.9994           0
     28006 MEMB     212      POPS     C31      CL       0.900000       12.0110           0
     28007 MEMB     212      POPS     O32      OBL     -0.630000       15.9994           0
     28008 MEMB     212      POPS     C32      CTL2    -0.220000       12.0110           0
     28009 MEMB     212      POPS     H2X      HAL2     0.900000E-01   1.00800           0
     28010 MEMB     212      POPS     H2Y      HAL2     0.900000E-01   1.00800           0
     28011 MEMB     212      POPS     C23      CTL2    -0.180000       12.0110           0
     28012 MEMB     212      POPS     H3R      HAL2     0.900000E-01   1.00800           0
     28013 MEMB     212      POPS     H3S      HAL2     0.900000E-01   1.00800           0
     28014 MEMB     212      POPS     C24      CTL2    -0.180000       12.0110           0
     28015 MEMB     212      POPS     H4R      HAL2     0.900000E-01   1.00800           0
     28016 MEMB     212      POPS     H4S      HAL2     0.900000E-01   1.00800           0
     28017 MEMB     212      POPS     C25      CTL2    -0.180000       12.0110           0
     28018 MEMB     212      POPS     H5R      HAL2     0.900000E-01   1.00800           0
     28019 MEMB     212      POPS     H5S      HAL2     0.900000E-01   1.00800           0
     28020 MEMB     212      POPS     C26      CTL2    -0.180000       12.0110           0
     28021 MEMB     212      POPS     H6R      HAL2     0.900000E-01   1.00800           0
     28022 MEMB     212      POPS     H6S      HAL2     0.900000E-01   1.00800           0
     28023 MEMB     212      POPS     C27      CTL2    -0.180000       12.0110           0
     28024 MEMB     212      POPS     H7R      HAL2     0.900000E-01   1.00800           0
     28025 MEMB     212      POPS     H7S      HAL2     0.900000E-01   1.00800           0
     28026 MEMB     212      POPS     C28      CTL2    -0.180000       12.0110           0
     28027 MEMB     212      POPS     H8R      HAL2     0.900000E-01   1.00800           0
     28028 MEMB     212      POPS     H8S      HAL2     0.900000E-01   1.00800           0
     28029 MEMB     212      POPS     C29      CEL1    -0.150000       12.0110           0
     28030 MEMB     212      POPS     H91      HEL1     0.150000       1.00800           0
     28031 MEMB     212      POPS     C210     CEL1    -0.150000       12.0110           0
     28032 MEMB     212      POPS     H101     HEL1     0.150000       1.00800           0
     28033 MEMB     212      POPS     C211     CTL2    -0.180000       12.0110           0
     28034 MEMB     212      POPS     H11R     HAL2     0.900000E-01   1.00800           0
     28035 MEMB     212      POPS     H11S     HAL2     0.900000E-01   1.00800           0
     28036 MEMB     212      POPS     C212     CTL2    -0.180000       12.0110           0
     28037 MEMB     212      POPS     H12R     HAL2     0.900000E-01   1.00800           0
     28038 MEMB     212      POPS     H12S     HAL2     0.900000E-01   1.00800           0
     28039 MEMB     212      POPS     C213     CTL2    -0.180000       12.0110           0
     28040 MEMB     212      POPS     H13R     HAL2     0.900000E-01   1.00800           0
     28041 MEMB     212      POPS     H13S     HAL2     0.900000E-01   1.00800           0
     28042 MEMB     212      POPS     C214     CTL2    -0.180000       12.0110           0
     28043 MEMB     212      POPS     H14R     HAL2     0.900000E-01   1.00800           0
     28044 MEMB     212      POPS     H14S     HAL2     0.900000E-01   1.00800           0
     28045 MEMB     212      POPS     C215     CTL2    -0.180000       12.0110           0
     28046 MEMB     212      POPS     H15R     HAL2     0.900000E-01   1.00800           0
     28047 MEMB     212      POPS     H15S     HAL2     0.900000E-01   1.00800           0
     28048 MEMB     212      POPS     C216     CTL2    -0.180000       12.0110           0
     28049 MEMB     212      POPS     H16R     HAL2     0.900000E-01   1.00800           0
     28050 MEMB     212      POPS     H16S     HAL2     0.900000E-01   1.00800           0
     28051 MEMB     212      POPS     C217     CTL2    -0.180000       12.0110           0
     28052 MEMB     212      POPS     H17R     HAL2     0.900000E-01   1.00800           0
     28053 MEMB     212      POPS     H17S     HAL2     0.900000E-01   1.00800           0
     28054 MEMB     212      POPS     C218     CTL3    -0.270000       12.0110           0
     28055 MEMB     212      POPS     H18R     HAL3     0.900000E-01   1.00800           0
     28056 MEMB     212      POPS     H18S     HAL3     0.900000E-01   1.00800           0
     28057 MEMB     212      POPS     H18T     HAL3     0.900000E-01   1.00800           0
     28058 MEMB     212      POPS     C33      CTL2    -0.180000       12.0110           0
     28059 MEMB     212      POPS     H3X      HAL2     0.900000E-01   1.00800           0
     28060 MEMB     212      POPS     H3Y      HAL2     0.900000E-01   1.00800           0
     28061 MEMB     212      POPS     C34      CTL2    -0.180000       12.0110           0
     28062 MEMB     212      POPS     H4X      HAL2     0.900000E-01   1.00800           0
     28063 MEMB     212      POPS     H4Y      HAL2     0.900000E-01   1.00800           0
     28064 MEMB     212      POPS     C35      CTL2    -0.180000       12.0110           0
     28065 MEMB     212      POPS     H5X      HAL2     0.900000E-01   1.00800           0
     28066 MEMB     212      POPS     H5Y      HAL2     0.900000E-01   1.00800           0
     28067 MEMB     212      POPS     C36      CTL2    -0.180000       12.0110           0
     28068 MEMB     212      POPS     H6X      HAL2     0.900000E-01   1.00800           0
     28069 MEMB     212      POPS     H6Y      HAL2     0.900000E-01   1.00800           0
     28070 MEMB     212      POPS     C37      CTL2    -0.180000       12.0110           0
     28071 MEMB     212      POPS     H7X      HAL2     0.900000E-01   1.00800           0
     28072 MEMB     212      POPS     H7Y      HAL2     0.900000E-01   1.00800           0
     28073 MEMB     212      POPS     C38      CTL2    -0.180000       12.0110           0
     28074 MEMB     212      POPS     H8X      HAL2     0.900000E-01   1.00800           0
     28075 MEMB     212      POPS     H8Y      HAL2     0.900000E-01   1.00800           0
     28076 MEMB     212      POPS     C39      CTL2    -0.180000       12.0110           0
     28077 MEMB     212      POPS     H9X      HAL2     0.900000E-01   1.00800           0
     28078 MEMB     212      POPS     H9Y      HAL2     0.900000E-01   1.00800           0
     28079 MEMB     212      POPS     C310     CTL2    -0.180000       12.0110           0
     28080 MEMB     212      POPS     H10X     HAL2     0.900000E-01   1.00800           0
     28081 MEMB     212      POPS     H10Y     HAL2     0.900000E-01   1.00800           0
     28082 MEMB     212      POPS     C311     CTL2    -0.180000       12.0110           0
     28083 MEMB     212      POPS     H11X     HAL2     0.900000E-01   1.00800           0
     28084 MEMB     212      POPS     H11Y     HAL2     0.900000E-01   1.00800           0
     28085 MEMB     212      POPS     C312     CTL2    -0.180000       12.0110           0
     28086 MEMB     212      POPS     H12X     HAL2     0.900000E-01   1.00800           0
     28087 MEMB     212      POPS     H12Y     HAL2     0.900000E-01   1.00800           0
     28088 MEMB     212      POPS     C313     CTL2    -0.180000       12.0110           0
     28089 MEMB     212      POPS     H13X     HAL2     0.900000E-01   1.00800           0
     28090 MEMB     212      POPS     H13Y     HAL2     0.900000E-01   1.00800           0
     28091 MEMB     212      POPS     C314     CTL2    -0.180000       12.0110           0
     28092 MEMB     212      POPS     H14X     HAL2     0.900000E-01   1.00800           0
     28093 MEMB     212      POPS     H14Y     HAL2     0.900000E-01   1.00800           0
     28094 MEMB     212      POPS     C315     CTL2    -0.180000       12.0110           0
     28095 MEMB     212      POPS     H15X     HAL2     0.900000E-01   1.00800           0
     28096 MEMB     212      POPS     H15Y     HAL2     0.900000E-01   1.00800           0
     28097 MEMB     212      POPS     C316     CTL3    -0.270000       12.0110           0
     28098 MEMB     212      POPS     H16X     HAL3     0.900000E-01   1.00800           0
     28099 MEMB     212      POPS     H16Y     HAL3     0.900000E-01   1.00800           0
     28100 MEMB     212      POPS     H16Z     HAL3     0.900000E-01   1.00800           0
     28101 MEMB     213      POPC     N        NTL     -0.600000       14.0070           0
     28102 MEMB     213      POPC     C12      CTL2    -0.100000       12.0110           0
     28103 MEMB     213      POPC     H12A     HL       0.250000       1.00800           0
     28104 MEMB     213      POPC     H12B     HL       0.250000       1.00800           0
     28105 MEMB     213      POPC     C13      CTL5    -0.350000       12.0110           0
     28106 MEMB     213      POPC     H13A     HL       0.250000       1.00800           0
     28107 MEMB     213      POPC     H13B     HL       0.250000       1.00800           0
     28108 MEMB     213      POPC     H13C     HL       0.250000       1.00800           0
     28109 MEMB     213      POPC     C14      CTL5    -0.350000       12.0110           0
     28110 MEMB     213      POPC     H14A     HL       0.250000       1.00800           0
     28111 MEMB     213      POPC     H14B     HL       0.250000       1.00800           0
     28112 MEMB     213      POPC     H14C     HL       0.250000       1.00800           0
     28113 MEMB     213      POPC     C15      CTL5    -0.350000       12.0110           0
     28114 MEMB     213      POPC     H15A     HL       0.250000       1.00800           0
     28115 MEMB     213      POPC     H15B     HL       0.250000       1.00800           0
     28116 MEMB     213      POPC     H15C     HL       0.250000       1.00800           0
     28117 MEMB     213      POPC     C11      CTL2    -0.800000E-01   12.0110           0
     28118 MEMB     213      POPC     H11A     HAL2     0.900000E-01   1.00800           0
     28119 MEMB     213      POPC     H11B     HAL2     0.900000E-01   1.00800           0
     28120 MEMB     213      POPC     P        PL        1.50000       30.9740           0
     28121 MEMB     213      POPC     O13      O2L     -0.780000       15.9994           0
     28122 MEMB     213      POPC     O14      O2L     -0.780000       15.9994           0
     28123 MEMB     213      POPC     O12      OSLP    -0.570000       15.9994           0
     28124 MEMB     213      POPC     O11      OSLP    -0.570000       15.9994           0
     28125 MEMB     213      POPC     C1       CTL2    -0.800000E-01   12.0110           0
     28126 MEMB     213      POPC     HA       HAL2     0.900000E-01   1.00800           0
     28127 MEMB     213      POPC     HB       HAL2     0.900000E-01   1.00800           0
     28128 MEMB     213      POPC     C2       CTL1     0.170000       12.0110           0
     28129 MEMB     213      POPC     HS       HAL1     0.900000E-01   1.00800           0
     28130 MEMB     213      POPC     O21      OSL     -0.490000       15.9994           0
     28131 MEMB     213      POPC     C21      CL       0.900000       12.0110           0
     28132 MEMB     213      POPC     O22      OBL     -0.630000       15.9994           0
     28133 MEMB     213      POPC     C22      CTL2    -0.220000       12.0110           0
     28134 MEMB     213      POPC     H2R      HAL2     0.900000E-01   1.00800           0
     28135 MEMB     213      POPC     H2S      HAL2     0.900000E-01   1.00800           0
     28136 MEMB     213      POPC     C3       CTL2     0.800000E-01   12.0110           0
     28137 MEMB     213      POPC     HX       HAL2     0.900000E-01   1.00800           0
     28138 MEMB     213      POPC     HY       HAL2     0.900000E-01   1.00800           0
     28139 MEMB     213      POPC     O31      OSL     -0.490000       15.9994           0
     28140 MEMB     213      POPC     C31      CL       0.900000       12.0110           0
     28141 MEMB     213      POPC     O32      OBL     -0.630000       15.9994           0
     28142 MEMB     213      POPC     C32      CTL2    -0.220000       12.0110           0
     28143 MEMB     213      POPC     H2X      HAL2     0.900000E-01   1.00800           0
     28144 MEMB     213      POPC     H2Y      HAL2     0.900000E-01   1.00800           0
     28145 MEMB     213      POPC     C23      CTL2    -0.180000       12.0110           0
     28146 MEMB     213      POPC     H3R      HAL2     0.900000E-01   1.00800           0
     28147 MEMB     213      POPC     H3S      HAL2     0.900000E-01   1.00800           0
     28148 MEMB     213      POPC     C24      CTL2    -0.180000       12.0110           0
     28149 MEMB     213      POPC     H4R      HAL2     0.900000E-01   1.00800           0
     28150 MEMB     213      POPC     H4S      HAL2     0.900000E-01   1.00800           0
     28151 MEMB     213      POPC     C25      CTL2    -0.180000       12.0110           0
     28152 MEMB     213      POPC     H5R      HAL2     0.900000E-01   1.00800           0
     28153 MEMB     213      POPC     H5S      HAL2     0.900000E-01   1.00800           0
     28154 MEMB     213      POPC     C26      CTL2    -0.180000       12.0110           0
     28155 MEMB     213      POPC     H6R      HAL2     0.900000E-01   1.00800           0
     28156 MEMB     213      POPC     H6S      HAL2     0.900000E-01   1.00800           0
     28157 MEMB     213      POPC     C27      CTL2    -0.180000       12.0110           0
     28158 MEMB     213      POPC     H7R      HAL2     0.900000E-01   1.00800           0
     28159 MEMB     213      POPC     H7S      HAL2     0.900000E-01   1.00800           0
     28160 MEMB     213      POPC     C28      CTL2    -0.180000       12.0110           0
     28161 MEMB     213      POPC     H8R      HAL2     0.900000E-01   1.00800           0
     28162 MEMB     213      POPC     H8S      HAL2     0.900000E-01   1.00800           0
     28163 MEMB     213      POPC     C29      CEL1    -0.150000       12.0110           0
     28164 MEMB     213      POPC     H91      HEL1     0.150000       1.00800           0
     28165 MEMB     213      POPC     C210     CEL1    -0.150000       12.0110           0
     28166 MEMB     213      POPC     H101     HEL1     0.150000       1.00800           0
     28167 MEMB     213      POPC     C211     CTL2    -0.180000       12.0110           0
     28168 MEMB     213      POPC     H11R     HAL2     0.900000E-01   1.00800           0
     28169 MEMB     213      POPC     H11S     HAL2     0.900000E-01   1.00800           0
     28170 MEMB     213      POPC     C212     CTL2    -0.180000       12.0110           0
     28171 MEMB     213      POPC     H12R     HAL2     0.900000E-01   1.00800           0
     28172 MEMB     213      POPC     H12S     HAL2     0.900000E-01   1.00800           0
     28173 MEMB     213      POPC     C213     CTL2    -0.180000       12.0110           0
     28174 MEMB     213      POPC     H13R     HAL2     0.900000E-01   1.00800           0
     28175 MEMB     213      POPC     H13S     HAL2     0.900000E-01   1.00800           0
     28176 MEMB     213      POPC     C214     CTL2    -0.180000       12.0110           0
     28177 MEMB     213      POPC     H14R     HAL2     0.900000E-01   1.00800           0
     28178 MEMB     213      POPC     H14S     HAL2     0.900000E-01   1.00800           0
     28179 MEMB     213      POPC     C215     CTL2    -0.180000       12.0110           0
     28180 MEMB     213      POPC     H15R     HAL2     0.900000E-01   1.00800           0
     28181 MEMB     213      POPC     H15S     HAL2     0.900000E-01   1.00800           0
     28182 MEMB     213      POPC     C216     CTL2    -0.180000       12.0110           0
     28183 MEMB     213      POPC     H16R     HAL2     0.900000E-01   1.00800           0
     28184 MEMB     213      POPC     H16S     HAL2     0.900000E-01   1.00800           0
     28185 MEMB     213      POPC     C217     CTL2    -0.180000       12.0110           0
     28186 MEMB     213      POPC     H17R     HAL2     0.900000E-01   1.00800           0
     28187 MEMB     213      POPC     H17S     HAL2     0.900000E-01   1.00800           0
     28188 MEMB     213      POPC     C218     CTL3    -0.270000       12.0110           0
     28189 MEMB     213      POPC     H18R     HAL3     0.900000E-01   1.00800           0
     28190 MEMB     213      POPC     H18S     HAL3     0.900000E-01   1.00800           0
     28191 MEMB     213      POPC     H18T     HAL3     0.900000E-01   1.00800           0
     28192 MEMB     213      POPC     C33      CTL2    -0.180000       12.0110           0
     28193 MEMB     213      POPC     H3X      HAL2     0.900000E-01   1.00800           0
     28194 MEMB     213      POPC     H3Y      HAL2     0.900000E-01   1.00800           0
     28195 MEMB     213      POPC     C34      CTL2    -0.180000       12.0110           0
     28196 MEMB     213      POPC     H4X      HAL2     0.900000E-01   1.00800           0
     28197 MEMB     213      POPC     H4Y      HAL2     0.900000E-01   1.00800           0
     28198 MEMB     213      POPC     C35      CTL2    -0.180000       12.0110           0
     28199 MEMB     213      POPC     H5X      HAL2     0.900000E-01   1.00800           0
     28200 MEMB     213      POPC     H5Y      HAL2     0.900000E-01   1.00800           0
     28201 MEMB     213      POPC     C36      CTL2    -0.180000       12.0110           0
     28202 MEMB     213      POPC     H6X      HAL2     0.900000E-01   1.00800           0
     28203 MEMB     213      POPC     H6Y      HAL2     0.900000E-01   1.00800           0
     28204 MEMB     213      POPC     C37      CTL2    -0.180000       12.0110           0
     28205 MEMB     213      POPC     H7X      HAL2     0.900000E-01   1.00800           0
     28206 MEMB     213      POPC     H7Y      HAL2     0.900000E-01   1.00800           0
     28207 MEMB     213      POPC     C38      CTL2    -0.180000       12.0110           0
     28208 MEMB     213      POPC     H8X      HAL2     0.900000E-01   1.00800           0
     28209 MEMB     213      POPC     H8Y      HAL2     0.900000E-01   1.00800           0
     28210 MEMB     213      POPC     C39      CTL2    -0.180000       12.0110           0
     28211 MEMB     213      POPC     H9X      HAL2     0.900000E-01   1.00800           0
     28212 MEMB     213      POPC     H9Y      HAL2     0.900000E-01   1.00800           0
     28213 MEMB     213      POPC     C310     CTL2    -0.180000       12.0110           0
     28214 MEMB     213      POPC     H10X     HAL2     0.900000E-01   1.00800           0
     28215 MEMB     213      POPC     H10Y     HAL2     0.900000E-01   1.00800           0
     28216 MEMB     213      POPC     C311     CTL2    -0.180000       12.0110           0
     28217 MEMB     213      POPC     H11X     HAL2     0.900000E-01   1.00800           0
     28218 MEMB     213      POPC     H11Y     HAL2     0.900000E-01   1.00800           0
     28219 MEMB     213      POPC     C312     CTL2    -0.180000       12.0110           0
     28220 MEMB     213      POPC     H12X     HAL2     0.900000E-01   1.00800           0
     28221 MEMB     213      POPC     H12Y     HAL2     0.900000E-01   1.00800           0
     28222 MEMB     213      POPC     C313     CTL2    -0.180000       12.0110           0
     28223 MEMB     213      POPC     H13X     HAL2     0.900000E-01   1.00800           0
     28224 MEMB     213      POPC     H13Y     HAL2     0.900000E-01   1.00800           0
     28225 MEMB     213      POPC     C314     CTL2    -0.180000       12.0110           0
     28226 MEMB     213      POPC     H14X     HAL2     0.900000E-01   1.00800           0
     28227 MEMB     213      POPC     H14Y     HAL2     0.900000E-01   1.00800           0
     28228 MEMB     213      POPC     C315     CTL2    -0.180000       12.0110           0
     28229 MEMB     213      POPC     H15X     HAL2     0.900000E-01   1.00800           0
     28230 MEMB     213      POPC     H15Y     HAL2     0.900000E-01   1.00800           0
     28231 MEMB     213      POPC     C316     CTL3    -0.270000       12.0110           0
     28232 MEMB     213      POPC     H16X     HAL3     0.900000E-01   1.00800           0
     28233 MEMB     213      POPC     H16Y     HAL3     0.900000E-01   1.00800           0
     28234 MEMB     213      POPC     H16Z     HAL3     0.900000E-01   1.00800           0
     28235 MEMB     214      POPC     N        NTL     -0.600000       14.0070           0
     28236 MEMB     214      POPC     C12      CTL2    -0.100000       12.0110           0
     28237 MEMB     214      POPC     H12A     HL       0.250000       1.00800           0
     28238 MEMB     214      POPC     H12B     HL       0.250000       1.00800           0
     28239 MEMB     214      POPC     C13      CTL5    -0.350000       12.0110           0
     28240 MEMB     214      POPC     H13A     HL       0.250000       1.00800           0
     28241 MEMB     214      POPC     H13B     HL       0.250000       1.00800           0
     28242 MEMB     214      POPC     H13C     HL       0.250000       1.00800           0
     28243 MEMB     214      POPC     C14      CTL5    -0.350000       12.0110           0
     28244 MEMB     214      POPC     H14A     HL       0.250000       1.00800           0
     28245 MEMB     214      POPC     H14B     HL       0.250000       1.00800           0
     28246 MEMB     214      POPC     H14C     HL       0.250000       1.00800           0
     28247 MEMB     214      POPC     C15      CTL5    -0.350000       12.0110           0
     28248 MEMB     214      POPC     H15A     HL       0.250000       1.00800           0
     28249 MEMB     214      POPC     H15B     HL       0.250000       1.00800           0
     28250 MEMB     214      POPC     H15C     HL       0.250000       1.00800           0
     28251 MEMB     214      POPC     C11      CTL2    -0.800000E-01   12.0110           0
     28252 MEMB     214      POPC     H11A     HAL2     0.900000E-01   1.00800           0
     28253 MEMB     214      POPC     H11B     HAL2     0.900000E-01   1.00800           0
     28254 MEMB     214      POPC     P        PL        1.50000       30.9740           0
     28255 MEMB     214      POPC     O13      O2L     -0.780000       15.9994           0
     28256 MEMB     214      POPC     O14      O2L     -0.780000       15.9994           0
     28257 MEMB     214      POPC     O12      OSLP    -0.570000       15.9994           0
     28258 MEMB     214      POPC     O11      OSLP    -0.570000       15.9994           0
     28259 MEMB     214      POPC     C1       CTL2    -0.800000E-01   12.0110           0
     28260 MEMB     214      POPC     HA       HAL2     0.900000E-01   1.00800           0
     28261 MEMB     214      POPC     HB       HAL2     0.900000E-01   1.00800           0
     28262 MEMB     214      POPC     C2       CTL1     0.170000       12.0110           0
     28263 MEMB     214      POPC     HS       HAL1     0.900000E-01   1.00800           0
     28264 MEMB     214      POPC     O21      OSL     -0.490000       15.9994           0
     28265 MEMB     214      POPC     C21      CL       0.900000       12.0110           0
     28266 MEMB     214      POPC     O22      OBL     -0.630000       15.9994           0
     28267 MEMB     214      POPC     C22      CTL2    -0.220000       12.0110           0
     28268 MEMB     214      POPC     H2R      HAL2     0.900000E-01   1.00800           0
     28269 MEMB     214      POPC     H2S      HAL2     0.900000E-01   1.00800           0
     28270 MEMB     214      POPC     C3       CTL2     0.800000E-01   12.0110           0
     28271 MEMB     214      POPC     HX       HAL2     0.900000E-01   1.00800           0
     28272 MEMB     214      POPC     HY       HAL2     0.900000E-01   1.00800           0
     28273 MEMB     214      POPC     O31      OSL     -0.490000       15.9994           0
     28274 MEMB     214      POPC     C31      CL       0.900000       12.0110           0
     28275 MEMB     214      POPC     O32      OBL     -0.630000       15.9994           0
     28276 MEMB     214      POPC     C32      CTL2    -0.220000       12.0110           0
     28277 MEMB     214      POPC     H2X      HAL2     0.900000E-01   1.00800           0
     28278 MEMB     214      POPC     H2Y      HAL2     0.900000E-01   1.00800           0
     28279 MEMB     214      POPC     C23      CTL2    -0.180000       12.0110           0
     28280 MEMB     214      POPC     H3R      HAL2     0.900000E-01   1.00800           0
     28281 MEMB     214      POPC     H3S      HAL2     0.900000E-01   1.00800           0
     28282 MEMB     214      POPC     C24      CTL2    -0.180000       12.0110           0
     28283 MEMB     214      POPC     H4R      HAL2     0.900000E-01   1.00800           0
     28284 MEMB     214      POPC     H4S      HAL2     0.900000E-01   1.00800           0
     28285 MEMB     214      POPC     C25      CTL2    -0.180000       12.0110           0
     28286 MEMB     214      POPC     H5R      HAL2     0.900000E-01   1.00800           0
     28287 MEMB     214      POPC     H5S      HAL2     0.900000E-01   1.00800           0
     28288 MEMB     214      POPC     C26      CTL2    -0.180000       12.0110           0
     28289 MEMB     214      POPC     H6R      HAL2     0.900000E-01   1.00800           0
     28290 MEMB     214      POPC     H6S      HAL2     0.900000E-01   1.00800           0
     28291 MEMB     214      POPC     C27      CTL2    -0.180000       12.0110           0
     28292 MEMB     214      POPC     H7R      HAL2     0.900000E-01   1.00800           0
     28293 MEMB     214      POPC     H7S      HAL2     0.900000E-01   1.00800           0
     28294 MEMB     214      POPC     C28      CTL2    -0.180000       12.0110           0
     28295 MEMB     214      POPC     H8R      HAL2     0.900000E-01   1.00800           0
     28296 MEMB     214      POPC     H8S      HAL2     0.900000E-01   1.00800           0
     28297 MEMB     214      POPC     C29      CEL1    -0.150000       12.0110           0
     28298 MEMB     214      POPC     H91      HEL1     0.150000       1.00800           0
     28299 MEMB     214      POPC     C210     CEL1    -0.150000       12.0110           0
     28300 MEMB     214      POPC     H101     HEL1     0.150000       1.00800           0
     28301 MEMB     214      POPC     C211     CTL2    -0.180000       12.0110           0
     28302 MEMB     214      POPC     H11R     HAL2     0.900000E-01   1.00800           0
     28303 MEMB     214      POPC     H11S     HAL2     0.900000E-01   1.00800           0
     28304 MEMB     214      POPC     C212     CTL2    -0.180000       12.0110           0
     28305 MEMB     214      POPC     H12R     HAL2     0.900000E-01   1.00800           0
     28306 MEMB     214      POPC     H12S     HAL2     0.900000E-01   1.00800           0
     28307 MEMB     214      POPC     C213     CTL2    -0.180000       12.0110           0
     28308 MEMB     214      POPC     H13R     HAL2     0.900000E-01   1.00800           0
     28309 MEMB     214      POPC     H13S     HAL2     0.900000E-01   1.00800           0
     28310 MEMB     214      POPC     C214     CTL2    -0.180000       12.0110           0
     28311 MEMB     214      POPC     H14R     HAL2     0.900000E-01   1.00800           0
     28312 MEMB     214      POPC     H14S     HAL2     0.900000E-01   1.00800           0
     28313 MEMB     214      POPC     C215     CTL2    -0.180000       12.0110           0
     28314 MEMB     214      POPC     H15R     HAL2     0.900000E-01   1.00800           0
     28315 MEMB     214      POPC     H15S     HAL2     0.900000E-01   1.00800           0
     28316 MEMB     214      POPC     C216     CTL2    -0.180000       12.0110           0
     28317 MEMB     214      POPC     H16R     HAL2     0.900000E-01   1.00800           0
     28318 MEMB     214      POPC     H16S     HAL2     0.900000E-01   1.00800           0
     28319 MEMB     214      POPC     C217     CTL2    -0.180000       12.0110           0
     28320 MEMB     214      POPC     H17R     HAL2     0.900000E-01   1.00800           0
     28321 MEMB     214      POPC     H17S     HAL2     0.900000E-01   1.00800           0
     28322 MEMB     214      POPC     C218     CTL3    -0.270000       12.0110           0
     28323 MEMB     214      POPC     H18R     HAL3     0.900000E-01   1.00800           0
     28324 MEMB     214      POPC     H18S     HAL3     0.900000E-01   1.00800           0
     28325 MEMB     214      POPC     H18T     HAL3     0.900000E-01   1.00800           0
     28326 MEMB     214      POPC     C33      CTL2    -0.180000       12.0110           0
     28327 MEMB     214      POPC     H3X      HAL2     0.900000E-01   1.00800           0
     28328 MEMB     214      POPC     H3Y      HAL2     0.900000E-01   1.00800           0
     28329 MEMB     214      POPC     C34      CTL2    -0.180000       12.0110           0
     28330 MEMB     214      POPC     H4X      HAL2     0.900000E-01   1.00800           0
     28331 MEMB     214      POPC     H4Y      HAL2     0.900000E-01   1.00800           0
     28332 MEMB     214      POPC     C35      CTL2    -0.180000       12.0110           0
     28333 MEMB     214      POPC     H5X      HAL2     0.900000E-01   1.00800           0
     28334 MEMB     214      POPC     H5Y      HAL2     0.900000E-01   1.00800           0
     28335 MEMB     214      POPC     C36      CTL2    -0.180000       12.0110           0
     28336 MEMB     214      POPC     H6X      HAL2     0.900000E-01   1.00800           0
     28337 MEMB     214      POPC     H6Y      HAL2     0.900000E-01   1.00800           0
     28338 MEMB     214      POPC     C37      CTL2    -0.180000       12.0110           0
     28339 MEMB     214      POPC     H7X      HAL2     0.900000E-01   1.00800           0
     28340 MEMB     214      POPC     H7Y      HAL2     0.900000E-01   1.00800           0
     28341 MEMB     214      POPC     C38      CTL2    -0.180000       12.0110           0
     28342 MEMB     214      POPC     H8X      HAL2     0.900000E-01   1.00800           0
     28343 MEMB     214      POPC     H8Y      HAL2     0.900000E-01   1.00800           0
     28344 MEMB     214      POPC     C39      CTL2    -0.180000       12.0110           0
     28345 MEMB     214      POPC     H9X      HAL2     0.900000E-01   1.00800           0
     28346 MEMB     214      POPC     H9Y      HAL2     0.900000E-01   1.00800           0
     28347 MEMB     214      POPC     C310     CTL2    -0.180000       12.0110           0
     28348 MEMB     214      POPC     H10X     HAL2     0.900000E-01   1.00800           0
     28349 MEMB     214      POPC     H10Y     HAL2     0.900000E-01   1.00800           0
     28350 MEMB     214      POPC     C311     CTL2    -0.180000       12.0110           0
     28351 MEMB     214      POPC     H11X     HAL2     0.900000E-01   1.00800           0
     28352 MEMB     214      POPC     H11Y     HAL2     0.900000E-01   1.00800           0
     28353 MEMB     214      POPC     C312     CTL2    -0.180000       12.0110           0
     28354 MEMB     214      POPC     H12X     HAL2     0.900000E-01   1.00800           0
     28355 MEMB     214      POPC     H12Y     HAL2     0.900000E-01   1.00800           0
     28356 MEMB     214      POPC     C313     CTL2    -0.180000       12.0110           0
     28357 MEMB     214      POPC     H13X     HAL2     0.900000E-01   1.00800           0
     28358 MEMB     214      POPC     H13Y     HAL2     0.900000E-01   1.00800           0
     28359 MEMB     214      POPC     C314     CTL2    -0.180000       12.0110           0
     28360 MEMB     214      POPC     H14X     HAL2     0.900000E-01   1.00800           0
     28361 MEMB     214      POPC     H14Y     HAL2     0.900000E-01   1.00800           0
     28362 MEMB     214      POPC     C315     CTL2    -0.180000       12.0110           0
     28363 MEMB     214      POPC     H15X     HAL2     0.900000E-01   1.00800           0
     28364 MEMB     214      POPC     H15Y     HAL2     0.900000E-01   1.00800           0
     28365 MEMB     214      POPC     C316     CTL3    -0.270000       12.0110           0
     28366 MEMB     214      POPC     H16X     HAL3     0.900000E-01   1.00800           0
     28367 MEMB     214      POPC     H16Y     HAL3     0.900000E-01   1.00800           0
     28368 MEMB     214      POPC     H16Z     HAL3     0.900000E-01   1.00800           0
     28369 MEMB     215      POPC     N        NTL     -0.600000       14.0070           0
     28370 MEMB     215      POPC     C12      CTL2    -0.100000       12.0110           0
     28371 MEMB     215      POPC     H12A     HL       0.250000       1.00800           0
     28372 MEMB     215      POPC     H12B     HL       0.250000       1.00800           0
     28373 MEMB     215      POPC     C13      CTL5    -0.350000       12.0110           0
     28374 MEMB     215      POPC     H13A     HL       0.250000       1.00800           0
     28375 MEMB     215      POPC     H13B     HL       0.250000       1.00800           0
     28376 MEMB     215      POPC     H13C     HL       0.250000       1.00800           0
     28377 MEMB     215      POPC     C14      CTL5    -0.350000       12.0110           0
     28378 MEMB     215      POPC     H14A     HL       0.250000       1.00800           0
     28379 MEMB     215      POPC     H14B     HL       0.250000       1.00800           0
     28380 MEMB     215      POPC     H14C     HL       0.250000       1.00800           0
     28381 MEMB     215      POPC     C15      CTL5    -0.350000       12.0110           0
     28382 MEMB     215      POPC     H15A     HL       0.250000       1.00800           0
     28383 MEMB     215      POPC     H15B     HL       0.250000       1.00800           0
     28384 MEMB     215      POPC     H15C     HL       0.250000       1.00800           0
     28385 MEMB     215      POPC     C11      CTL2    -0.800000E-01   12.0110           0
     28386 MEMB     215      POPC     H11A     HAL2     0.900000E-01   1.00800           0
     28387 MEMB     215      POPC     H11B     HAL2     0.900000E-01   1.00800           0
     28388 MEMB     215      POPC     P        PL        1.50000       30.9740           0
     28389 MEMB     215      POPC     O13      O2L     -0.780000       15.9994           0
     28390 MEMB     215      POPC     O14      O2L     -0.780000       15.9994           0
     28391 MEMB     215      POPC     O12      OSLP    -0.570000       15.9994           0
     28392 MEMB     215      POPC     O11      OSLP    -0.570000       15.9994           0
     28393 MEMB     215      POPC     C1       CTL2    -0.800000E-01   12.0110           0
     28394 MEMB     215      POPC     HA       HAL2     0.900000E-01   1.00800           0
     28395 MEMB     215      POPC     HB       HAL2     0.900000E-01   1.00800           0
     28396 MEMB     215      POPC     C2       CTL1     0.170000       12.0110           0
     28397 MEMB     215      POPC     HS       HAL1     0.900000E-01   1.00800           0
     28398 MEMB     215      POPC     O21      OSL     -0.490000       15.9994           0
     28399 MEMB     215      POPC     C21      CL       0.900000       12.0110           0
     28400 MEMB     215      POPC     O22      OBL     -0.630000       15.9994           0
     28401 MEMB     215      POPC     C22      CTL2    -0.220000       12.0110           0
     28402 MEMB     215      POPC     H2R      HAL2     0.900000E-01   1.00800           0
     28403 MEMB     215      POPC     H2S      HAL2     0.900000E-01   1.00800           0
     28404 MEMB     215      POPC     C3       CTL2     0.800000E-01   12.0110           0
     28405 MEMB     215      POPC     HX       HAL2     0.900000E-01   1.00800           0
     28406 MEMB     215      POPC     HY       HAL2     0.900000E-01   1.00800           0
     28407 MEMB     215      POPC     O31      OSL     -0.490000       15.9994           0
     28408 MEMB     215      POPC     C31      CL       0.900000       12.0110           0
     28409 MEMB     215      POPC     O32      OBL     -0.630000       15.9994           0
     28410 MEMB     215      POPC     C32      CTL2    -0.220000       12.0110           0
     28411 MEMB     215      POPC     H2X      HAL2     0.900000E-01   1.00800           0
     28412 MEMB     215      POPC     H2Y      HAL2     0.900000E-01   1.00800           0
     28413 MEMB     215      POPC     C23      CTL2    -0.180000       12.0110           0
     28414 MEMB     215      POPC     H3R      HAL2     0.900000E-01   1.00800           0
     28415 MEMB     215      POPC     H3S      HAL2     0.900000E-01   1.00800           0
     28416 MEMB     215      POPC     C24      CTL2    -0.180000       12.0110           0
     28417 MEMB     215      POPC     H4R      HAL2     0.900000E-01   1.00800           0
     28418 MEMB     215      POPC     H4S      HAL2     0.900000E-01   1.00800           0
     28419 MEMB     215      POPC     C25      CTL2    -0.180000       12.0110           0
     28420 MEMB     215      POPC     H5R      HAL2     0.900000E-01   1.00800           0
     28421 MEMB     215      POPC     H5S      HAL2     0.900000E-01   1.00800           0
     28422 MEMB     215      POPC     C26      CTL2    -0.180000       12.0110           0
     28423 MEMB     215      POPC     H6R      HAL2     0.900000E-01   1.00800           0
     28424 MEMB     215      POPC     H6S      HAL2     0.900000E-01   1.00800           0
     28425 MEMB     215      POPC     C27      CTL2    -0.180000       12.0110           0
     28426 MEMB     215      POPC     H7R      HAL2     0.900000E-01   1.00800           0
     28427 MEMB     215      POPC     H7S      HAL2     0.900000E-01   1.00800           0
     28428 MEMB     215      POPC     C28      CTL2    -0.180000       12.0110           0
     28429 MEMB     215      POPC     H8R      HAL2     0.900000E-01   1.00800           0
     28430 MEMB     215      POPC     H8S      HAL2     0.900000E-01   1.00800           0
     28431 MEMB     215      POPC     C29      CEL1    -0.150000       12.0110           0
     28432 MEMB     215      POPC     H91      HEL1     0.150000       1.00800           0
     28433 MEMB     215      POPC     C210     CEL1    -0.150000       12.0110           0
     28434 MEMB     215      POPC     H101     HEL1     0.150000       1.00800           0
     28435 MEMB     215      POPC     C211     CTL2    -0.180000       12.0110           0
     28436 MEMB     215      POPC     H11R     HAL2     0.900000E-01   1.00800           0
     28437 MEMB     215      POPC     H11S     HAL2     0.900000E-01   1.00800           0
     28438 MEMB     215      POPC     C212     CTL2    -0.180000       12.0110           0
     28439 MEMB     215      POPC     H12R     HAL2     0.900000E-01   1.00800           0
     28440 MEMB     215      POPC     H12S     HAL2     0.900000E-01   1.00800           0
     28441 MEMB     215      POPC     C213     CTL2    -0.180000       12.0110           0
     28442 MEMB     215      POPC     H13R     HAL2     0.900000E-01   1.00800           0
     28443 MEMB     215      POPC     H13S     HAL2     0.900000E-01   1.00800           0
     28444 MEMB     215      POPC     C214     CTL2    -0.180000       12.0110           0
     28445 MEMB     215      POPC     H14R     HAL2     0.900000E-01   1.00800           0
     28446 MEMB     215      POPC     H14S     HAL2     0.900000E-01   1.00800           0
     28447 MEMB     215      POPC     C215     CTL2    -0.180000       12.0110           0
     28448 MEMB     215      POPC     H15R     HAL2     0.900000E-01   1.00800           0
     28449 MEMB     215      POPC     H15S     HAL2     0.900000E-01   1.00800           0
     28450 MEMB     215      POPC     C216     CTL2    -0.180000       12.0110           0
     28451 MEMB     215      POPC     H16R     HAL2     0.900000E-01   1.00800           0
     28452 MEMB     215      POPC     H16S     HAL2     0.900000E-01   1.00800           0
     28453 MEMB     215      POPC     C217     CTL2    -0.180000       12.0110           0
     28454 MEMB     215      POPC     H17R     HAL2     0.900000E-01   1.00800           0
     28455 MEMB     215      POPC     H17S     HAL2     0.900000E-01   1.00800           0
     28456 MEMB     215      POPC     C218     CTL3    -0.270000       12.0110           0
     28457 MEMB     215      POPC     H18R     HAL3     0.900000E-01   1.00800           0
     28458 MEMB     215      POPC     H18S     HAL3     0.900000E-01   1.00800           0
     28459 MEMB     215      POPC     H18T     HAL3     0.900000E-01   1.00800           0
     28460 MEMB     215      POPC     C33      CTL2    -0.180000       12.0110           0
     28461 MEMB     215      POPC     H3X      HAL2     0.900000E-01   1.00800           0
     28462 MEMB     215      POPC     H3Y      HAL2     0.900000E-01   1.00800           0
     28463 MEMB     215      POPC     C34      CTL2    -0.180000       12.0110           0
     28464 MEMB     215      POPC     H4X      HAL2     0.900000E-01   1.00800           0
     28465 MEMB     215      POPC     H4Y      HAL2     0.900000E-01   1.00800           0
     28466 MEMB     215      POPC     C35      CTL2    -0.180000       12.0110           0
     28467 MEMB     215      POPC     H5X      HAL2     0.900000E-01   1.00800           0
     28468 MEMB     215      POPC     H5Y      HAL2     0.900000E-01   1.00800           0
     28469 MEMB     215      POPC     C36      CTL2    -0.180000       12.0110           0
     28470 MEMB     215      POPC     H6X      HAL2     0.900000E-01   1.00800           0
     28471 MEMB     215      POPC     H6Y      HAL2     0.900000E-01   1.00800           0
     28472 MEMB     215      POPC     C37      CTL2    -0.180000       12.0110           0
     28473 MEMB     215      POPC     H7X      HAL2     0.900000E-01   1.00800           0
     28474 MEMB     215      POPC     H7Y      HAL2     0.900000E-01   1.00800           0
     28475 MEMB     215      POPC     C38      CTL2    -0.180000       12.0110           0
     28476 MEMB     215      POPC     H8X      HAL2     0.900000E-01   1.00800           0
     28477 MEMB     215      POPC     H8Y      HAL2     0.900000E-01   1.00800           0
     28478 MEMB     215      POPC     C39      CTL2    -0.180000       12.0110           0
     28479 MEMB     215      POPC     H9X      HAL2     0.900000E-01   1.00800           0
     28480 MEMB     215      POPC     H9Y      HAL2     0.900000E-01   1.00800           0
     28481 MEMB     215      POPC     C310     CTL2    -0.180000       12.0110           0
     28482 MEMB     215      POPC     H10X     HAL2     0.900000E-01   1.00800           0
     28483 MEMB     215      POPC     H10Y     HAL2     0.900000E-01   1.00800           0
     28484 MEMB     215      POPC     C311     CTL2    -0.180000       12.0110           0
     28485 MEMB     215      POPC     H11X     HAL2     0.900000E-01   1.00800           0
     28486 MEMB     215      POPC     H11Y     HAL2     0.900000E-01   1.00800           0
     28487 MEMB     215      POPC     C312     CTL2    -0.180000       12.0110           0
     28488 MEMB     215      POPC     H12X     HAL2     0.900000E-01   1.00800           0
     28489 MEMB     215      POPC     H12Y     HAL2     0.900000E-01   1.00800           0
     28490 MEMB     215      POPC     C313     CTL2    -0.180000       12.0110           0
     28491 MEMB     215      POPC     H13X     HAL2     0.900000E-01   1.00800           0
     28492 MEMB     215      POPC     H13Y     HAL2     0.900000E-01   1.00800           0
     28493 MEMB     215      POPC     C314     CTL2    -0.180000       12.0110           0
     28494 MEMB     215      POPC     H14X     HAL2     0.900000E-01   1.00800           0
     28495 MEMB     215      POPC     H14Y     HAL2     0.900000E-01   1.00800           0
     28496 MEMB     215      POPC     C315     CTL2    -0.180000       12.0110           0
     28497 MEMB     215      POPC     H15X     HAL2     0.900000E-01   1.00800           0
     28498 MEMB     215      POPC     H15Y     HAL2     0.900000E-01   1.00800           0
     28499 MEMB     215      POPC     C316     CTL3    -0.270000       12.0110           0
     28500 MEMB     215      POPC     H16X     HAL3     0.900000E-01   1.00800           0
     28501 MEMB     215      POPC     H16Y     HAL3     0.900000E-01   1.00800           0
     28502 MEMB     215      POPC     H16Z     HAL3     0.900000E-01   1.00800           0
     28503 MEMB     216      POPC     N        NTL     -0.600000       14.0070           0
     28504 MEMB     216      POPC     C12      CTL2    -0.100000       12.0110           0
     28505 MEMB     216      POPC     H12A     HL       0.250000       1.00800           0
     28506 MEMB     216      POPC     H12B     HL       0.250000       1.00800           0
     28507 MEMB     216      POPC     C13      CTL5    -0.350000       12.0110           0
     28508 MEMB     216      POPC     H13A     HL       0.250000       1.00800           0
     28509 MEMB     216      POPC     H13B     HL       0.250000       1.00800           0
     28510 MEMB     216      POPC     H13C     HL       0.250000       1.00800           0
     28511 MEMB     216      POPC     C14      CTL5    -0.350000       12.0110           0
     28512 MEMB     216      POPC     H14A     HL       0.250000       1.00800           0
     28513 MEMB     216      POPC     H14B     HL       0.250000       1.00800           0
     28514 MEMB     216      POPC     H14C     HL       0.250000       1.00800           0
     28515 MEMB     216      POPC     C15      CTL5    -0.350000       12.0110           0
     28516 MEMB     216      POPC     H15A     HL       0.250000       1.00800           0
     28517 MEMB     216      POPC     H15B     HL       0.250000       1.00800           0
     28518 MEMB     216      POPC     H15C     HL       0.250000       1.00800           0
     28519 MEMB     216      POPC     C11      CTL2    -0.800000E-01   12.0110           0
     28520 MEMB     216      POPC     H11A     HAL2     0.900000E-01   1.00800           0
     28521 MEMB     216      POPC     H11B     HAL2     0.900000E-01   1.00800           0
     28522 MEMB     216      POPC     P        PL        1.50000       30.9740           0
     28523 MEMB     216      POPC     O13      O2L     -0.780000       15.9994           0
     28524 MEMB     216      POPC     O14      O2L     -0.780000       15.9994           0
     28525 MEMB     216      POPC     O12      OSLP    -0.570000       15.9994           0
     28526 MEMB     216      POPC     O11      OSLP    -0.570000       15.9994           0
     28527 MEMB     216      POPC     C1       CTL2    -0.800000E-01   12.0110           0
     28528 MEMB     216      POPC     HA       HAL2     0.900000E-01   1.00800           0
     28529 MEMB     216      POPC     HB       HAL2     0.900000E-01   1.00800           0
     28530 MEMB     216      POPC     C2       CTL1     0.170000       12.0110           0
     28531 MEMB     216      POPC     HS       HAL1     0.900000E-01   1.00800           0
     28532 MEMB     216      POPC     O21      OSL     -0.490000       15.9994           0
     28533 MEMB     216      POPC     C21      CL       0.900000       12.0110           0
     28534 MEMB     216      POPC     O22      OBL     -0.630000       15.9994           0
     28535 MEMB     216      POPC     C22      CTL2    -0.220000       12.0110           0
     28536 MEMB     216      POPC     H2R      HAL2     0.900000E-01   1.00800           0
     28537 MEMB     216      POPC     H2S      HAL2     0.900000E-01   1.00800           0
     28538 MEMB     216      POPC     C3       CTL2     0.800000E-01   12.0110           0
     28539 MEMB     216      POPC     HX       HAL2     0.900000E-01   1.00800           0
     28540 MEMB     216      POPC     HY       HAL2     0.900000E-01   1.00800           0
     28541 MEMB     216      POPC     O31      OSL     -0.490000       15.9994           0
     28542 MEMB     216      POPC     C31      CL       0.900000       12.0110           0
     28543 MEMB     216      POPC     O32      OBL     -0.630000       15.9994           0
     28544 MEMB     216      POPC     C32      CTL2    -0.220000       12.0110           0
     28545 MEMB     216      POPC     H2X      HAL2     0.900000E-01   1.00800           0
     28546 MEMB     216      POPC     H2Y      HAL2     0.900000E-01   1.00800           0
     28547 MEMB     216      POPC     C23      CTL2    -0.180000       12.0110           0
     28548 MEMB     216      POPC     H3R      HAL2     0.900000E-01   1.00800           0
     28549 MEMB     216      POPC     H3S      HAL2     0.900000E-01   1.00800           0
     28550 MEMB     216      POPC     C24      CTL2    -0.180000       12.0110           0
     28551 MEMB     216      POPC     H4R      HAL2     0.900000E-01   1.00800           0
     28552 MEMB     216      POPC     H4S      HAL2     0.900000E-01   1.00800           0
     28553 MEMB     216      POPC     C25      CTL2    -0.180000       12.0110           0
     28554 MEMB     216      POPC     H5R      HAL2     0.900000E-01   1.00800           0
     28555 MEMB     216      POPC     H5S      HAL2     0.900000E-01   1.00800           0
     28556 MEMB     216      POPC     C26      CTL2    -0.180000       12.0110           0
     28557 MEMB     216      POPC     H6R      HAL2     0.900000E-01   1.00800           0
     28558 MEMB     216      POPC     H6S      HAL2     0.900000E-01   1.00800           0
     28559 MEMB     216      POPC     C27      CTL2    -0.180000       12.0110           0
     28560 MEMB     216      POPC     H7R      HAL2     0.900000E-01   1.00800           0
     28561 MEMB     216      POPC     H7S      HAL2     0.900000E-01   1.00800           0
     28562 MEMB     216      POPC     C28      CTL2    -0.180000       12.0110           0
     28563 MEMB     216      POPC     H8R      HAL2     0.900000E-01   1.00800           0
     28564 MEMB     216      POPC     H8S      HAL2     0.900000E-01   1.00800           0
     28565 MEMB     216      POPC     C29      CEL1    -0.150000       12.0110           0
     28566 MEMB     216      POPC     H91      HEL1     0.150000       1.00800           0
     28567 MEMB     216      POPC     C210     CEL1    -0.150000       12.0110           0
     28568 MEMB     216      POPC     H101     HEL1     0.150000       1.00800           0
     28569 MEMB     216      POPC     C211     CTL2    -0.180000       12.0110           0
     28570 MEMB     216      POPC     H11R     HAL2     0.900000E-01   1.00800           0
     28571 MEMB     216      POPC     H11S     HAL2     0.900000E-01   1.00800           0
     28572 MEMB     216      POPC     C212     CTL2    -0.180000       12.0110           0
     28573 MEMB     216      POPC     H12R     HAL2     0.900000E-01   1.00800           0
     28574 MEMB     216      POPC     H12S     HAL2     0.900000E-01   1.00800           0
     28575 MEMB     216      POPC     C213     CTL2    -0.180000       12.0110           0
     28576 MEMB     216      POPC     H13R     HAL2     0.900000E-01   1.00800           0
     28577 MEMB     216      POPC     H13S     HAL2     0.900000E-01   1.00800           0
     28578 MEMB     216      POPC     C214     CTL2    -0.180000       12.0110           0
     28579 MEMB     216      POPC     H14R     HAL2     0.900000E-01   1.00800           0
     28580 MEMB     216      POPC     H14S     HAL2     0.900000E-01   1.00800           0
     28581 MEMB     216      POPC     C215     CTL2    -0.180000       12.0110           0
     28582 MEMB     216      POPC     H15R     HAL2     0.900000E-01   1.00800           0
     28583 MEMB     216      POPC     H15S     HAL2     0.900000E-01   1.00800           0
     28584 MEMB     216      POPC     C216     CTL2    -0.180000       12.0110           0
     28585 MEMB     216      POPC     H16R     HAL2     0.900000E-01   1.00800           0
     28586 MEMB     216      POPC     H16S     HAL2     0.900000E-01   1.00800           0
     28587 MEMB     216      POPC     C217     CTL2    -0.180000       12.0110           0
     28588 MEMB     216      POPC     H17R     HAL2     0.900000E-01   1.00800           0
     28589 MEMB     216      POPC     H17S     HAL2     0.900000E-01   1.00800           0
     28590 MEMB     216      POPC     C218     CTL3    -0.270000       12.0110           0
     28591 MEMB     216      POPC     H18R     HAL3     0.900000E-01   1.00800           0
     28592 MEMB     216      POPC     H18S     HAL3     0.900000E-01   1.00800           0
     28593 MEMB     216      POPC     H18T     HAL3     0.900000E-01   1.00800           0
     28594 MEMB     216      POPC     C33      CTL2    -0.180000       12.0110           0
     28595 MEMB     216      POPC     H3X      HAL2     0.900000E-01   1.00800           0
     28596 MEMB     216      POPC     H3Y      HAL2     0.900000E-01   1.00800           0
     28597 MEMB     216      POPC     C34      CTL2    -0.180000       12.0110           0
     28598 MEMB     216      POPC     H4X      HAL2     0.900000E-01   1.00800           0
     28599 MEMB     216      POPC     H4Y      HAL2     0.900000E-01   1.00800           0
     28600 MEMB     216      POPC     C35      CTL2    -0.180000       12.0110           0
     28601 MEMB     216      POPC     H5X      HAL2     0.900000E-01   1.00800           0
     28602 MEMB     216      POPC     H5Y      HAL2     0.900000E-01   1.00800           0
     28603 MEMB     216      POPC     C36      CTL2    -0.180000       12.0110           0
     28604 MEMB     216      POPC     H6X      HAL2     0.900000E-01   1.00800           0
     28605 MEMB     216      POPC     H6Y      HAL2     0.900000E-01   1.00800           0
     28606 MEMB     216      POPC     C37      CTL2    -0.180000       12.0110           0
     28607 MEMB     216      POPC     H7X      HAL2     0.900000E-01   1.00800           0
     28608 MEMB     216      POPC     H7Y      HAL2     0.900000E-01   1.00800           0
     28609 MEMB     216      POPC     C38      CTL2    -0.180000       12.0110           0
     28610 MEMB     216      POPC     H8X      HAL2     0.900000E-01   1.00800           0
     28611 MEMB     216      POPC     H8Y      HAL2     0.900000E-01   1.00800           0
     28612 MEMB     216      POPC     C39      CTL2    -0.180000       12.0110           0
     28613 MEMB     216      POPC     H9X      HAL2     0.900000E-01   1.00800           0
     28614 MEMB     216      POPC     H9Y      HAL2     0.900000E-01   1.00800           0
     28615 MEMB     216      POPC     C310     CTL2    -0.180000       12.0110           0
     28616 MEMB     216      POPC     H10X     HAL2     0.900000E-01   1.00800           0
     28617 MEMB     216      POPC     H10Y     HAL2     0.900000E-01   1.00800           0
     28618 MEMB     216      POPC     C311     CTL2    -0.180000       12.0110           0
     28619 MEMB     216      POPC     H11X     HAL2     0.900000E-01   1.00800           0
     28620 MEMB     216      POPC     H11Y     HAL2     0.900000E-01   1.00800           0
     28621 MEMB     216      POPC     C312     CTL2    -0.180000       12.0110           0
     28622 MEMB     216      POPC     H12X     HAL2     0.900000E-01   1.00800           0
     28623 MEMB     216      POPC     H12Y     HAL2     0.900000E-01   1.00800           0
     28624 MEMB     216      POPC     C313     CTL2    -0.180000       12.0110           0
     28625 MEMB     216      POPC     H13X     HAL2     0.900000E-01   1.00800           0
     28626 MEMB     216      POPC     H13Y     HAL2     0.900000E-01   1.00800           0
     28627 MEMB     216      POPC     C314     CTL2    -0.180000       12.0110           0
     28628 MEMB     216      POPC     H14X     HAL2     0.900000E-01   1.00800           0
     28629 MEMB     216      POPC     H14Y     HAL2     0.900000E-01   1.00800           0
     28630 MEMB     216      POPC     C315     CTL2    -0.180000       12.0110           0
     28631 MEMB     216      POPC     H15X     HAL2     0.900000E-01   1.00800           0
     28632 MEMB     216      POPC     H15Y     HAL2     0.900000E-01   1.00800           0
     28633 MEMB     216      POPC     C316     CTL3    -0.270000       12.0110           0
     28634 MEMB     216      POPC     H16X     HAL3     0.900000E-01   1.00800           0
     28635 MEMB     216      POPC     H16Y     HAL3     0.900000E-01   1.00800           0
     28636 MEMB     216      POPC     H16Z     HAL3     0.900000E-01   1.00800           0
     28637 TIP3     1        TIP3     OH2      OT      -0.834000       15.9994           0
     28638 TIP3     1        TIP3     H1       HT       0.417000       1.00800           0
     28639 TIP3     1        TIP3     H2       HT       0.417000       1.00800           0
     28640 TIP3     2        TIP3     OH2      OT      -0.834000       15.9994           0
     28641 TIP3     2        TIP3     H1       HT       0.417000       1.00800           0
     28642 TIP3     2        TIP3     H2       HT       0.417000       1.00800           0
     28643 TIP3     3        TIP3     OH2      OT      -0.834000       15.9994           0
     28644 TIP3     3        TIP3     H1       HT       0.417000       1.00800           0
     28645 TIP3     3        TIP3     H2       HT       0.417000       1.00800           0
     28646 TIP3     4        TIP3     OH2      OT      -0.834000       15.9994           0
     28647 TIP3     4        TIP3     H1       HT       0.417000       1.00800           0
     28648 TIP3     4        TIP3     H2       HT       0.417000       1.00800           0
     28649 TIP3     5        TIP3     OH2      OT      -0.834000       15.9994           0
     28650 TIP3     5        TIP3     H1       HT       0.417000       1.00800           0
     28651 TIP3     5        TIP3     H2       HT       0.417000       1.00800           0
     28652 TIP3     6        TIP3     OH2      OT      -0.834000       15.9994           0
     28653 TIP3     6        TIP3     H1       HT       0.417000       1.00800           0
     28654 TIP3     6        TIP3     H2       HT       0.417000       1.00800           0
     28655 TIP3     7        TIP3     OH2      OT      -0.834000       15.9994           0
     28656 TIP3     7        TIP3     H1       HT       0.417000       1.00800           0
     28657 TIP3     7        TIP3     H2       HT       0.417000       1.00800           0
     28658 TIP3     8        TIP3     OH2      OT      -0.834000       15.9994           0
     28659 TIP3     8        TIP3     H1       HT       0.417000       1.00800           0
     28660 TIP3     8        TIP3     H2       HT       0.417000       1.00800           0
     28661 TIP3     9        TIP3     OH2      OT      -0.834000       15.9994           0
     28662 TIP3     9        TIP3     H1       HT       0.417000       1.00800           0
     28663 TIP3     9        TIP3     H2       HT       0.417000       1.00800           0
     28664 TIP3     10       TIP3     OH2      OT      -0.834000       15.9994           0
     28665 TIP3     10       TIP3     H1       HT       0.417000       1.00800           0
     28666 TIP3     10       TIP3     H2       HT       0.417000       1.00800           0
     28667 TIP3     11       TIP3     OH2      OT      -0.834000       15.9994           0
     28668 TIP3     11       TIP3     H1       HT       0.417000       1.00800           0
     28669 TIP3     11       TIP3     H2       HT       0.417000       1.00800           0
     28670 TIP3     12       TIP3     OH2      OT      -0.834000       15.9994           0
     28671 TIP3     12       TIP3     H1       HT       0.417000       1.00800           0
     28672 TIP3     12       TIP3     H2       HT       0.417000       1.00800           0
     28673 TIP3     13       TIP3     OH2      OT      -0.834000       15.9994           0
     28674 TIP3     13       TIP3     H1       HT       0.417000       1.00800           0
     28675 TIP3     13       TIP3     H2       HT       0.417000       1.00800           0
     28676 TIP3     14       TIP3     OH2      OT      -0.834000       15.9994           0
     28677 TIP3     14       TIP3     H1       HT       0.417000       1.00800           0
     28678 TIP3     14       TIP3     H2       HT       0.417000       1.00800           0
     28679 TIP3     15       TIP3     OH2      OT      -0.834000       15.9994           0
     28680 TIP3     15       TIP3     H1       HT       0.417000       1.00800           0
     28681 TIP3     15       TIP3     H2       HT       0.417000       1.00800           0
     28682 TIP3     16       TIP3     OH2      OT      -0.834000       15.9994           0
     28683 TIP3     16       TIP3     H1       HT       0.417000       1.00800           0
     28684 TIP3     16       TIP3     H2       HT       0.417000       1.00800           0
     28685 TIP3     17       TIP3     OH2      OT      -0.834000       15.9994           0
     28686 TIP3     17       TIP3     H1       HT       0.417000       1.00800           0
     28687 TIP3     17       TIP3     H2       HT       0.417000       1.00800           0
     28688 TIP3     18       TIP3     OH2      OT      -0.834000       15.9994           0
     28689 TIP3     18       TIP3     H1       HT       0.417000       1.00800           0
     28690 TIP3     18       TIP3     H2       HT       0.417000       1.00800           0
     28691 TIP3     19       TIP3     OH2      OT      -0.834000       15.9994           0
     28692 TIP3     19       TIP3     H1       HT       0.417000       1.00800           0
     28693 TIP3     19       TIP3     H2       HT       0.417000       1.00800           0
     28694 TIP3     20       TIP3     OH2      OT      -0.834000       15.9994           0
     28695 TIP3     20       TIP3     H1       HT       0.417000       1.00800           0
     28696 TIP3     20       TIP3     H2       HT       0.417000       1.00800           0
     28697 TIP3     21       TIP3     OH2      OT      -0.834000       15.9994           0
     28698 TIP3     21       TIP3     H1       HT       0.417000       1.00800           0
     28699 TIP3     21       TIP3     H2       HT       0.417000       1.00800           0
     28700 TIP3     22       TIP3     OH2      OT      -0.834000       15.9994           0
     28701 TIP3     22       TIP3     H1       HT       0.417000       1.00800           0
     28702 TIP3     22       TIP3     H2       HT       0.417000       1.00800           0
     28703 TIP3     23       TIP3     OH2      OT      -0.834000       15.9994           0
     28704 TIP3     23       TIP3     H1       HT       0.417000       1.00800           0
     28705 TIP3     23       TIP3     H2       HT       0.417000       1.00800           0
     28706 TIP3     24       TIP3     OH2      OT      -0.834000       15.9994           0
     28707 TIP3     24       TIP3     H1       HT       0.417000       1.00800           0
     28708 TIP3     24       TIP3     H2       HT       0.417000       1.00800           0
     28709 TIP3     25       TIP3     OH2      OT      -0.834000       15.9994           0
     28710 TIP3     25       TIP3     H1       HT       0.417000       1.00800           0
     28711 TIP3     25       TIP3     H2       HT       0.417000       1.00800           0
     28712 TIP3     26       TIP3     OH2      OT      -0.834000       15.9994           0
     28713 TIP3     26       TIP3     H1       HT       0.417000       1.00800           0
     28714 TIP3     26       TIP3     H2       HT       0.417000       1.00800           0
     28715 TIP3     27       TIP3     OH2      OT      -0.834000       15.9994           0
     28716 TIP3     27       TIP3     H1       HT       0.417000       1.00800           0
     28717 TIP3     27       TIP3     H2       HT       0.417000       1.00800           0
     28718 TIP3     28       TIP3     OH2      OT      -0.834000       15.9994           0
     28719 TIP3     28       TIP3     H1       HT       0.417000       1.00800           0
     28720 TIP3     28       TIP3     H2       HT       0.417000       1.00800           0
     28721 TIP3     29       TIP3     OH2      OT      -0.834000       15.9994           0
     28722 TIP3     29       TIP3     H1       HT       0.417000       1.00800           0
     28723 TIP3     29       TIP3     H2       HT       0.417000       1.00800           0
     28724 TIP3     30       TIP3     OH2      OT      -0.834000       15.9994           0
     28725 TIP3     30       TIP3     H1       HT       0.417000       1.00800           0
     28726 TIP3     30       TIP3     H2       HT       0.417000       1.00800           0
     28727 TIP3     31       TIP3     OH2      OT      -0.834000       15.9994           0
     28728 TIP3     31       TIP3     H1       HT       0.417000       1.00800           0
     28729 TIP3     31       TIP3     H2       HT       0.417000       1.00800           0
     28730 TIP3     32       TIP3     OH2      OT      -0.834000       15.9994           0
     28731 TIP3     32       TIP3     H1       HT       0.417000       1.00800           0
     28732 TIP3     32       TIP3     H2       HT       0.417000       1.00800           0
     28733 TIP3     33       TIP3     OH2      OT      -0.834000       15.9994           0
     28734 TIP3     33       TIP3     H1       HT       0.417000       1.00800           0
     28735 TIP3     33       TIP3     H2       HT       0.417000       1.00800           0
     28736 TIP3     34       TIP3     OH2      OT      -0.834000       15.9994           0
     28737 TIP3     34       TIP3     H1       HT       0.417000       1.00800           0
     28738 TIP3     34       TIP3     H2       HT       0.417000       1.00800           0
     28739 TIP3     35       TIP3     OH2      OT      -0.834000       15.9994           0
     28740 TIP3     35       TIP3     H1       HT       0.417000       1.00800           0
     28741 TIP3     35       TIP3     H2       HT       0.417000       1.00800           0
     28742 TIP3     36       TIP3     OH2      OT      -0.834000       15.9994           0
     28743 TIP3     36       TIP3     H1       HT       0.417000       1.00800           0
     28744 TIP3     36       TIP3     H2       HT       0.417000       1.00800           0
     28745 TIP3     37       TIP3     OH2      OT      -0.834000       15.9994           0
     28746 TIP3     37       TIP3     H1       HT       0.417000       1.00800           0
     28747 TIP3     37       TIP3     H2       HT       0.417000       1.00800           0
     28748 TIP3     38       TIP3     OH2      OT      -0.834000       15.9994           0
     28749 TIP3     38       TIP3     H1       HT       0.417000       1.00800           0
     28750 TIP3     38       TIP3     H2       HT       0.417000       1.00800           0
     28751 TIP3     39       TIP3     OH2      OT      -0.834000       15.9994           0
     28752 TIP3     39       TIP3     H1       HT       0.417000       1.00800           0
     28753 TIP3     39       TIP3     H2       HT       0.417000       1.00800           0
     28754 TIP3     40       TIP3     OH2      OT      -0.834000       15.9994           0
     28755 TIP3     40       TIP3     H1       HT       0.417000       1.00800           0
     28756 TIP3     40       TIP3     H2       HT       0.417000       1.00800           0
     28757 TIP3     41       TIP3     OH2      OT      -0.834000       15.9994           0
     28758 TIP3     41       TIP3     H1       HT       0.417000       1.00800           0
     28759 TIP3     41       TIP3     H2       HT       0.417000       1.00800           0
     28760 TIP3     42       TIP3     OH2      OT      -0.834000       15.9994           0
     28761 TIP3     42       TIP3     H1       HT       0.417000       1.00800           0
     28762 TIP3     42       TIP3     H2       HT       0.417000       1.00800           0
     28763 TIP3     43       TIP3     OH2      OT      -0.834000       15.9994           0
     28764 TIP3     43       TIP3     H1       HT       0.417000       1.00800           0
     28765 TIP3     43       TIP3     H2       HT       0.417000       1.00800           0
     28766 TIP3     44       TIP3     OH2      OT      -0.834000       15.9994           0
     28767 TIP3     44       TIP3     H1       HT       0.417000       1.00800           0
     28768 TIP3     44       TIP3     H2       HT       0.417000       1.00800           0
     28769 TIP3     45       TIP3     OH2      OT      -0.834000       15.9994           0
     28770 TIP3     45       TIP3     H1       HT       0.417000       1.00800           0
     28771 TIP3     45       TIP3     H2       HT       0.417000       1.00800           0
     28772 TIP3     46       TIP3     OH2      OT      -0.834000       15.9994           0
     28773 TIP3     46       TIP3     H1       HT       0.417000       1.00800           0
     28774 TIP3     46       TIP3     H2       HT       0.417000       1.00800           0
     28775 TIP3     47       TIP3     OH2      OT      -0.834000       15.9994           0
     28776 TIP3     47       TIP3     H1       HT       0.417000       1.00800           0
     28777 TIP3     47       TIP3     H2       HT       0.417000       1.00800           0
     28778 TIP3     48       TIP3     OH2      OT      -0.834000       15.9994           0
     28779 TIP3     48       TIP3     H1       HT       0.417000       1.00800           0
     28780 TIP3     48       TIP3     H2       HT       0.417000       1.00800           0
     28781 TIP3     49       TIP3     OH2      OT      -0.834000       15.9994           0
     28782 TIP3     49       TIP3     H1       HT       0.417000       1.00800           0
     28783 TIP3     49       TIP3     H2       HT       0.417000       1.00800           0
     28784 TIP3     50       TIP3     OH2      OT      -0.834000       15.9994           0
     28785 TIP3     50       TIP3     H1       HT       0.417000       1.00800           0
     28786 TIP3     50       TIP3     H2       HT       0.417000       1.00800           0
     28787 TIP3     51       TIP3     OH2      OT      -0.834000       15.9994           0
     28788 TIP3     51       TIP3     H1       HT       0.417000       1.00800           0
     28789 TIP3     51       TIP3     H2       HT       0.417000       1.00800           0
     28790 TIP3     52       TIP3     OH2      OT      -0.834000       15.9994           0
     28791 TIP3     52       TIP3     H1       HT       0.417000       1.00800           0
     28792 TIP3     52       TIP3     H2       HT       0.417000       1.00800           0
     28793 TIP3     53       TIP3     OH2      OT      -0.834000       15.9994           0
     28794 TIP3     53       TIP3     H1       HT       0.417000       1.00800           0
     28795 TIP3     53       TIP3     H2       HT       0.417000       1.00800           0
     28796 TIP3     54       TIP3     OH2      OT      -0.834000       15.9994           0
     28797 TIP3     54       TIP3     H1       HT       0.417000       1.00800           0
     28798 TIP3     54       TIP3     H2       HT       0.417000       1.00800           0
     28799 TIP3     55       TIP3     OH2      OT      -0.834000       15.9994           0
     28800 TIP3     55       TIP3     H1       HT       0.417000       1.00800           0
     28801 TIP3     55       TIP3     H2       HT       0.417000       1.00800           0
     28802 TIP3     56       TIP3     OH2      OT      -0.834000       15.9994           0
     28803 TIP3     56       TIP3     H1       HT       0.417000       1.00800           0
     28804 TIP3     56       TIP3     H2       HT       0.417000       1.00800           0
     28805 TIP3     57       TIP3     OH2      OT      -0.834000       15.9994           0
     28806 TIP3     57       TIP3     H1       HT       0.417000       1.00800           0
     28807 TIP3     57       TIP3     H2       HT       0.417000       1.00800           0
     28808 TIP3     58       TIP3     OH2      OT      -0.834000       15.9994           0
     28809 TIP3     58       TIP3     H1       HT       0.417000       1.00800           0
     28810 TIP3     58       TIP3     H2       HT       0.417000       1.00800           0
     28811 TIP3     59       TIP3     OH2      OT      -0.834000       15.9994           0
     28812 TIP3     59       TIP3     H1       HT       0.417000       1.00800           0
     28813 TIP3     59       TIP3     H2       HT       0.417000       1.00800           0
     28814 TIP3     60       TIP3     OH2      OT      -0.834000       15.9994           0
     28815 TIP3     60       TIP3     H1       HT       0.417000       1.00800           0
     28816 TIP3     60       TIP3     H2       HT       0.417000       1.00800           0
     28817 TIP3     61       TIP3     OH2      OT      -0.834000       15.9994           0
     28818 TIP3     61       TIP3     H1       HT       0.417000       1.00800           0
     28819 TIP3     61       TIP3     H2       HT       0.417000       1.00800           0
     28820 TIP3     62       TIP3     OH2      OT      -0.834000       15.9994           0
     28821 TIP3     62       TIP3     H1       HT       0.417000       1.00800           0
     28822 TIP3     62       TIP3     H2       HT       0.417000       1.00800           0
     28823 TIP3     63       TIP3     OH2      OT      -0.834000       15.9994           0
     28824 TIP3     63       TIP3     H1       HT       0.417000       1.00800           0
     28825 TIP3     63       TIP3     H2       HT       0.417000       1.00800           0
     28826 TIP3     64       TIP3     OH2      OT      -0.834000       15.9994           0
     28827 TIP3     64       TIP3     H1       HT       0.417000       1.00800           0
     28828 TIP3     64       TIP3     H2       HT       0.417000       1.00800           0
     28829 TIP3     65       TIP3     OH2      OT      -0.834000       15.9994           0
     28830 TIP3     65       TIP3     H1       HT       0.417000       1.00800           0
     28831 TIP3     65       TIP3     H2       HT       0.417000       1.00800           0
     28832 TIP3     66       TIP3     OH2      OT      -0.834000       15.9994           0
     28833 TIP3     66       TIP3     H1       HT       0.417000       1.00800           0
     28834 TIP3     66       TIP3     H2       HT       0.417000       1.00800           0
     28835 TIP3     67       TIP3     OH2      OT      -0.834000       15.9994           0
     28836 TIP3     67       TIP3     H1       HT       0.417000       1.00800           0
     28837 TIP3     67       TIP3     H2       HT       0.417000       1.00800           0
     28838 TIP3     68       TIP3     OH2      OT      -0.834000       15.9994           0
     28839 TIP3     68       TIP3     H1       HT       0.417000       1.00800           0
     28840 TIP3     68       TIP3     H2       HT       0.417000       1.00800           0
     28841 TIP3     69       TIP3     OH2      OT      -0.834000       15.9994           0
     28842 TIP3     69       TIP3     H1       HT       0.417000       1.00800           0
     28843 TIP3     69       TIP3     H2       HT       0.417000       1.00800           0
     28844 TIP3     70       TIP3     OH2      OT      -0.834000       15.9994           0
     28845 TIP3     70       TIP3     H1       HT       0.417000       1.00800           0
     28846 TIP3     70       TIP3     H2       HT       0.417000       1.00800           0
     28847 TIP3     71       TIP3     OH2      OT      -0.834000       15.9994           0
     28848 TIP3     71       TIP3     H1       HT       0.417000       1.00800           0
     28849 TIP3     71       TIP3     H2       HT       0.417000       1.00800           0
     28850 TIP3     72       TIP3     OH2      OT      -0.834000       15.9994           0
     28851 TIP3     72       TIP3     H1       HT       0.417000       1.00800           0
     28852 TIP3     72       TIP3     H2       HT       0.417000       1.00800           0
     28853 TIP3     73       TIP3     OH2      OT      -0.834000       15.9994           0
     28854 TIP3     73       TIP3     H1       HT       0.417000       1.00800           0
     28855 TIP3     73       TIP3     H2       HT       0.417000       1.00800           0
     28856 TIP3     74       TIP3     OH2      OT      -0.834000       15.9994           0
     28857 TIP3     74       TIP3     H1       HT       0.417000       1.00800           0
     28858 TIP3     74       TIP3     H2       HT       0.417000       1.00800           0
     28859 TIP3     75       TIP3     OH2      OT      -0.834000       15.9994           0
     28860 TIP3     75       TIP3     H1       HT       0.417000       1.00800           0
     28861 TIP3     75       TIP3     H2       HT       0.417000       1.00800           0
     28862 TIP3     76       TIP3     OH2      OT      -0.834000       15.9994           0
     28863 TIP3     76       TIP3     H1       HT       0.417000       1.00800           0
     28864 TIP3     76       TIP3     H2       HT       0.417000       1.00800           0
     28865 TIP3     77       TIP3     OH2      OT      -0.834000       15.9994           0
     28866 TIP3     77       TIP3     H1       HT       0.417000       1.00800           0
     28867 TIP3     77       TIP3     H2       HT       0.417000       1.00800           0
     28868 TIP3     78       TIP3     OH2      OT      -0.834000       15.9994           0
     28869 TIP3     78       TIP3     H1       HT       0.417000       1.00800           0
     28870 TIP3     78       TIP3     H2       HT       0.417000       1.00800           0
     28871 TIP3     79       TIP3     OH2      OT      -0.834000       15.9994           0
     28872 TIP3     79       TIP3     H1       HT       0.417000       1.00800           0
     28873 TIP3     79       TIP3     H2       HT       0.417000       1.00800           0
     28874 TIP3     80       TIP3     OH2      OT      -0.834000       15.9994           0
     28875 TIP3     80       TIP3     H1       HT       0.417000       1.00800           0
     28876 TIP3     80       TIP3     H2       HT       0.417000       1.00800           0
     28877 TIP3     81       TIP3     OH2      OT      -0.834000       15.9994           0
     28878 TIP3     81       TIP3     H1       HT       0.417000       1.00800           0
     28879 TIP3     81       TIP3     H2       HT       0.417000       1.00800           0
     28880 TIP3     82       TIP3     OH2      OT      -0.834000       15.9994           0
     28881 TIP3     82       TIP3     H1       HT       0.417000       1.00800           0
     28882 TIP3     82       TIP3     H2       HT       0.417000       1.00800           0
     28883 TIP3     83       TIP3     OH2      OT      -0.834000       15.9994           0
     28884 TIP3     83       TIP3     H1       HT       0.417000       1.00800           0
     28885 TIP3     83       TIP3     H2       HT       0.417000       1.00800           0
     28886 TIP3     84       TIP3     OH2      OT      -0.834000       15.9994           0
     28887 TIP3     84       TIP3     H1       HT       0.417000       1.00800           0
     28888 TIP3     84       TIP3     H2       HT       0.417000       1.00800           0
     28889 TIP3     85       TIP3     OH2      OT      -0.834000       15.9994           0
     28890 TIP3     85       TIP3     H1       HT       0.417000       1.00800           0
     28891 TIP3     85       TIP3     H2       HT       0.417000       1.00800           0
     28892 TIP3     86       TIP3     OH2      OT      -0.834000       15.9994           0
     28893 TIP3     86       TIP3     H1       HT       0.417000       1.00800           0
     28894 TIP3     86       TIP3     H2       HT       0.417000       1.00800           0
     28895 TIP3     87       TIP3     OH2      OT      -0.834000       15.9994           0
     28896 TIP3     87       TIP3     H1       HT       0.417000       1.00800           0
     28897 TIP3     87       TIP3     H2       HT       0.417000       1.00800           0
     28898 TIP3     88       TIP3     OH2      OT      -0.834000       15.9994           0
     28899 TIP3     88       TIP3     H1       HT       0.417000       1.00800           0
     28900 TIP3     88       TIP3     H2       HT       0.417000       1.00800           0
     28901 TIP3     89       TIP3     OH2      OT      -0.834000       15.9994           0
     28902 TIP3     89       TIP3     H1       HT       0.417000       1.00800           0
     28903 TIP3     89       TIP3     H2       HT       0.417000       1.00800           0
     28904 TIP3     90       TIP3     OH2      OT      -0.834000       15.9994           0
     28905 TIP3     90       TIP3     H1       HT       0.417000       1.00800           0
     28906 TIP3     90       TIP3     H2       HT       0.417000       1.00800           0
     28907 TIP3     91       TIP3     OH2      OT      -0.834000       15.9994           0
     28908 TIP3     91       TIP3     H1       HT       0.417000       1.00800           0
     28909 TIP3     91       TIP3     H2       HT       0.417000       1.00800           0
     28910 TIP3     92       TIP3     OH2      OT      -0.834000       15.9994           0
     28911 TIP3     92       TIP3     H1       HT       0.417000       1.00800           0
     28912 TIP3     92       TIP3     H2       HT       0.417000       1.00800           0
     28913 TIP3     93       TIP3     OH2      OT      -0.834000       15.9994           0
     28914 TIP3     93       TIP3     H1       HT       0.417000       1.00800           0
     28915 TIP3     93       TIP3     H2       HT       0.417000       1.00800           0
     28916 TIP3     94       TIP3     OH2      OT      -0.834000       15.9994           0
     28917 TIP3     94       TIP3     H1       HT       0.417000       1.00800           0
     28918 TIP3     94       TIP3     H2       HT       0.417000       1.00800           0
     28919 TIP3     95       TIP3     OH2      OT      -0.834000       15.9994           0
     28920 TIP3     95       TIP3     H1       HT       0.417000       1.00800           0
     28921 TIP3     95       TIP3     H2       HT       0.417000       1.00800           0
     28922 TIP3     96       TIP3     OH2      OT      -0.834000       15.9994           0
     28923 TIP3     96       TIP3     H1       HT       0.417000       1.00800           0
     28924 TIP3     96       TIP3     H2       HT       0.417000       1.00800           0
     28925 TIP3     97       TIP3     OH2      OT      -0.834000       15.9994           0
     28926 TIP3     97       TIP3     H1       HT       0.417000       1.00800           0
     28927 TIP3     97       TIP3     H2       HT       0.417000       1.00800           0
     28928 TIP3     98       TIP3     OH2      OT      -0.834000       15.9994           0
     28929 TIP3     98       TIP3     H1       HT       0.417000       1.00800           0
     28930 TIP3     98       TIP3     H2       HT       0.417000       1.00800           0
     28931 TIP3     99       TIP3     OH2      OT      -0.834000       15.9994           0
     28932 TIP3     99       TIP3     H1       HT       0.417000       1.00800           0
     28933 TIP3     99       TIP3     H2       HT       0.417000       1.00800           0
     28934 TIP3     100      TIP3     OH2      OT      -0.834000       15.9994           0
     28935 TIP3     100      TIP3     H1       HT       0.417000       1.00800           0
     28936 TIP3     100      TIP3     H2       HT       0.417000       1.00800           0
     28937 TIP3     101      TIP3     OH2      OT      -0.834000       15.9994           0
     28938 TIP3     101      TIP3     H1       HT       0.417000       1.00800           0
     28939 TIP3     101      TIP3     H2       HT       0.417000       1.00800           0
     28940 TIP3     102      TIP3     OH2      OT      -0.834000       15.9994           0
     28941 TIP3     102      TIP3     H1       HT       0.417000       1.00800           0
     28942 TIP3     102      TIP3     H2       HT       0.417000       1.00800           0
     28943 TIP3     103      TIP3     OH2      OT      -0.834000       15.9994           0
     28944 TIP3     103      TIP3     H1       HT       0.417000       1.00800           0
     28945 TIP3     103      TIP3     H2       HT       0.417000       1.00800           0
     28946 TIP3     104      TIP3     OH2      OT      -0.834000       15.9994           0
     28947 TIP3     104      TIP3     H1       HT       0.417000       1.00800           0
     28948 TIP3     104      TIP3     H2       HT       0.417000       1.00800           0
     28949 TIP3     105      TIP3     OH2      OT      -0.834000       15.9994           0
     28950 TIP3     105      TIP3     H1       HT       0.417000       1.00800           0
     28951 TIP3     105      TIP3     H2       HT       0.417000       1.00800           0
     28952 TIP3     106      TIP3     OH2      OT      -0.834000       15.9994           0
     28953 TIP3     106      TIP3     H1       HT       0.417000       1.00800           0
     28954 TIP3     106      TIP3     H2       HT       0.417000       1.00800           0
     28955 TIP3     107      TIP3     OH2      OT      -0.834000       15.9994           0
     28956 TIP3     107      TIP3     H1       HT       0.417000       1.00800           0
     28957 TIP3     107      TIP3     H2       HT       0.417000       1.00800           0
     28958 TIP3     108      TIP3     OH2      OT      -0.834000       15.9994           0
     28959 TIP3     108      TIP3     H1       HT       0.417000       1.00800           0
     28960 TIP3     108      TIP3     H2       HT       0.417000       1.00800           0
     28961 TIP3     109      TIP3     OH2      OT      -0.834000       15.9994           0
     28962 TIP3     109      TIP3     H1       HT       0.417000       1.00800           0
     28963 TIP3     109      TIP3     H2       HT       0.417000       1.00800           0
     28964 TIP3     110      TIP3     OH2      OT      -0.834000       15.9994           0
     28965 TIP3     110      TIP3     H1       HT       0.417000       1.00800           0
     28966 TIP3     110      TIP3     H2       HT       0.417000       1.00800           0
     28967 TIP3     111      TIP3     OH2      OT      -0.834000       15.9994           0
     28968 TIP3     111      TIP3     H1       HT       0.417000       1.00800           0
     28969 TIP3     111      TIP3     H2       HT       0.417000       1.00800           0
     28970 TIP3     112      TIP3     OH2      OT      -0.834000       15.9994           0
     28971 TIP3     112      TIP3     H1       HT       0.417000       1.00800           0
     28972 TIP3     112      TIP3     H2       HT       0.417000       1.00800           0
     28973 TIP3     113      TIP3     OH2      OT      -0.834000       15.9994           0
     28974 TIP3     113      TIP3     H1       HT       0.417000       1.00800           0
     28975 TIP3     113      TIP3     H2       HT       0.417000       1.00800           0
     28976 TIP3     114      TIP3     OH2      OT      -0.834000       15.9994           0
     28977 TIP3     114      TIP3     H1       HT       0.417000       1.00800           0
     28978 TIP3     114      TIP3     H2       HT       0.417000       1.00800           0
     28979 TIP3     115      TIP3     OH2      OT      -0.834000       15.9994           0
     28980 TIP3     115      TIP3     H1       HT       0.417000       1.00800           0
     28981 TIP3     115      TIP3     H2       HT       0.417000       1.00800           0
     28982 TIP3     116      TIP3     OH2      OT      -0.834000       15.9994           0
     28983 TIP3     116      TIP3     H1       HT       0.417000       1.00800           0
     28984 TIP3     116      TIP3     H2       HT       0.417000       1.00800           0
     28985 TIP3     117      TIP3     OH2      OT      -0.834000       15.9994           0
     28986 TIP3     117      TIP3     H1       HT       0.417000       1.00800           0
     28987 TIP3     117      TIP3     H2       HT       0.417000       1.00800           0
     28988 TIP3     118      TIP3     OH2      OT      -0.834000       15.9994           0
     28989 TIP3     118      TIP3     H1       HT       0.417000       1.00800           0
     28990 TIP3     118      TIP3     H2       HT       0.417000       1.00800           0
     28991 TIP3     119      TIP3     OH2      OT      -0.834000       15.9994           0
     28992 TIP3     119      TIP3     H1       HT       0.417000       1.00800           0
     28993 TIP3     119      TIP3     H2       HT       0.417000       1.00800           0
     28994 TIP3     120      TIP3     OH2      OT      -0.834000       15.9994           0
     28995 TIP3     120      TIP3     H1       HT       0.417000       1.00800           0
     28996 TIP3     120      TIP3     H2       HT       0.417000       1.00800           0
     28997 TIP3     121      TIP3     OH2      OT      -0.834000       15.9994           0
     28998 TIP3     121      TIP3     H1       HT       0.417000       1.00800           0
     28999 TIP3     121      TIP3     H2       HT       0.417000       1.00800           0
     29000 TIP3     122      TIP3     OH2      OT      -0.834000       15.9994           0
     29001 TIP3     122      TIP3     H1       HT       0.417000       1.00800           0
     29002 TIP3     122      TIP3     H2       HT       0.417000       1.00800           0
     29003 TIP3     123      TIP3     OH2      OT      -0.834000       15.9994           0
     29004 TIP3     123      TIP3     H1       HT       0.417000       1.00800           0
     29005 TIP3     123      TIP3     H2       HT       0.417000       1.00800           0
     29006 TIP3     124      TIP3     OH2      OT      -0.834000       15.9994           0
     29007 TIP3     124      TIP3     H1       HT       0.417000       1.00800           0
     29008 TIP3     124      TIP3     H2       HT       0.417000       1.00800           0
     29009 TIP3     125      TIP3     OH2      OT      -0.834000       15.9994           0
     29010 TIP3     125      TIP3     H1       HT       0.417000       1.00800           0
     29011 TIP3     125      TIP3     H2       HT       0.417000       1.00800           0
     29012 TIP3     126      TIP3     OH2      OT      -0.834000       15.9994           0
     29013 TIP3     126      TIP3     H1       HT       0.417000       1.00800           0
     29014 TIP3     126      TIP3     H2       HT       0.417000       1.00800           0
     29015 TIP3     127      TIP3     OH2      OT      -0.834000       15.9994           0
     29016 TIP3     127      TIP3     H1       HT       0.417000       1.00800           0
     29017 TIP3     127      TIP3     H2       HT       0.417000       1.00800           0
     29018 TIP3     128      TIP3     OH2      OT      -0.834000       15.9994           0
     29019 TIP3     128      TIP3     H1       HT       0.417000       1.00800           0
     29020 TIP3     128      TIP3     H2       HT       0.417000       1.00800           0
     29021 TIP3     129      TIP3     OH2      OT      -0.834000       15.9994           0
     29022 TIP3     129      TIP3     H1       HT       0.417000       1.00800           0
     29023 TIP3     129      TIP3     H2       HT       0.417000       1.00800           0
     29024 TIP3     130      TIP3     OH2      OT      -0.834000       15.9994           0
     29025 TIP3     130      TIP3     H1       HT       0.417000       1.00800           0
     29026 TIP3     130      TIP3     H2       HT       0.417000       1.00800           0
     29027 TIP3     131      TIP3     OH2      OT      -0.834000       15.9994           0
     29028 TIP3     131      TIP3     H1       HT       0.417000       1.00800           0
     29029 TIP3     131      TIP3     H2       HT       0.417000       1.00800           0
     29030 TIP3     132      TIP3     OH2      OT      -0.834000       15.9994           0
     29031 TIP3     132      TIP3     H1       HT       0.417000       1.00800           0
     29032 TIP3     132      TIP3     H2       HT       0.417000       1.00800           0
     29033 TIP3     133      TIP3     OH2      OT      -0.834000       15.9994           0
     29034 TIP3     133      TIP3     H1       HT       0.417000       1.00800           0
     29035 TIP3     133      TIP3     H2       HT       0.417000       1.00800           0
     29036 TIP3     134      TIP3     OH2      OT      -0.834000       15.9994           0
     29037 TIP3     134      TIP3     H1       HT       0.417000       1.00800           0
     29038 TIP3     134      TIP3     H2       HT       0.417000       1.00800           0
     29039 TIP3     135      TIP3     OH2      OT      -0.834000       15.9994           0
     29040 TIP3     135      TIP3     H1       HT       0.417000       1.00800           0
     29041 TIP3     135      TIP3     H2       HT       0.417000       1.00800           0
     29042 TIP3     136      TIP3     OH2      OT      -0.834000       15.9994           0
     29043 TIP3     136      TIP3     H1       HT       0.417000       1.00800           0
     29044 TIP3     136      TIP3     H2       HT       0.417000       1.00800           0
     29045 TIP3     137      TIP3     OH2      OT      -0.834000       15.9994           0
     29046 TIP3     137      TIP3     H1       HT       0.417000       1.00800           0
     29047 TIP3     137      TIP3     H2       HT       0.417000       1.00800           0
     29048 TIP3     138      TIP3     OH2      OT      -0.834000       15.9994           0
     29049 TIP3     138      TIP3     H1       HT       0.417000       1.00800           0
     29050 TIP3     138      TIP3     H2       HT       0.417000       1.00800           0
     29051 TIP3     139      TIP3     OH2      OT      -0.834000       15.9994           0
     29052 TIP3     139      TIP3     H1       HT       0.417000       1.00800           0
     29053 TIP3     139      TIP3     H2       HT       0.417000       1.00800           0
     29054 TIP3     140      TIP3     OH2      OT      -0.834000       15.9994           0
     29055 TIP3     140      TIP3     H1       HT       0.417000       1.00800           0
     29056 TIP3     140      TIP3     H2       HT       0.417000       1.00800           0
     29057 TIP3     141      TIP3     OH2      OT      -0.834000       15.9994           0
     29058 TIP3     141      TIP3     H1       HT       0.417000       1.00800           0
     29059 TIP3     141      TIP3     H2       HT       0.417000       1.00800           0
     29060 TIP3     142      TIP3     OH2      OT      -0.834000       15.9994           0
     29061 TIP3     142      TIP3     H1       HT       0.417000       1.00800           0
     29062 TIP3     142      TIP3     H2       HT       0.417000       1.00800           0
     29063 TIP3     143      TIP3     OH2      OT      -0.834000       15.9994           0
     29064 TIP3     143      TIP3     H1       HT       0.417000       1.00800           0
     29065 TIP3     143      TIP3     H2       HT       0.417000       1.00800           0
     29066 TIP3     144      TIP3     OH2      OT      -0.834000       15.9994           0
     29067 TIP3     144      TIP3     H1       HT       0.417000       1.00800           0
     29068 TIP3     144      TIP3     H2       HT       0.417000       1.00800           0
     29069 TIP3     145      TIP3     OH2      OT      -0.834000       15.9994           0
     29070 TIP3     145      TIP3     H1       HT       0.417000       1.00800           0
     29071 TIP3     145      TIP3     H2       HT       0.417000       1.00800           0
     29072 TIP3     146      TIP3     OH2      OT      -0.834000       15.9994           0
     29073 TIP3     146      TIP3     H1       HT       0.417000       1.00800           0
     29074 TIP3     146      TIP3     H2       HT       0.417000       1.00800           0
     29075 TIP3     147      TIP3     OH2      OT      -0.834000       15.9994           0
     29076 TIP3     147      TIP3     H1       HT       0.417000       1.00800           0
     29077 TIP3     147      TIP3     H2       HT       0.417000       1.00800           0
     29078 TIP3     148      TIP3     OH2      OT      -0.834000       15.9994           0
     29079 TIP3     148      TIP3     H1       HT       0.417000       1.00800           0
     29080 TIP3     148      TIP3     H2       HT       0.417000       1.00800           0
     29081 TIP3     149      TIP3     OH2      OT      -0.834000       15.9994           0
     29082 TIP3     149      TIP3     H1       HT       0.417000       1.00800           0
     29083 TIP3     149      TIP3     H2       HT       0.417000       1.00800           0
     29084 TIP3     150      TIP3     OH2      OT      -0.834000       15.9994           0
     29085 TIP3     150      TIP3     H1       HT       0.417000       1.00800           0
     29086 TIP3     150      TIP3     H2       HT       0.417000       1.00800           0
     29087 TIP3     151      TIP3     OH2      OT      -0.834000       15.9994           0
     29088 TIP3     151      TIP3     H1       HT       0.417000       1.00800           0
     29089 TIP3     151      TIP3     H2       HT       0.417000       1.00800           0
     29090 TIP3     152      TIP3     OH2      OT      -0.834000       15.9994           0
     29091 TIP3     152      TIP3     H1       HT       0.417000       1.00800           0
     29092 TIP3     152      TIP3     H2       HT       0.417000       1.00800           0
     29093 TIP3     153      TIP3     OH2      OT      -0.834000       15.9994           0
     29094 TIP3     153      TIP3     H1       HT       0.417000       1.00800           0
     29095 TIP3     153      TIP3     H2       HT       0.417000       1.00800           0
     29096 TIP3     154      TIP3     OH2      OT      -0.834000       15.9994           0
     29097 TIP3     154      TIP3     H1       HT       0.417000       1.00800           0
     29098 TIP3     154      TIP3     H2       HT       0.417000       1.00800           0
     29099 TIP3     155      TIP3     OH2      OT      -0.834000       15.9994           0
     29100 TIP3     155      TIP3     H1       HT       0.417000       1.00800           0
     29101 TIP3     155      TIP3     H2       HT       0.417000       1.00800           0
     29102 TIP3     156      TIP3     OH2      OT      -0.834000       15.9994           0
     29103 TIP3     156      TIP3     H1       HT       0.417000       1.00800           0
     29104 TIP3     156      TIP3     H2       HT       0.417000       1.00800           0
     29105 TIP3     157      TIP3     OH2      OT      -0.834000       15.9994           0
     29106 TIP3     157      TIP3     H1       HT       0.417000       1.00800           0
     29107 TIP3     157      TIP3     H2       HT       0.417000       1.00800           0
     29108 TIP3     158      TIP3     OH2      OT      -0.834000       15.9994           0
     29109 TIP3     158      TIP3     H1       HT       0.417000       1.00800           0
     29110 TIP3     158      TIP3     H2       HT       0.417000       1.00800           0
     29111 TIP3     159      TIP3     OH2      OT      -0.834000       15.9994           0
     29112 TIP3     159      TIP3     H1       HT       0.417000       1.00800           0
     29113 TIP3     159      TIP3     H2       HT       0.417000       1.00800           0
     29114 TIP3     160      TIP3     OH2      OT      -0.834000       15.9994           0
     29115 TIP3     160      TIP3     H1       HT       0.417000       1.00800           0
     29116 TIP3     160      TIP3     H2       HT       0.417000       1.00800           0
     29117 TIP3     161      TIP3     OH2      OT      -0.834000       15.9994           0
     29118 TIP3     161      TIP3     H1       HT       0.417000       1.00800           0
     29119 TIP3     161      TIP3     H2       HT       0.417000       1.00800           0
     29120 TIP3     162      TIP3     OH2      OT      -0.834000       15.9994           0
     29121 TIP3     162      TIP3     H1       HT       0.417000       1.00800           0
     29122 TIP3     162      TIP3     H2       HT       0.417000       1.00800           0
     29123 TIP3     163      TIP3     OH2      OT      -0.834000       15.9994           0
     29124 TIP3     163      TIP3     H1       HT       0.417000       1.00800           0
     29125 TIP3     163      TIP3     H2       HT       0.417000       1.00800           0
     29126 TIP3     164      TIP3     OH2      OT      -0.834000       15.9994           0
     29127 TIP3     164      TIP3     H1       HT       0.417000       1.00800           0
     29128 TIP3     164      TIP3     H2       HT       0.417000       1.00800           0
     29129 TIP3     165      TIP3     OH2      OT      -0.834000       15.9994           0
     29130 TIP3     165      TIP3     H1       HT       0.417000       1.00800           0
     29131 TIP3     165      TIP3     H2       HT       0.417000       1.00800           0
     29132 TIP3     166      TIP3     OH2      OT      -0.834000       15.9994           0
     29133 TIP3     166      TIP3     H1       HT       0.417000       1.00800           0
     29134 TIP3     166      TIP3     H2       HT       0.417000       1.00800           0
     29135 TIP3     167      TIP3     OH2      OT      -0.834000       15.9994           0
     29136 TIP3     167      TIP3     H1       HT       0.417000       1.00800           0
     29137 TIP3     167      TIP3     H2       HT       0.417000       1.00800           0
     29138 TIP3     168      TIP3     OH2      OT      -0.834000       15.9994           0
     29139 TIP3     168      TIP3     H1       HT       0.417000       1.00800           0
     29140 TIP3     168      TIP3     H2       HT       0.417000       1.00800           0
     29141 TIP3     169      TIP3     OH2      OT      -0.834000       15.9994           0
     29142 TIP3     169      TIP3     H1       HT       0.417000       1.00800           0
     29143 TIP3     169      TIP3     H2       HT       0.417000       1.00800           0
     29144 TIP3     170      TIP3     OH2      OT      -0.834000       15.9994           0
     29145 TIP3     170      TIP3     H1       HT       0.417000       1.00800           0
     29146 TIP3     170      TIP3     H2       HT       0.417000       1.00800           0
     29147 TIP3     171      TIP3     OH2      OT      -0.834000       15.9994           0
     29148 TIP3     171      TIP3     H1       HT       0.417000       1.00800           0
     29149 TIP3     171      TIP3     H2       HT       0.417000       1.00800           0
     29150 TIP3     172      TIP3     OH2      OT      -0.834000       15.9994           0
     29151 TIP3     172      TIP3     H1       HT       0.417000       1.00800           0
     29152 TIP3     172      TIP3     H2       HT       0.417000       1.00800           0
     29153 TIP3     173      TIP3     OH2      OT      -0.834000       15.9994           0
     29154 TIP3     173      TIP3     H1       HT       0.417000       1.00800           0
     29155 TIP3     173      TIP3     H2       HT       0.417000       1.00800           0
     29156 TIP3     174      TIP3     OH2      OT      -0.834000       15.9994           0
     29157 TIP3     174      TIP3     H1       HT       0.417000       1.00800           0
     29158 TIP3     174      TIP3     H2       HT       0.417000       1.00800           0
     29159 TIP3     175      TIP3     OH2      OT      -0.834000       15.9994           0
     29160 TIP3     175      TIP3     H1       HT       0.417000       1.00800           0
     29161 TIP3     175      TIP3     H2       HT       0.417000       1.00800           0
     29162 TIP3     176      TIP3     OH2      OT      -0.834000       15.9994           0
     29163 TIP3     176      TIP3     H1       HT       0.417000       1.00800           0
     29164 TIP3     176      TIP3     H2       HT       0.417000       1.00800           0
     29165 TIP3     177      TIP3     OH2      OT      -0.834000       15.9994           0
     29166 TIP3     177      TIP3     H1       HT       0.417000       1.00800           0
     29167 TIP3     177      TIP3     H2       HT       0.417000       1.00800           0
     29168 TIP3     178      TIP3     OH2      OT      -0.834000       15.9994           0
     29169 TIP3     178      TIP3     H1       HT       0.417000       1.00800           0
     29170 TIP3     178      TIP3     H2       HT       0.417000       1.00800           0
     29171 TIP3     179      TIP3     OH2      OT      -0.834000       15.9994           0
     29172 TIP3     179      TIP3     H1       HT       0.417000       1.00800           0
     29173 TIP3     179      TIP3     H2       HT       0.417000       1.00800           0
     29174 TIP3     180      TIP3     OH2      OT      -0.834000       15.9994           0
     29175 TIP3     180      TIP3     H1       HT       0.417000       1.00800           0
     29176 TIP3     180      TIP3     H2       HT       0.417000       1.00800           0
     29177 TIP3     181      TIP3     OH2      OT      -0.834000       15.9994           0
     29178 TIP3     181      TIP3     H1       HT       0.417000       1.00800           0
     29179 TIP3     181      TIP3     H2       HT       0.417000       1.00800           0
     29180 TIP3     182      TIP3     OH2      OT      -0.834000       15.9994           0
     29181 TIP3     182      TIP3     H1       HT       0.417000       1.00800           0
     29182 TIP3     182      TIP3     H2       HT       0.417000       1.00800           0
     29183 TIP3     183      TIP3     OH2      OT      -0.834000       15.9994           0
     29184 TIP3     183      TIP3     H1       HT       0.417000       1.00800           0
     29185 TIP3     183      TIP3     H2       HT       0.417000       1.00800           0
     29186 TIP3     184      TIP3     OH2      OT      -0.834000       15.9994           0
     29187 TIP3     184      TIP3     H1       HT       0.417000       1.00800           0
     29188 TIP3     184      TIP3     H2       HT       0.417000       1.00800           0
     29189 TIP3     185      TIP3     OH2      OT      -0.834000       15.9994           0
     29190 TIP3     185      TIP3     H1       HT       0.417000       1.00800           0
     29191 TIP3     185      TIP3     H2       HT       0.417000       1.00800           0
     29192 TIP3     186      TIP3     OH2      OT      -0.834000       15.9994           0
     29193 TIP3     186      TIP3     H1       HT       0.417000       1.00800           0
     29194 TIP3     186      TIP3     H2       HT       0.417000       1.00800           0
     29195 TIP3     187      TIP3     OH2      OT      -0.834000       15.9994           0
     29196 TIP3     187      TIP3     H1       HT       0.417000       1.00800           0
     29197 TIP3     187      TIP3     H2       HT       0.417000       1.00800           0
     29198 TIP3     188      TIP3     OH2      OT      -0.834000       15.9994           0
     29199 TIP3     188      TIP3     H1       HT       0.417000       1.00800           0
     29200 TIP3     188      TIP3     H2       HT       0.417000       1.00800           0
     29201 TIP3     189      TIP3     OH2      OT      -0.834000       15.9994           0
     29202 TIP3     189      TIP3     H1       HT       0.417000       1.00800           0
     29203 TIP3     189      TIP3     H2       HT       0.417000       1.00800           0
     29204 TIP3     190      TIP3     OH2      OT      -0.834000       15.9994           0
     29205 TIP3     190      TIP3     H1       HT       0.417000       1.00800           0
     29206 TIP3     190      TIP3     H2       HT       0.417000       1.00800           0
     29207 TIP3     191      TIP3     OH2      OT      -0.834000       15.9994           0
     29208 TIP3     191      TIP3     H1       HT       0.417000       1.00800           0
     29209 TIP3     191      TIP3     H2       HT       0.417000       1.00800           0
     29210 TIP3     192      TIP3     OH2      OT      -0.834000       15.9994           0
     29211 TIP3     192      TIP3     H1       HT       0.417000       1.00800           0
     29212 TIP3     192      TIP3     H2       HT       0.417000       1.00800           0
     29213 TIP3     193      TIP3     OH2      OT      -0.834000       15.9994           0
     29214 TIP3     193      TIP3     H1       HT       0.417000       1.00800           0
     29215 TIP3     193      TIP3     H2       HT       0.417000       1.00800           0
     29216 TIP3     194      TIP3     OH2      OT      -0.834000       15.9994           0
     29217 TIP3     194      TIP3     H1       HT       0.417000       1.00800           0
     29218 TIP3     194      TIP3     H2       HT       0.417000       1.00800           0
     29219 TIP3     195      TIP3     OH2      OT      -0.834000       15.9994           0
     29220 TIP3     195      TIP3     H1       HT       0.417000       1.00800           0
     29221 TIP3     195      TIP3     H2       HT       0.417000       1.00800           0
     29222 TIP3     196      TIP3     OH2      OT      -0.834000       15.9994           0
     29223 TIP3     196      TIP3     H1       HT       0.417000       1.00800           0
     29224 TIP3     196      TIP3     H2       HT       0.417000       1.00800           0
     29225 TIP3     197      TIP3     OH2      OT      -0.834000       15.9994           0
     29226 TIP3     197      TIP3     H1       HT       0.417000       1.00800           0
     29227 TIP3     197      TIP3     H2       HT       0.417000       1.00800           0
     29228 TIP3     198      TIP3     OH2      OT      -0.834000       15.9994           0
     29229 TIP3     198      TIP3     H1       HT       0.417000       1.00800           0
     29230 TIP3     198      TIP3     H2       HT       0.417000       1.00800           0
     29231 TIP3     199      TIP3     OH2      OT      -0.834000       15.9994           0
     29232 TIP3     199      TIP3     H1       HT       0.417000       1.00800           0
     29233 TIP3     199      TIP3     H2       HT       0.417000       1.00800           0
     29234 TIP3     200      TIP3     OH2      OT      -0.834000       15.9994           0
     29235 TIP3     200      TIP3     H1       HT       0.417000       1.00800           0
     29236 TIP3     200      TIP3     H2       HT       0.417000       1.00800           0
     29237 TIP3     201      TIP3     OH2      OT      -0.834000       15.9994           0
     29238 TIP3     201      TIP3     H1       HT       0.417000       1.00800           0
     29239 TIP3     201      TIP3     H2       HT       0.417000       1.00800           0
     29240 TIP3     202      TIP3     OH2      OT      -0.834000       15.9994           0
     29241 TIP3     202      TIP3     H1       HT       0.417000       1.00800           0
     29242 TIP3     202      TIP3     H2       HT       0.417000       1.00800           0
     29243 TIP3     203      TIP3     OH2      OT      -0.834000       15.9994           0
     29244 TIP3     203      TIP3     H1       HT       0.417000       1.00800           0
     29245 TIP3     203      TIP3     H2       HT       0.417000       1.00800           0
     29246 TIP3     204      TIP3     OH2      OT      -0.834000       15.9994           0
     29247 TIP3     204      TIP3     H1       HT       0.417000       1.00800           0
     29248 TIP3     204      TIP3     H2       HT       0.417000       1.00800           0
     29249 TIP3     205      TIP3     OH2      OT      -0.834000       15.9994           0
     29250 TIP3     205      TIP3     H1       HT       0.417000       1.00800           0
     29251 TIP3     205      TIP3     H2       HT       0.417000       1.00800           0
     29252 TIP3     206      TIP3     OH2      OT      -0.834000       15.9994           0
     29253 TIP3     206      TIP3     H1       HT       0.417000       1.00800           0
     29254 TIP3     206      TIP3     H2       HT       0.417000       1.00800           0
     29255 TIP3     207      TIP3     OH2      OT      -0.834000       15.9994           0
     29256 TIP3     207      TIP3     H1       HT       0.417000       1.00800           0
     29257 TIP3     207      TIP3     H2       HT       0.417000       1.00800           0
     29258 TIP3     208      TIP3     OH2      OT      -0.834000       15.9994           0
     29259 TIP3     208      TIP3     H1       HT       0.417000       1.00800           0
     29260 TIP3     208      TIP3     H2       HT       0.417000       1.00800           0
     29261 TIP3     209      TIP3     OH2      OT      -0.834000       15.9994           0
     29262 TIP3     209      TIP3     H1       HT       0.417000       1.00800           0
     29263 TIP3     209      TIP3     H2       HT       0.417000       1.00800           0
     29264 TIP3     210      TIP3     OH2      OT      -0.834000       15.9994           0
     29265 TIP3     210      TIP3     H1       HT       0.417000       1.00800           0
     29266 TIP3     210      TIP3     H2       HT       0.417000       1.00800           0
     29267 TIP3     211      TIP3     OH2      OT      -0.834000       15.9994           0
     29268 TIP3     211      TIP3     H1       HT       0.417000       1.00800           0
     29269 TIP3     211      TIP3     H2       HT       0.417000       1.00800           0
     29270 TIP3     212      TIP3     OH2      OT      -0.834000       15.9994           0
     29271 TIP3     212      TIP3     H1       HT       0.417000       1.00800           0
     29272 TIP3     212      TIP3     H2       HT       0.417000       1.00800           0
     29273 TIP3     213      TIP3     OH2      OT      -0.834000       15.9994           0
     29274 TIP3     213      TIP3     H1       HT       0.417000       1.00800           0
     29275 TIP3     213      TIP3     H2       HT       0.417000       1.00800           0
     29276 TIP3     214      TIP3     OH2      OT      -0.834000       15.9994           0
     29277 TIP3     214      TIP3     H1       HT       0.417000       1.00800           0
     29278 TIP3     214      TIP3     H2       HT       0.417000       1.00800           0
     29279 TIP3     215      TIP3     OH2      OT      -0.834000       15.9994           0
     29280 TIP3     215      TIP3     H1       HT       0.417000       1.00800           0
     29281 TIP3     215      TIP3     H2       HT       0.417000       1.00800           0
     29282 TIP3     216      TIP3     OH2      OT      -0.834000       15.9994           0
     29283 TIP3     216      TIP3     H1       HT       0.417000       1.00800           0
     29284 TIP3     216      TIP3     H2       HT       0.417000       1.00800           0
     29285 TIP3     217      TIP3     OH2      OT      -0.834000       15.9994           0
     29286 TIP3     217      TIP3     H1       HT       0.417000       1.00800           0
     29287 TIP3     217      TIP3     H2       HT       0.417000       1.00800           0
     29288 TIP3     218      TIP3     OH2      OT      -0.834000       15.9994           0
     29289 TIP3     218      TIP3     H1       HT       0.417000       1.00800           0
     29290 TIP3     218      TIP3     H2       HT       0.417000       1.00800           0
     29291 TIP3     219      TIP3     OH2      OT      -0.834000       15.9994           0
     29292 TIP3     219      TIP3     H1       HT       0.417000       1.00800           0
     29293 TIP3     219      TIP3     H2       HT       0.417000       1.00800           0
     29294 TIP3     220      TIP3     OH2      OT      -0.834000       15.9994           0
     29295 TIP3     220      TIP3     H1       HT       0.417000       1.00800           0
     29296 TIP3     220      TIP3     H2       HT       0.417000       1.00800           0
     29297 TIP3     221      TIP3     OH2      OT      -0.834000       15.9994           0
     29298 TIP3     221      TIP3     H1       HT       0.417000       1.00800           0
     29299 TIP3     221      TIP3     H2       HT       0.417000       1.00800           0
     29300 TIP3     222      TIP3     OH2      OT      -0.834000       15.9994           0
     29301 TIP3     222      TIP3     H1       HT       0.417000       1.00800           0
     29302 TIP3     222      TIP3     H2       HT       0.417000       1.00800           0
     29303 TIP3     223      TIP3     OH2      OT      -0.834000       15.9994           0
     29304 TIP3     223      TIP3     H1       HT       0.417000       1.00800           0
     29305 TIP3     223      TIP3     H2       HT       0.417000       1.00800           0
     29306 TIP3     224      TIP3     OH2      OT      -0.834000       15.9994           0
     29307 TIP3     224      TIP3     H1       HT       0.417000       1.00800           0
     29308 TIP3     224      TIP3     H2       HT       0.417000       1.00800           0
     29309 TIP3     225      TIP3     OH2      OT      -0.834000       15.9994           0
     29310 TIP3     225      TIP3     H1       HT       0.417000       1.00800           0
     29311 TIP3     225      TIP3     H2       HT       0.417000       1.00800           0
     29312 TIP3     226      TIP3     OH2      OT      -0.834000       15.9994           0
     29313 TIP3     226      TIP3     H1       HT       0.417000       1.00800           0
     29314 TIP3     226      TIP3     H2       HT       0.417000       1.00800           0
     29315 TIP3     227      TIP3     OH2      OT      -0.834000       15.9994           0
     29316 TIP3     227      TIP3     H1       HT       0.417000       1.00800           0
     29317 TIP3     227      TIP3     H2       HT       0.417000       1.00800           0
     29318 TIP3     228      TIP3     OH2      OT      -0.834000       15.9994           0
     29319 TIP3     228      TIP3     H1       HT       0.417000       1.00800           0
     29320 TIP3     228      TIP3     H2       HT       0.417000       1.00800           0
     29321 TIP3     229      TIP3     OH2      OT      -0.834000       15.9994           0
     29322 TIP3     229      TIP3     H1       HT       0.417000       1.00800           0
     29323 TIP3     229      TIP3     H2       HT       0.417000       1.00800           0
     29324 TIP3     230      TIP3     OH2      OT      -0.834000       15.9994           0
     29325 TIP3     230      TIP3     H1       HT       0.417000       1.00800           0
     29326 TIP3     230      TIP3     H2       HT       0.417000       1.00800           0
     29327 TIP3     231      TIP3     OH2      OT      -0.834000       15.9994           0
     29328 TIP3     231      TIP3     H1       HT       0.417000       1.00800           0
     29329 TIP3     231      TIP3     H2       HT       0.417000       1.00800           0
     29330 TIP3     232      TIP3     OH2      OT      -0.834000       15.9994           0
     29331 TIP3     232      TIP3     H1       HT       0.417000       1.00800           0
     29332 TIP3     232      TIP3     H2       HT       0.417000       1.00800           0
     29333 TIP3     233      TIP3     OH2      OT      -0.834000       15.9994           0
     29334 TIP3     233      TIP3     H1       HT       0.417000       1.00800           0
     29335 TIP3     233      TIP3     H2       HT       0.417000       1.00800           0
     29336 TIP3     234      TIP3     OH2      OT      -0.834000       15.9994           0
     29337 TIP3     234      TIP3     H1       HT       0.417000       1.00800           0
     29338 TIP3     234      TIP3     H2       HT       0.417000       1.00800           0
     29339 TIP3     235      TIP3     OH2      OT      -0.834000       15.9994           0
     29340 TIP3     235      TIP3     H1       HT       0.417000       1.00800           0
     29341 TIP3     235      TIP3     H2       HT       0.417000       1.00800           0
     29342 TIP3     236      TIP3     OH2      OT      -0.834000       15.9994           0
     29343 TIP3     236      TIP3     H1       HT       0.417000       1.00800           0
     29344 TIP3     236      TIP3     H2       HT       0.417000       1.00800           0
     29345 TIP3     237      TIP3     OH2      OT      -0.834000       15.9994           0
     29346 TIP3     237      TIP3     H1       HT       0.417000       1.00800           0
     29347 TIP3     237      TIP3     H2       HT       0.417000       1.00800           0
     29348 TIP3     238      TIP3     OH2      OT      -0.834000       15.9994           0
     29349 TIP3     238      TIP3     H1       HT       0.417000       1.00800           0
     29350 TIP3     238      TIP3     H2       HT       0.417000       1.00800           0
     29351 TIP3     239      TIP3     OH2      OT      -0.834000       15.9994           0
     29352 TIP3     239      TIP3     H1       HT       0.417000       1.00800           0
     29353 TIP3     239      TIP3     H2       HT       0.417000       1.00800           0
     29354 TIP3     240      TIP3     OH2      OT      -0.834000       15.9994           0
     29355 TIP3     240      TIP3     H1       HT       0.417000       1.00800           0
     29356 TIP3     240      TIP3     H2       HT       0.417000       1.00800           0
     29357 TIP3     241      TIP3     OH2      OT      -0.834000       15.9994           0
     29358 TIP3     241      TIP3     H1       HT       0.417000       1.00800           0
     29359 TIP3     241      TIP3     H2       HT       0.417000       1.00800           0
     29360 TIP3     242      TIP3     OH2      OT      -0.834000       15.9994           0
     29361 TIP3     242      TIP3     H1       HT       0.417000       1.00800           0
     29362 TIP3     242      TIP3     H2       HT       0.417000       1.00800           0
     29363 TIP3     243      TIP3     OH2      OT      -0.834000       15.9994           0
     29364 TIP3     243      TIP3     H1       HT       0.417000       1.00800           0
     29365 TIP3     243      TIP3     H2       HT       0.417000       1.00800           0
     29366 TIP3     244      TIP3     OH2      OT      -0.834000       15.9994           0
     29367 TIP3     244      TIP3     H1       HT       0.417000       1.00800           0
     29368 TIP3     244      TIP3     H2       HT       0.417000       1.00800           0
     29369 TIP3     245      TIP3     OH2      OT      -0.834000       15.9994           0
     29370 TIP3     245      TIP3     H1       HT       0.417000       1.00800           0
     29371 TIP3     245      TIP3     H2       HT       0.417000       1.00800           0
     29372 TIP3     246      TIP3     OH2      OT      -0.834000       15.9994           0
     29373 TIP3     246      TIP3     H1       HT       0.417000       1.00800           0
     29374 TIP3     246      TIP3     H2       HT       0.417000       1.00800           0
     29375 TIP3     247      TIP3     OH2      OT      -0.834000       15.9994           0
     29376 TIP3     247      TIP3     H1       HT       0.417000       1.00800           0
     29377 TIP3     247      TIP3     H2       HT       0.417000       1.00800           0
     29378 TIP3     248      TIP3     OH2      OT      -0.834000       15.9994           0
     29379 TIP3     248      TIP3     H1       HT       0.417000       1.00800           0
     29380 TIP3     248      TIP3     H2       HT       0.417000       1.00800           0
     29381 TIP3     249      TIP3     OH2      OT      -0.834000       15.9994           0
     29382 TIP3     249      TIP3     H1       HT       0.417000       1.00800           0
     29383 TIP3     249      TIP3     H2       HT       0.417000       1.00800           0
     29384 TIP3     250      TIP3     OH2      OT      -0.834000       15.9994           0
     29385 TIP3     250      TIP3     H1       HT       0.417000       1.00800           0
     29386 TIP3     250      TIP3     H2       HT       0.417000       1.00800           0
     29387 TIP3     251      TIP3     OH2      OT      -0.834000       15.9994           0
     29388 TIP3     251      TIP3     H1       HT       0.417000       1.00800           0
     29389 TIP3     251      TIP3     H2       HT       0.417000       1.00800           0
     29390 TIP3     252      TIP3     OH2      OT      -0.834000       15.9994           0
     29391 TIP3     252      TIP3     H1       HT       0.417000       1.00800           0
     29392 TIP3     252      TIP3     H2       HT       0.417000       1.00800           0
     29393 TIP3     253      TIP3     OH2      OT      -0.834000       15.9994           0
     29394 TIP3     253      TIP3     H1       HT       0.417000       1.00800           0
     29395 TIP3     253      TIP3     H2       HT       0.417000       1.00800           0
     29396 TIP3     254      TIP3     OH2      OT      -0.834000       15.9994           0
     29397 TIP3     254      TIP3     H1       HT       0.417000       1.00800           0
     29398 TIP3     254      TIP3     H2       HT       0.417000       1.00800           0
     29399 TIP3     255      TIP3     OH2      OT      -0.834000       15.9994           0
     29400 TIP3     255      TIP3     H1       HT       0.417000       1.00800           0
     29401 TIP3     255      TIP3     H2       HT       0.417000       1.00800           0
     29402 TIP3     256      TIP3     OH2      OT      -0.834000       15.9994           0
     29403 TIP3     256      TIP3     H1       HT       0.417000       1.00800           0
     29404 TIP3     256      TIP3     H2       HT       0.417000       1.00800           0
     29405 TIP3     257      TIP3     OH2      OT      -0.834000       15.9994           0
     29406 TIP3     257      TIP3     H1       HT       0.417000       1.00800           0
     29407 TIP3     257      TIP3     H2       HT       0.417000       1.00800           0
     29408 TIP3     258      TIP3     OH2      OT      -0.834000       15.9994           0
     29409 TIP3     258      TIP3     H1       HT       0.417000       1.00800           0
     29410 TIP3     258      TIP3     H2       HT       0.417000       1.00800           0
     29411 TIP3     259      TIP3     OH2      OT      -0.834000       15.9994           0
     29412 TIP3     259      TIP3     H1       HT       0.417000       1.00800           0
     29413 TIP3     259      TIP3     H2       HT       0.417000       1.00800           0
     29414 TIP3     260      TIP3     OH2      OT      -0.834000       15.9994           0
     29415 TIP3     260      TIP3     H1       HT       0.417000       1.00800           0
     29416 TIP3     260      TIP3     H2       HT       0.417000       1.00800           0
     29417 TIP3     261      TIP3     OH2      OT      -0.834000       15.9994           0
     29418 TIP3     261      TIP3     H1       HT       0.417000       1.00800           0
     29419 TIP3     261      TIP3     H2       HT       0.417000       1.00800           0
     29420 TIP3     262      TIP3     OH2      OT      -0.834000       15.9994           0
     29421 TIP3     262      TIP3     H1       HT       0.417000       1.00800           0
     29422 TIP3     262      TIP3     H2       HT       0.417000       1.00800           0
     29423 TIP3     263      TIP3     OH2      OT      -0.834000       15.9994           0
     29424 TIP3     263      TIP3     H1       HT       0.417000       1.00800           0
     29425 TIP3     263      TIP3     H2       HT       0.417000       1.00800           0
     29426 TIP3     264      TIP3     OH2      OT      -0.834000       15.9994           0
     29427 TIP3     264      TIP3     H1       HT       0.417000       1.00800           0
     29428 TIP3     264      TIP3     H2       HT       0.417000       1.00800           0
     29429 TIP3     265      TIP3     OH2      OT      -0.834000       15.9994           0
     29430 TIP3     265      TIP3     H1       HT       0.417000       1.00800           0
     29431 TIP3     265      TIP3     H2       HT       0.417000       1.00800           0
     29432 TIP3     266      TIP3     OH2      OT      -0.834000       15.9994           0
     29433 TIP3     266      TIP3     H1       HT       0.417000       1.00800           0
     29434 TIP3     266      TIP3     H2       HT       0.417000       1.00800           0
     29435 TIP3     267      TIP3     OH2      OT      -0.834000       15.9994           0
     29436 TIP3     267      TIP3     H1       HT       0.417000       1.00800           0
     29437 TIP3     267      TIP3     H2       HT       0.417000       1.00800           0
     29438 TIP3     268      TIP3     OH2      OT      -0.834000       15.9994           0
     29439 TIP3     268      TIP3     H1       HT       0.417000       1.00800           0
     29440 TIP3     268      TIP3     H2       HT       0.417000       1.00800           0
     29441 TIP3     269      TIP3     OH2      OT      -0.834000       15.9994           0
     29442 TIP3     269      TIP3     H1       HT       0.417000       1.00800           0
     29443 TIP3     269      TIP3     H2       HT       0.417000       1.00800           0
     29444 TIP3     270      TIP3     OH2      OT      -0.834000       15.9994           0
     29445 TIP3     270      TIP3     H1       HT       0.417000       1.00800           0
     29446 TIP3     270      TIP3     H2       HT       0.417000       1.00800           0
     29447 TIP3     271      TIP3     OH2      OT      -0.834000       15.9994           0
     29448 TIP3     271      TIP3     H1       HT       0.417000       1.00800           0
     29449 TIP3     271      TIP3     H2       HT       0.417000       1.00800           0
     29450 TIP3     272      TIP3     OH2      OT      -0.834000       15.9994           0
     29451 TIP3     272      TIP3     H1       HT       0.417000       1.00800           0
     29452 TIP3     272      TIP3     H2       HT       0.417000       1.00800           0
     29453 TIP3     273      TIP3     OH2      OT      -0.834000       15.9994           0
     29454 TIP3     273      TIP3     H1       HT       0.417000       1.00800           0
     29455 TIP3     273      TIP3     H2       HT       0.417000       1.00800           0
     29456 TIP3     274      TIP3     OH2      OT      -0.834000       15.9994           0
     29457 TIP3     274      TIP3     H1       HT       0.417000       1.00800           0
     29458 TIP3     274      TIP3     H2       HT       0.417000       1.00800           0
     29459 TIP3     275      TIP3     OH2      OT      -0.834000       15.9994           0
     29460 TIP3     275      TIP3     H1       HT       0.417000       1.00800           0
     29461 TIP3     275      TIP3     H2       HT       0.417000       1.00800           0
     29462 TIP3     276      TIP3     OH2      OT      -0.834000       15.9994           0
     29463 TIP3     276      TIP3     H1       HT       0.417000       1.00800           0
     29464 TIP3     276      TIP3     H2       HT       0.417000       1.00800           0
     29465 TIP3     277      TIP3     OH2      OT      -0.834000       15.9994           0
     29466 TIP3     277      TIP3     H1       HT       0.417000       1.00800           0
     29467 TIP3     277      TIP3     H2       HT       0.417000       1.00800           0
     29468 TIP3     278      TIP3     OH2      OT      -0.834000       15.9994           0
     29469 TIP3     278      TIP3     H1       HT       0.417000       1.00800           0
     29470 TIP3     278      TIP3     H2       HT       0.417000       1.00800           0
     29471 TIP3     279      TIP3     OH2      OT      -0.834000       15.9994           0
     29472 TIP3     279      TIP3     H1       HT       0.417000       1.00800           0
     29473 TIP3     279      TIP3     H2       HT       0.417000       1.00800           0
     29474 TIP3     280      TIP3     OH2      OT      -0.834000       15.9994           0
     29475 TIP3     280      TIP3     H1       HT       0.417000       1.00800           0
     29476 TIP3     280      TIP3     H2       HT       0.417000       1.00800           0
     29477 TIP3     281      TIP3     OH2      OT      -0.834000       15.9994           0
     29478 TIP3     281      TIP3     H1       HT       0.417000       1.00800           0
     29479 TIP3     281      TIP3     H2       HT       0.417000       1.00800           0
     29480 TIP3     282      TIP3     OH2      OT      -0.834000       15.9994           0
     29481 TIP3     282      TIP3     H1       HT       0.417000       1.00800           0
     29482 TIP3     282      TIP3     H2       HT       0.417000       1.00800           0
     29483 TIP3     283      TIP3     OH2      OT      -0.834000       15.9994           0
     29484 TIP3     283      TIP3     H1       HT       0.417000       1.00800           0
     29485 TIP3     283      TIP3     H2       HT       0.417000       1.00800           0
     29486 TIP3     284      TIP3     OH2      OT      -0.834000       15.9994           0
     29487 TIP3     284      TIP3     H1       HT       0.417000       1.00800           0
     29488 TIP3     284      TIP3     H2       HT       0.417000       1.00800           0
     29489 TIP3     285      TIP3     OH2      OT      -0.834000       15.9994           0
     29490 TIP3     285      TIP3     H1       HT       0.417000       1.00800           0
     29491 TIP3     285      TIP3     H2       HT       0.417000       1.00800           0
     29492 TIP3     286      TIP3     OH2      OT      -0.834000       15.9994           0
     29493 TIP3     286      TIP3     H1       HT       0.417000       1.00800           0
     29494 TIP3     286      TIP3     H2       HT       0.417000       1.00800           0
     29495 TIP3     287      TIP3     OH2      OT      -0.834000       15.9994           0
     29496 TIP3     287      TIP3     H1       HT       0.417000       1.00800           0
     29497 TIP3     287      TIP3     H2       HT       0.417000       1.00800           0
     29498 TIP3     288      TIP3     OH2      OT      -0.834000       15.9994           0
     29499 TIP3     288      TIP3     H1       HT       0.417000       1.00800           0
     29500 TIP3     288      TIP3     H2       HT       0.417000       1.00800           0
     29501 TIP3     289      TIP3     OH2      OT      -0.834000       15.9994           0
     29502 TIP3     289      TIP3     H1       HT       0.417000       1.00800           0
     29503 TIP3     289      TIP3     H2       HT       0.417000       1.00800           0
     29504 TIP3     290      TIP3     OH2      OT      -0.834000       15.9994           0
     29505 TIP3     290      TIP3     H1       HT       0.417000       1.00800           0
     29506 TIP3     290      TIP3     H2       HT       0.417000       1.00800           0
     29507 TIP3     291      TIP3     OH2      OT      -0.834000       15.9994           0
     29508 TIP3     291      TIP3     H1       HT       0.417000       1.00800           0
     29509 TIP3     291      TIP3     H2       HT       0.417000       1.00800           0
     29510 TIP3     292      TIP3     OH2      OT      -0.834000       15.9994           0
     29511 TIP3     292      TIP3     H1       HT       0.417000       1.00800           0
     29512 TIP3     292      TIP3     H2       HT       0.417000       1.00800           0
     29513 TIP3     293      TIP3     OH2      OT      -0.834000       15.9994           0
     29514 TIP3     293      TIP3     H1       HT       0.417000       1.00800           0
     29515 TIP3     293      TIP3     H2       HT       0.417000       1.00800           0
     29516 TIP3     294      TIP3     OH2      OT      -0.834000       15.9994           0
     29517 TIP3     294      TIP3     H1       HT       0.417000       1.00800           0
     29518 TIP3     294      TIP3     H2       HT       0.417000       1.00800           0
     29519 TIP3     295      TIP3     OH2      OT      -0.834000       15.9994           0
     29520 TIP3     295      TIP3     H1       HT       0.417000       1.00800           0
     29521 TIP3     295      TIP3     H2       HT       0.417000       1.00800           0
     29522 TIP3     296      TIP3     OH2      OT      -0.834000       15.9994           0
     29523 TIP3     296      TIP3     H1       HT       0.417000       1.00800           0
     29524 TIP3     296      TIP3     H2       HT       0.417000       1.00800           0
     29525 TIP3     297      TIP3     OH2      OT      -0.834000       15.9994           0
     29526 TIP3     297      TIP3     H1       HT       0.417000       1.00800           0
     29527 TIP3     297      TIP3     H2       HT       0.417000       1.00800           0
     29528 TIP3     298      TIP3     OH2      OT      -0.834000       15.9994           0
     29529 TIP3     298      TIP3     H1       HT       0.417000       1.00800           0
     29530 TIP3     298      TIP3     H2       HT       0.417000       1.00800           0
     29531 TIP3     299      TIP3     OH2      OT      -0.834000       15.9994           0
     29532 TIP3     299      TIP3     H1       HT       0.417000       1.00800           0
     29533 TIP3     299      TIP3     H2       HT       0.417000       1.00800           0
     29534 TIP3     300      TIP3     OH2      OT      -0.834000       15.9994           0
     29535 TIP3     300      TIP3     H1       HT       0.417000       1.00800           0
     29536 TIP3     300      TIP3     H2       HT       0.417000       1.00800           0
     29537 TIP3     301      TIP3     OH2      OT      -0.834000       15.9994           0
     29538 TIP3     301      TIP3     H1       HT       0.417000       1.00800           0
     29539 TIP3     301      TIP3     H2       HT       0.417000       1.00800           0
     29540 TIP3     302      TIP3     OH2      OT      -0.834000       15.9994           0
     29541 TIP3     302      TIP3     H1       HT       0.417000       1.00800           0
     29542 TIP3     302      TIP3     H2       HT       0.417000       1.00800           0
     29543 TIP3     303      TIP3     OH2      OT      -0.834000       15.9994           0
     29544 TIP3     303      TIP3     H1       HT       0.417000       1.00800           0
     29545 TIP3     303      TIP3     H2       HT       0.417000       1.00800           0
     29546 TIP3     304      TIP3     OH2      OT      -0.834000       15.9994           0
     29547 TIP3     304      TIP3     H1       HT       0.417000       1.00800           0
     29548 TIP3     304      TIP3     H2       HT       0.417000       1.00800           0
     29549 TIP3     305      TIP3     OH2      OT      -0.834000       15.9994           0
     29550 TIP3     305      TIP3     H1       HT       0.417000       1.00800           0
     29551 TIP3     305      TIP3     H2       HT       0.417000       1.00800           0
     29552 TIP3     306      TIP3     OH2      OT      -0.834000       15.9994           0
     29553 TIP3     306      TIP3     H1       HT       0.417000       1.00800           0
     29554 TIP3     306      TIP3     H2       HT       0.417000       1.00800           0
     29555 TIP3     307      TIP3     OH2      OT      -0.834000       15.9994           0
     29556 TIP3     307      TIP3     H1       HT       0.417000       1.00800           0
     29557 TIP3     307      TIP3     H2       HT       0.417000       1.00800           0
     29558 TIP3     308      TIP3     OH2      OT      -0.834000       15.9994           0
     29559 TIP3     308      TIP3     H1       HT       0.417000       1.00800           0
     29560 TIP3     308      TIP3     H2       HT       0.417000       1.00800           0
     29561 TIP3     309      TIP3     OH2      OT      -0.834000       15.9994           0
     29562 TIP3     309      TIP3     H1       HT       0.417000       1.00800           0
     29563 TIP3     309      TIP3     H2       HT       0.417000       1.00800           0
     29564 TIP3     310      TIP3     OH2      OT      -0.834000       15.9994           0
     29565 TIP3     310      TIP3     H1       HT       0.417000       1.00800           0
     29566 TIP3     310      TIP3     H2       HT       0.417000       1.00800           0
     29567 TIP3     311      TIP3     OH2      OT      -0.834000       15.9994           0
     29568 TIP3     311      TIP3     H1       HT       0.417000       1.00800           0
     29569 TIP3     311      TIP3     H2       HT       0.417000       1.00800           0
     29570 TIP3     312      TIP3     OH2      OT      -0.834000       15.9994           0
     29571 TIP3     312      TIP3     H1       HT       0.417000       1.00800           0
     29572 TIP3     312      TIP3     H2       HT       0.417000       1.00800           0
     29573 TIP3     313      TIP3     OH2      OT      -0.834000       15.9994           0
     29574 TIP3     313      TIP3     H1       HT       0.417000       1.00800           0
     29575 TIP3     313      TIP3     H2       HT       0.417000       1.00800           0
     29576 TIP3     314      TIP3     OH2      OT      -0.834000       15.9994           0
     29577 TIP3     314      TIP3     H1       HT       0.417000       1.00800           0
     29578 TIP3     314      TIP3     H2       HT       0.417000       1.00800           0
     29579 TIP3     315      TIP3     OH2      OT      -0.834000       15.9994           0
     29580 TIP3     315      TIP3     H1       HT       0.417000       1.00800           0
     29581 TIP3     315      TIP3     H2       HT       0.417000       1.00800           0
     29582 TIP3     316      TIP3     OH2      OT      -0.834000       15.9994           0
     29583 TIP3     316      TIP3     H1       HT       0.417000       1.00800           0
     29584 TIP3     316      TIP3     H2       HT       0.417000       1.00800           0
     29585 TIP3     317      TIP3     OH2      OT      -0.834000       15.9994           0
     29586 TIP3     317      TIP3     H1       HT       0.417000       1.00800           0
     29587 TIP3     317      TIP3     H2       HT       0.417000       1.00800           0
     29588 TIP3     318      TIP3     OH2      OT      -0.834000       15.9994           0
     29589 TIP3     318      TIP3     H1       HT       0.417000       1.00800           0
     29590 TIP3     318      TIP3     H2       HT       0.417000       1.00800           0
     29591 TIP3     319      TIP3     OH2      OT      -0.834000       15.9994           0
     29592 TIP3     319      TIP3     H1       HT       0.417000       1.00800           0
     29593 TIP3     319      TIP3     H2       HT       0.417000       1.00800           0
     29594 TIP3     320      TIP3     OH2      OT      -0.834000       15.9994           0
     29595 TIP3     320      TIP3     H1       HT       0.417000       1.00800           0
     29596 TIP3     320      TIP3     H2       HT       0.417000       1.00800           0
     29597 TIP3     321      TIP3     OH2      OT      -0.834000       15.9994           0
     29598 TIP3     321      TIP3     H1       HT       0.417000       1.00800           0
     29599 TIP3     321      TIP3     H2       HT       0.417000       1.00800           0
     29600 TIP3     322      TIP3     OH2      OT      -0.834000       15.9994           0
     29601 TIP3     322      TIP3     H1       HT       0.417000       1.00800           0
     29602 TIP3     322      TIP3     H2       HT       0.417000       1.00800           0
     29603 TIP3     323      TIP3     OH2      OT      -0.834000       15.9994           0
     29604 TIP3     323      TIP3     H1       HT       0.417000       1.00800           0
     29605 TIP3     323      TIP3     H2       HT       0.417000       1.00800           0
     29606 TIP3     324      TIP3     OH2      OT      -0.834000       15.9994           0
     29607 TIP3     324      TIP3     H1       HT       0.417000       1.00800           0
     29608 TIP3     324      TIP3     H2       HT       0.417000       1.00800           0
     29609 TIP3     325      TIP3     OH2      OT      -0.834000       15.9994           0
     29610 TIP3     325      TIP3     H1       HT       0.417000       1.00800           0
     29611 TIP3     325      TIP3     H2       HT       0.417000       1.00800           0
     29612 TIP3     326      TIP3     OH2      OT      -0.834000       15.9994           0
     29613 TIP3     326      TIP3     H1       HT       0.417000       1.00800           0
     29614 TIP3     326      TIP3     H2       HT       0.417000       1.00800           0
     29615 TIP3     327      TIP3     OH2      OT      -0.834000       15.9994           0
     29616 TIP3     327      TIP3     H1       HT       0.417000       1.00800           0
     29617 TIP3     327      TIP3     H2       HT       0.417000       1.00800           0
     29618 TIP3     328      TIP3     OH2      OT      -0.834000       15.9994           0
     29619 TIP3     328      TIP3     H1       HT       0.417000       1.00800           0
     29620 TIP3     328      TIP3     H2       HT       0.417000       1.00800           0
     29621 TIP3     329      TIP3     OH2      OT      -0.834000       15.9994           0
     29622 TIP3     329      TIP3     H1       HT       0.417000       1.00800           0
     29623 TIP3     329      TIP3     H2       HT       0.417000       1.00800           0
     29624 TIP3     330      TIP3     OH2      OT      -0.834000       15.9994           0
     29625 TIP3     330      TIP3     H1       HT       0.417000       1.00800           0
     29626 TIP3     330      TIP3     H2       HT       0.417000       1.00800           0
     29627 TIP3     331      TIP3     OH2      OT      -0.834000       15.9994           0
     29628 TIP3     331      TIP3     H1       HT       0.417000       1.00800           0
     29629 TIP3     331      TIP3     H2       HT       0.417000       1.00800           0
     29630 TIP3     332      TIP3     OH2      OT      -0.834000       15.9994           0
     29631 TIP3     332      TIP3     H1       HT       0.417000       1.00800           0
     29632 TIP3     332      TIP3     H2       HT       0.417000       1.00800           0
     29633 TIP3     333      TIP3     OH2      OT      -0.834000       15.9994           0
     29634 TIP3     333      TIP3     H1       HT       0.417000       1.00800           0
     29635 TIP3     333      TIP3     H2       HT       0.417000       1.00800           0
     29636 TIP3     334      TIP3     OH2      OT      -0.834000       15.9994           0
     29637 TIP3     334      TIP3     H1       HT       0.417000       1.00800           0
     29638 TIP3     334      TIP3     H2       HT       0.417000       1.00800           0
     29639 TIP3     335      TIP3     OH2      OT      -0.834000       15.9994           0
     29640 TIP3     335      TIP3     H1       HT       0.417000       1.00800           0
     29641 TIP3     335      TIP3     H2       HT       0.417000       1.00800           0
     29642 TIP3     336      TIP3     OH2      OT      -0.834000       15.9994           0
     29643 TIP3     336      TIP3     H1       HT       0.417000       1.00800           0
     29644 TIP3     336      TIP3     H2       HT       0.417000       1.00800           0
     29645 TIP3     337      TIP3     OH2      OT      -0.834000       15.9994           0
     29646 TIP3     337      TIP3     H1       HT       0.417000       1.00800           0
     29647 TIP3     337      TIP3     H2       HT       0.417000       1.00800           0
     29648 TIP3     338      TIP3     OH2      OT      -0.834000       15.9994           0
     29649 TIP3     338      TIP3     H1       HT       0.417000       1.00800           0
     29650 TIP3     338      TIP3     H2       HT       0.417000       1.00800           0
     29651 TIP3     339      TIP3     OH2      OT      -0.834000       15.9994           0
     29652 TIP3     339      TIP3     H1       HT       0.417000       1.00800           0
     29653 TIP3     339      TIP3     H2       HT       0.417000       1.00800           0
     29654 TIP3     340      TIP3     OH2      OT      -0.834000       15.9994           0
     29655 TIP3     340      TIP3     H1       HT       0.417000       1.00800           0
     29656 TIP3     340      TIP3     H2       HT       0.417000       1.00800           0
     29657 TIP3     341      TIP3     OH2      OT      -0.834000       15.9994           0
     29658 TIP3     341      TIP3     H1       HT       0.417000       1.00800           0
     29659 TIP3     341      TIP3     H2       HT       0.417000       1.00800           0
     29660 TIP3     342      TIP3     OH2      OT      -0.834000       15.9994           0
     29661 TIP3     342      TIP3     H1       HT       0.417000       1.00800           0
     29662 TIP3     342      TIP3     H2       HT       0.417000       1.00800           0
     29663 TIP3     343      TIP3     OH2      OT      -0.834000       15.9994           0
     29664 TIP3     343      TIP3     H1       HT       0.417000       1.00800           0
     29665 TIP3     343      TIP3     H2       HT       0.417000       1.00800           0
     29666 TIP3     344      TIP3     OH2      OT      -0.834000       15.9994           0
     29667 TIP3     344      TIP3     H1       HT       0.417000       1.00800           0
     29668 TIP3     344      TIP3     H2       HT       0.417000       1.00800           0
     29669 TIP3     345      TIP3     OH2      OT      -0.834000       15.9994           0
     29670 TIP3     345      TIP3     H1       HT       0.417000       1.00800           0
     29671 TIP3     345      TIP3     H2       HT       0.417000       1.00800           0
     29672 TIP3     346      TIP3     OH2      OT      -0.834000       15.9994           0
     29673 TIP3     346      TIP3     H1       HT       0.417000       1.00800           0
     29674 TIP3     346      TIP3     H2       HT       0.417000       1.00800           0
     29675 TIP3     347      TIP3     OH2      OT      -0.834000       15.9994           0
     29676 TIP3     347      TIP3     H1       HT       0.417000       1.00800           0
     29677 TIP3     347      TIP3     H2       HT       0.417000       1.00800           0
     29678 TIP3     348      TIP3     OH2      OT      -0.834000       15.9994           0
     29679 TIP3     348      TIP3     H1       HT       0.417000       1.00800           0
     29680 TIP3     348      TIP3     H2       HT       0.417000       1.00800           0
     29681 TIP3     349      TIP3     OH2      OT      -0.834000       15.9994           0
     29682 TIP3     349      TIP3     H1       HT       0.417000       1.00800           0
     29683 TIP3     349      TIP3     H2       HT       0.417000       1.00800           0
     29684 TIP3     350      TIP3     OH2      OT      -0.834000       15.9994           0
     29685 TIP3     350      TIP3     H1       HT       0.417000       1.00800           0
     29686 TIP3     350      TIP3     H2       HT       0.417000       1.00800           0
     29687 TIP3     351      TIP3     OH2      OT      -0.834000       15.9994           0
     29688 TIP3     351      TIP3     H1       HT       0.417000       1.00800           0
     29689 TIP3     351      TIP3     H2       HT       0.417000       1.00800           0
     29690 TIP3     352      TIP3     OH2      OT      -0.834000       15.9994           0
     29691 TIP3     352      TIP3     H1       HT       0.417000       1.00800           0
     29692 TIP3     352      TIP3     H2       HT       0.417000       1.00800           0
     29693 TIP3     353      TIP3     OH2      OT      -0.834000       15.9994           0
     29694 TIP3     353      TIP3     H1       HT       0.417000       1.00800           0
     29695 TIP3     353      TIP3     H2       HT       0.417000       1.00800           0
     29696 TIP3     354      TIP3     OH2      OT      -0.834000       15.9994           0
     29697 TIP3     354      TIP3     H1       HT       0.417000       1.00800           0
     29698 TIP3     354      TIP3     H2       HT       0.417000       1.00800           0
     29699 TIP3     355      TIP3     OH2      OT      -0.834000       15.9994           0
     29700 TIP3     355      TIP3     H1       HT       0.417000       1.00800           0
     29701 TIP3     355      TIP3     H2       HT       0.417000       1.00800           0
     29702 TIP3     356      TIP3     OH2      OT      -0.834000       15.9994           0
     29703 TIP3     356      TIP3     H1       HT       0.417000       1.00800           0
     29704 TIP3     356      TIP3     H2       HT       0.417000       1.00800           0
     29705 TIP3     357      TIP3     OH2      OT      -0.834000       15.9994           0
     29706 TIP3     357      TIP3     H1       HT       0.417000       1.00800           0
     29707 TIP3     357      TIP3     H2       HT       0.417000       1.00800           0
     29708 TIP3     358      TIP3     OH2      OT      -0.834000       15.9994           0
     29709 TIP3     358      TIP3     H1       HT       0.417000       1.00800           0
     29710 TIP3     358      TIP3     H2       HT       0.417000       1.00800           0
     29711 TIP3     359      TIP3     OH2      OT      -0.834000       15.9994           0
     29712 TIP3     359      TIP3     H1       HT       0.417000       1.00800           0
     29713 TIP3     359      TIP3     H2       HT       0.417000       1.00800           0
     29714 TIP3     360      TIP3     OH2      OT      -0.834000       15.9994           0
     29715 TIP3     360      TIP3     H1       HT       0.417000       1.00800           0
     29716 TIP3     360      TIP3     H2       HT       0.417000       1.00800           0
     29717 TIP3     361      TIP3     OH2      OT      -0.834000       15.9994           0
     29718 TIP3     361      TIP3     H1       HT       0.417000       1.00800           0
     29719 TIP3     361      TIP3     H2       HT       0.417000       1.00800           0
     29720 TIP3     362      TIP3     OH2      OT      -0.834000       15.9994           0
     29721 TIP3     362      TIP3     H1       HT       0.417000       1.00800           0
     29722 TIP3     362      TIP3     H2       HT       0.417000       1.00800           0
     29723 TIP3     363      TIP3     OH2      OT      -0.834000       15.9994           0
     29724 TIP3     363      TIP3     H1       HT       0.417000       1.00800           0
     29725 TIP3     363      TIP3     H2       HT       0.417000       1.00800           0
     29726 TIP3     364      TIP3     OH2      OT      -0.834000       15.9994           0
     29727 TIP3     364      TIP3     H1       HT       0.417000       1.00800           0
     29728 TIP3     364      TIP3     H2       HT       0.417000       1.00800           0
     29729 TIP3     365      TIP3     OH2      OT      -0.834000       15.9994           0
     29730 TIP3     365      TIP3     H1       HT       0.417000       1.00800           0
     29731 TIP3     365      TIP3     H2       HT       0.417000       1.00800           0
     29732 TIP3     366      TIP3     OH2      OT      -0.834000       15.9994           0
     29733 TIP3     366      TIP3     H1       HT       0.417000       1.00800           0
     29734 TIP3     366      TIP3     H2       HT       0.417000       1.00800           0
     29735 TIP3     367      TIP3     OH2      OT      -0.834000       15.9994           0
     29736 TIP3     367      TIP3     H1       HT       0.417000       1.00800           0
     29737 TIP3     367      TIP3     H2       HT       0.417000       1.00800           0
     29738 TIP3     368      TIP3     OH2      OT      -0.834000       15.9994           0
     29739 TIP3     368      TIP3     H1       HT       0.417000       1.00800           0
     29740 TIP3     368      TIP3     H2       HT       0.417000       1.00800           0
     29741 TIP3     369      TIP3     OH2      OT      -0.834000       15.9994           0
     29742 TIP3     369      TIP3     H1       HT       0.417000       1.00800           0
     29743 TIP3     369      TIP3     H2       HT       0.417000       1.00800           0
     29744 TIP3     370      TIP3     OH2      OT      -0.834000       15.9994           0
     29745 TIP3     370      TIP3     H1       HT       0.417000       1.00800           0
     29746 TIP3     370      TIP3     H2       HT       0.417000       1.00800           0
     29747 TIP3     371      TIP3     OH2      OT      -0.834000       15.9994           0
     29748 TIP3     371      TIP3     H1       HT       0.417000       1.00800           0
     29749 TIP3     371      TIP3     H2       HT       0.417000       1.00800           0
     29750 TIP3     372      TIP3     OH2      OT      -0.834000       15.9994           0
     29751 TIP3     372      TIP3     H1       HT       0.417000       1.00800           0
     29752 TIP3     372      TIP3     H2       HT       0.417000       1.00800           0
     29753 TIP3     373      TIP3     OH2      OT      -0.834000       15.9994           0
     29754 TIP3     373      TIP3     H1       HT       0.417000       1.00800           0
     29755 TIP3     373      TIP3     H2       HT       0.417000       1.00800           0
     29756 TIP3     374      TIP3     OH2      OT      -0.834000       15.9994           0
     29757 TIP3     374      TIP3     H1       HT       0.417000       1.00800           0
     29758 TIP3     374      TIP3     H2       HT       0.417000       1.00800           0
     29759 TIP3     375      TIP3     OH2      OT      -0.834000       15.9994           0
     29760 TIP3     375      TIP3     H1       HT       0.417000       1.00800           0
     29761 TIP3     375      TIP3     H2       HT       0.417000       1.00800           0
     29762 TIP3     376      TIP3     OH2      OT      -0.834000       15.9994           0
     29763 TIP3     376      TIP3     H1       HT       0.417000       1.00800           0
     29764 TIP3     376      TIP3     H2       HT       0.417000       1.00800           0
     29765 TIP3     377      TIP3     OH2      OT      -0.834000       15.9994           0
     29766 TIP3     377      TIP3     H1       HT       0.417000       1.00800           0
     29767 TIP3     377      TIP3     H2       HT       0.417000       1.00800           0
     29768 TIP3     378      TIP3     OH2      OT      -0.834000       15.9994           0
     29769 TIP3     378      TIP3     H1       HT       0.417000       1.00800           0
     29770 TIP3     378      TIP3     H2       HT       0.417000       1.00800           0
     29771 TIP3     379      TIP3     OH2      OT      -0.834000       15.9994           0
     29772 TIP3     379      TIP3     H1       HT       0.417000       1.00800           0
     29773 TIP3     379      TIP3     H2       HT       0.417000       1.00800           0
     29774 TIP3     380      TIP3     OH2      OT      -0.834000       15.9994           0
     29775 TIP3     380      TIP3     H1       HT       0.417000       1.00800           0
     29776 TIP3     380      TIP3     H2       HT       0.417000       1.00800           0
     29777 TIP3     381      TIP3     OH2      OT      -0.834000       15.9994           0
     29778 TIP3     381      TIP3     H1       HT       0.417000       1.00800           0
     29779 TIP3     381      TIP3     H2       HT       0.417000       1.00800           0
     29780 TIP3     382      TIP3     OH2      OT      -0.834000       15.9994           0
     29781 TIP3     382      TIP3     H1       HT       0.417000       1.00800           0
     29782 TIP3     382      TIP3     H2       HT       0.417000       1.00800           0
     29783 TIP3     383      TIP3     OH2      OT      -0.834000       15.9994           0
     29784 TIP3     383      TIP3     H1       HT       0.417000       1.00800           0
     29785 TIP3     383      TIP3     H2       HT       0.417000       1.00800           0
     29786 TIP3     384      TIP3     OH2      OT      -0.834000       15.9994           0
     29787 TIP3     384      TIP3     H1       HT       0.417000       1.00800           0
     29788 TIP3     384      TIP3     H2       HT       0.417000       1.00800           0
     29789 TIP3     385      TIP3     OH2      OT      -0.834000       15.9994           0
     29790 TIP3     385      TIP3     H1       HT       0.417000       1.00800           0
     29791 TIP3     385      TIP3     H2       HT       0.417000       1.00800           0
     29792 TIP3     386      TIP3     OH2      OT      -0.834000       15.9994           0
     29793 TIP3     386      TIP3     H1       HT       0.417000       1.00800           0
     29794 TIP3     386      TIP3     H2       HT       0.417000       1.00800           0
     29795 TIP3     387      TIP3     OH2      OT      -0.834000       15.9994           0
     29796 TIP3     387      TIP3     H1       HT       0.417000       1.00800           0
     29797 TIP3     387      TIP3     H2       HT       0.417000       1.00800           0
     29798 TIP3     388      TIP3     OH2      OT      -0.834000       15.9994           0
     29799 TIP3     388      TIP3     H1       HT       0.417000       1.00800           0
     29800 TIP3     388      TIP3     H2       HT       0.417000       1.00800           0
     29801 TIP3     389      TIP3     OH2      OT      -0.834000       15.9994           0
     29802 TIP3     389      TIP3     H1       HT       0.417000       1.00800           0
     29803 TIP3     389      TIP3     H2       HT       0.417000       1.00800           0
     29804 TIP3     390      TIP3     OH2      OT      -0.834000       15.9994           0
     29805 TIP3     390      TIP3     H1       HT       0.417000       1.00800           0
     29806 TIP3     390      TIP3     H2       HT       0.417000       1.00800           0
     29807 TIP3     391      TIP3     OH2      OT      -0.834000       15.9994           0
     29808 TIP3     391      TIP3     H1       HT       0.417000       1.00800           0
     29809 TIP3     391      TIP3     H2       HT       0.417000       1.00800           0
     29810 TIP3     392      TIP3     OH2      OT      -0.834000       15.9994           0
     29811 TIP3     392      TIP3     H1       HT       0.417000       1.00800           0
     29812 TIP3     392      TIP3     H2       HT       0.417000       1.00800           0
     29813 TIP3     393      TIP3     OH2      OT      -0.834000       15.9994           0
     29814 TIP3     393      TIP3     H1       HT       0.417000       1.00800           0
     29815 TIP3     393      TIP3     H2       HT       0.417000       1.00800           0
     29816 TIP3     394      TIP3     OH2      OT      -0.834000       15.9994           0
     29817 TIP3     394      TIP3     H1       HT       0.417000       1.00800           0
     29818 TIP3     394      TIP3     H2       HT       0.417000       1.00800           0
     29819 TIP3     395      TIP3     OH2      OT      -0.834000       15.9994           0
     29820 TIP3     395      TIP3     H1       HT       0.417000       1.00800           0
     29821 TIP3     395      TIP3     H2       HT       0.417000       1.00800           0
     29822 TIP3     396      TIP3     OH2      OT      -0.834000       15.9994           0
     29823 TIP3     396      TIP3     H1       HT       0.417000       1.00800           0
     29824 TIP3     396      TIP3     H2       HT       0.417000       1.00800           0
     29825 TIP3     397      TIP3     OH2      OT      -0.834000       15.9994           0
     29826 TIP3     397      TIP3     H1       HT       0.417000       1.00800           0
     29827 TIP3     397      TIP3     H2       HT       0.417000       1.00800           0
     29828 TIP3     398      TIP3     OH2      OT      -0.834000       15.9994           0
     29829 TIP3     398      TIP3     H1       HT       0.417000       1.00800           0
     29830 TIP3     398      TIP3     H2       HT       0.417000       1.00800           0
     29831 TIP3     399      TIP3     OH2      OT      -0.834000       15.9994           0
     29832 TIP3     399      TIP3     H1       HT       0.417000       1.00800           0
     29833 TIP3     399      TIP3     H2       HT       0.417000       1.00800           0
     29834 TIP3     400      TIP3     OH2      OT      -0.834000       15.9994           0
     29835 TIP3     400      TIP3     H1       HT       0.417000       1.00800           0
     29836 TIP3     400      TIP3     H2       HT       0.417000       1.00800           0
     29837 TIP3     401      TIP3     OH2      OT      -0.834000       15.9994           0
     29838 TIP3     401      TIP3     H1       HT       0.417000       1.00800           0
     29839 TIP3     401      TIP3     H2       HT       0.417000       1.00800           0
     29840 TIP3     402      TIP3     OH2      OT      -0.834000       15.9994           0
     29841 TIP3     402      TIP3     H1       HT       0.417000       1.00800           0
     29842 TIP3     402      TIP3     H2       HT       0.417000       1.00800           0
     29843 TIP3     403      TIP3     OH2      OT      -0.834000       15.9994           0
     29844 TIP3     403      TIP3     H1       HT       0.417000       1.00800           0
     29845 TIP3     403      TIP3     H2       HT       0.417000       1.00800           0
     29846 TIP3     404      TIP3     OH2      OT      -0.834000       15.9994           0
     29847 TIP3     404      TIP3     H1       HT       0.417000       1.00800           0
     29848 TIP3     404      TIP3     H2       HT       0.417000       1.00800           0
     29849 TIP3     405      TIP3     OH2      OT      -0.834000       15.9994           0
     29850 TIP3     405      TIP3     H1       HT       0.417000       1.00800           0
     29851 TIP3     405      TIP3     H2       HT       0.417000       1.00800           0
     29852 TIP3     406      TIP3     OH2      OT      -0.834000       15.9994           0
     29853 TIP3     406      TIP3     H1       HT       0.417000       1.00800           0
     29854 TIP3     406      TIP3     H2       HT       0.417000       1.00800           0
     29855 TIP3     407      TIP3     OH2      OT      -0.834000       15.9994           0
     29856 TIP3     407      TIP3     H1       HT       0.417000       1.00800           0
     29857 TIP3     407      TIP3     H2       HT       0.417000       1.00800           0
     29858 TIP3     408      TIP3     OH2      OT      -0.834000       15.9994           0
     29859 TIP3     408      TIP3     H1       HT       0.417000       1.00800           0
     29860 TIP3     408      TIP3     H2       HT       0.417000       1.00800           0
     29861 TIP3     409      TIP3     OH2      OT      -0.834000       15.9994           0
     29862 TIP3     409      TIP3     H1       HT       0.417000       1.00800           0
     29863 TIP3     409      TIP3     H2       HT       0.417000       1.00800           0
     29864 TIP3     410      TIP3     OH2      OT      -0.834000       15.9994           0
     29865 TIP3     410      TIP3     H1       HT       0.417000       1.00800           0
     29866 TIP3     410      TIP3     H2       HT       0.417000       1.00800           0
     29867 TIP3     411      TIP3     OH2      OT      -0.834000       15.9994           0
     29868 TIP3     411      TIP3     H1       HT       0.417000       1.00800           0
     29869 TIP3     411      TIP3     H2       HT       0.417000       1.00800           0
     29870 TIP3     412      TIP3     OH2      OT      -0.834000       15.9994           0
     29871 TIP3     412      TIP3     H1       HT       0.417000       1.00800           0
     29872 TIP3     412      TIP3     H2       HT       0.417000       1.00800           0
     29873 TIP3     413      TIP3     OH2      OT      -0.834000       15.9994           0
     29874 TIP3     413      TIP3     H1       HT       0.417000       1.00800           0
     29875 TIP3     413      TIP3     H2       HT       0.417000       1.00800           0
     29876 TIP3     414      TIP3     OH2      OT      -0.834000       15.9994           0
     29877 TIP3     414      TIP3     H1       HT       0.417000       1.00800           0
     29878 TIP3     414      TIP3     H2       HT       0.417000       1.00800           0
     29879 TIP3     415      TIP3     OH2      OT      -0.834000       15.9994           0
     29880 TIP3     415      TIP3     H1       HT       0.417000       1.00800           0
     29881 TIP3     415      TIP3     H2       HT       0.417000       1.00800           0
     29882 TIP3     416      TIP3     OH2      OT      -0.834000       15.9994           0
     29883 TIP3     416      TIP3     H1       HT       0.417000       1.00800           0
     29884 TIP3     416      TIP3     H2       HT       0.417000       1.00800           0
     29885 TIP3     417      TIP3     OH2      OT      -0.834000       15.9994           0
     29886 TIP3     417      TIP3     H1       HT       0.417000       1.00800           0
     29887 TIP3     417      TIP3     H2       HT       0.417000       1.00800           0
     29888 TIP3     418      TIP3     OH2      OT      -0.834000       15.9994           0
     29889 TIP3     418      TIP3     H1       HT       0.417000       1.00800           0
     29890 TIP3     418      TIP3     H2       HT       0.417000       1.00800           0
     29891 TIP3     419      TIP3     OH2      OT      -0.834000       15.9994           0
     29892 TIP3     419      TIP3     H1       HT       0.417000       1.00800           0
     29893 TIP3     419      TIP3     H2       HT       0.417000       1.00800           0
     29894 TIP3     420      TIP3     OH2      OT      -0.834000       15.9994           0
     29895 TIP3     420      TIP3     H1       HT       0.417000       1.00800           0
     29896 TIP3     420      TIP3     H2       HT       0.417000       1.00800           0
     29897 TIP3     421      TIP3     OH2      OT      -0.834000       15.9994           0
     29898 TIP3     421      TIP3     H1       HT       0.417000       1.00800           0
     29899 TIP3     421      TIP3     H2       HT       0.417000       1.00800           0
     29900 TIP3     422      TIP3     OH2      OT      -0.834000       15.9994           0
     29901 TIP3     422      TIP3     H1       HT       0.417000       1.00800           0
     29902 TIP3     422      TIP3     H2       HT       0.417000       1.00800           0
     29903 TIP3     423      TIP3     OH2      OT      -0.834000       15.9994           0
     29904 TIP3     423      TIP3     H1       HT       0.417000       1.00800           0
     29905 TIP3     423      TIP3     H2       HT       0.417000       1.00800           0
     29906 TIP3     424      TIP3     OH2      OT      -0.834000       15.9994           0
     29907 TIP3     424      TIP3     H1       HT       0.417000       1.00800           0
     29908 TIP3     424      TIP3     H2       HT       0.417000       1.00800           0
     29909 TIP3     425      TIP3     OH2      OT      -0.834000       15.9994           0
     29910 TIP3     425      TIP3     H1       HT       0.417000       1.00800           0
     29911 TIP3     425      TIP3     H2       HT       0.417000       1.00800           0
     29912 TIP3     426      TIP3     OH2      OT      -0.834000       15.9994           0
     29913 TIP3     426      TIP3     H1       HT       0.417000       1.00800           0
     29914 TIP3     426      TIP3     H2       HT       0.417000       1.00800           0
     29915 TIP3     427      TIP3     OH2      OT      -0.834000       15.9994           0
     29916 TIP3     427      TIP3     H1       HT       0.417000       1.00800           0
     29917 TIP3     427      TIP3     H2       HT       0.417000       1.00800           0
     29918 TIP3     428      TIP3     OH2      OT      -0.834000       15.9994           0
     29919 TIP3     428      TIP3     H1       HT       0.417000       1.00800           0
     29920 TIP3     428      TIP3     H2       HT       0.417000       1.00800           0
     29921 TIP3     429      TIP3     OH2      OT      -0.834000       15.9994           0
     29922 TIP3     429      TIP3     H1       HT       0.417000       1.00800           0
     29923 TIP3     429      TIP3     H2       HT       0.417000       1.00800           0
     29924 TIP3     430      TIP3     OH2      OT      -0.834000       15.9994           0
     29925 TIP3     430      TIP3     H1       HT       0.417000       1.00800           0
     29926 TIP3     430      TIP3     H2       HT       0.417000       1.00800           0
     29927 TIP3     431      TIP3     OH2      OT      -0.834000       15.9994           0
     29928 TIP3     431      TIP3     H1       HT       0.417000       1.00800           0
     29929 TIP3     431      TIP3     H2       HT       0.417000       1.00800           0
     29930 TIP3     432      TIP3     OH2      OT      -0.834000       15.9994           0
     29931 TIP3     432      TIP3     H1       HT       0.417000       1.00800           0
     29932 TIP3     432      TIP3     H2       HT       0.417000       1.00800           0
     29933 TIP3     433      TIP3     OH2      OT      -0.834000       15.9994           0
     29934 TIP3     433      TIP3     H1       HT       0.417000       1.00800           0
     29935 TIP3     433      TIP3     H2       HT       0.417000       1.00800           0
     29936 TIP3     434      TIP3     OH2      OT      -0.834000       15.9994           0
     29937 TIP3     434      TIP3     H1       HT       0.417000       1.00800           0
     29938 TIP3     434      TIP3     H2       HT       0.417000       1.00800           0
     29939 TIP3     435      TIP3     OH2      OT      -0.834000       15.9994           0
     29940 TIP3     435      TIP3     H1       HT       0.417000       1.00800           0
     29941 TIP3     435      TIP3     H2       HT       0.417000       1.00800           0
     29942 TIP3     436      TIP3     OH2      OT      -0.834000       15.9994           0
     29943 TIP3     436      TIP3     H1       HT       0.417000       1.00800           0
     29944 TIP3     436      TIP3     H2       HT       0.417000       1.00800           0
     29945 TIP3     437      TIP3     OH2      OT      -0.834000       15.9994           0
     29946 TIP3     437      TIP3     H1       HT       0.417000       1.00800           0
     29947 TIP3     437      TIP3     H2       HT       0.417000       1.00800           0
     29948 TIP3     438      TIP3     OH2      OT      -0.834000       15.9994           0
     29949 TIP3     438      TIP3     H1       HT       0.417000       1.00800           0
     29950 TIP3     438      TIP3     H2       HT       0.417000       1.00800           0
     29951 TIP3     439      TIP3     OH2      OT      -0.834000       15.9994           0
     29952 TIP3     439      TIP3     H1       HT       0.417000       1.00800           0
     29953 TIP3     439      TIP3     H2       HT       0.417000       1.00800           0
     29954 TIP3     440      TIP3     OH2      OT      -0.834000       15.9994           0
     29955 TIP3     440      TIP3     H1       HT       0.417000       1.00800           0
     29956 TIP3     440      TIP3     H2       HT       0.417000       1.00800           0
     29957 TIP3     441      TIP3     OH2      OT      -0.834000       15.9994           0
     29958 TIP3     441      TIP3     H1       HT       0.417000       1.00800           0
     29959 TIP3     441      TIP3     H2       HT       0.417000       1.00800           0
     29960 TIP3     442      TIP3     OH2      OT      -0.834000       15.9994           0
     29961 TIP3     442      TIP3     H1       HT       0.417000       1.00800           0
     29962 TIP3     442      TIP3     H2       HT       0.417000       1.00800           0
     29963 TIP3     443      TIP3     OH2      OT      -0.834000       15.9994           0
     29964 TIP3     443      TIP3     H1       HT       0.417000       1.00800           0
     29965 TIP3     443      TIP3     H2       HT       0.417000       1.00800           0
     29966 TIP3     444      TIP3     OH2      OT      -0.834000       15.9994           0
     29967 TIP3     444      TIP3     H1       HT       0.417000       1.00800           0
     29968 TIP3     444      TIP3     H2       HT       0.417000       1.00800           0
     29969 TIP3     445      TIP3     OH2      OT      -0.834000       15.9994           0
     29970 TIP3     445      TIP3     H1       HT       0.417000       1.00800           0
     29971 TIP3     445      TIP3     H2       HT       0.417000       1.00800           0
     29972 TIP3     446      TIP3     OH2      OT      -0.834000       15.9994           0
     29973 TIP3     446      TIP3     H1       HT       0.417000       1.00800           0
     29974 TIP3     446      TIP3     H2       HT       0.417000       1.00800           0
     29975 TIP3     447      TIP3     OH2      OT      -0.834000       15.9994           0
     29976 TIP3     447      TIP3     H1       HT       0.417000       1.00800           0
     29977 TIP3     447      TIP3     H2       HT       0.417000       1.00800           0
     29978 TIP3     448      TIP3     OH2      OT      -0.834000       15.9994           0
     29979 TIP3     448      TIP3     H1       HT       0.417000       1.00800           0
     29980 TIP3     448      TIP3     H2       HT       0.417000       1.00800           0
     29981 TIP3     449      TIP3     OH2      OT      -0.834000       15.9994           0
     29982 TIP3     449      TIP3     H1       HT       0.417000       1.00800           0
     29983 TIP3     449      TIP3     H2       HT       0.417000       1.00800           0
     29984 TIP3     450      TIP3     OH2      OT      -0.834000       15.9994           0
     29985 TIP3     450      TIP3     H1       HT       0.417000       1.00800           0
     29986 TIP3     450      TIP3     H2       HT       0.417000       1.00800           0
     29987 TIP3     451      TIP3     OH2      OT      -0.834000       15.9994           0
     29988 TIP3     451      TIP3     H1       HT       0.417000       1.00800           0
     29989 TIP3     451      TIP3     H2       HT       0.417000       1.00800           0
     29990 TIP3     452      TIP3     OH2      OT      -0.834000       15.9994           0
     29991 TIP3     452      TIP3     H1       HT       0.417000       1.00800           0
     29992 TIP3     452      TIP3     H2       HT       0.417000       1.00800           0
     29993 TIP3     453      TIP3     OH2      OT      -0.834000       15.9994           0
     29994 TIP3     453      TIP3     H1       HT       0.417000       1.00800           0
     29995 TIP3     453      TIP3     H2       HT       0.417000       1.00800           0
     29996 TIP3     454      TIP3     OH2      OT      -0.834000       15.9994           0
     29997 TIP3     454      TIP3     H1       HT       0.417000       1.00800           0
     29998 TIP3     454      TIP3     H2       HT       0.417000       1.00800           0
     29999 TIP3     455      TIP3     OH2      OT      -0.834000       15.9994           0
     30000 TIP3     455      TIP3     H1       HT       0.417000       1.00800           0
     30001 TIP3     455      TIP3     H2       HT       0.417000       1.00800           0
     30002 TIP3     456      TIP3     OH2      OT      -0.834000       15.9994           0
     30003 TIP3     456      TIP3     H1       HT       0.417000       1.00800           0
     30004 TIP3     456      TIP3     H2       HT       0.417000       1.00800           0
     30005 TIP3     457      TIP3     OH2      OT      -0.834000       15.9994           0
     30006 TIP3     457      TIP3     H1       HT       0.417000       1.00800           0
     30007 TIP3     457      TIP3     H2       HT       0.417000       1.00800           0
     30008 TIP3     458      TIP3     OH2      OT      -0.834000       15.9994           0
     30009 TIP3     458      TIP3     H1       HT       0.417000       1.00800           0
     30010 TIP3     458      TIP3     H2       HT       0.417000       1.00800           0
     30011 TIP3     459      TIP3     OH2      OT      -0.834000       15.9994           0
     30012 TIP3     459      TIP3     H1       HT       0.417000       1.00800           0
     30013 TIP3     459      TIP3     H2       HT       0.417000       1.00800           0
     30014 TIP3     460      TIP3     OH2      OT      -0.834000       15.9994           0
     30015 TIP3     460      TIP3     H1       HT       0.417000       1.00800           0
     30016 TIP3     460      TIP3     H2       HT       0.417000       1.00800           0
     30017 TIP3     461      TIP3     OH2      OT      -0.834000       15.9994           0
     30018 TIP3     461      TIP3     H1       HT       0.417000       1.00800           0
     30019 TIP3     461      TIP3     H2       HT       0.417000       1.00800           0
     30020 TIP3     462      TIP3     OH2      OT      -0.834000       15.9994           0
     30021 TIP3     462      TIP3     H1       HT       0.417000       1.00800           0
     30022 TIP3     462      TIP3     H2       HT       0.417000       1.00800           0
     30023 TIP3     463      TIP3     OH2      OT      -0.834000       15.9994           0
     30024 TIP3     463      TIP3     H1       HT       0.417000       1.00800           0
     30025 TIP3     463      TIP3     H2       HT       0.417000       1.00800           0
     30026 TIP3     464      TIP3     OH2      OT      -0.834000       15.9994           0
     30027 TIP3     464      TIP3     H1       HT       0.417000       1.00800           0
     30028 TIP3     464      TIP3     H2       HT       0.417000       1.00800           0
     30029 TIP3     465      TIP3     OH2      OT      -0.834000       15.9994           0
     30030 TIP3     465      TIP3     H1       HT       0.417000       1.00800           0
     30031 TIP3     465      TIP3     H2       HT       0.417000       1.00800           0
     30032 TIP3     466      TIP3     OH2      OT      -0.834000       15.9994           0
     30033 TIP3     466      TIP3     H1       HT       0.417000       1.00800           0
     30034 TIP3     466      TIP3     H2       HT       0.417000       1.00800           0
     30035 TIP3     467      TIP3     OH2      OT      -0.834000       15.9994           0
     30036 TIP3     467      TIP3     H1       HT       0.417000       1.00800           0
     30037 TIP3     467      TIP3     H2       HT       0.417000       1.00800           0
     30038 TIP3     468      TIP3     OH2      OT      -0.834000       15.9994           0
     30039 TIP3     468      TIP3     H1       HT       0.417000       1.00800           0
     30040 TIP3     468      TIP3     H2       HT       0.417000       1.00800           0
     30041 TIP3     469      TIP3     OH2      OT      -0.834000       15.9994           0
     30042 TIP3     469      TIP3     H1       HT       0.417000       1.00800           0
     30043 TIP3     469      TIP3     H2       HT       0.417000       1.00800           0
     30044 TIP3     470      TIP3     OH2      OT      -0.834000       15.9994           0
     30045 TIP3     470      TIP3     H1       HT       0.417000       1.00800           0
     30046 TIP3     470      TIP3     H2       HT       0.417000       1.00800           0
     30047 TIP3     471      TIP3     OH2      OT      -0.834000       15.9994           0
     30048 TIP3     471      TIP3     H1       HT       0.417000       1.00800           0
     30049 TIP3     471      TIP3     H2       HT       0.417000       1.00800           0
     30050 TIP3     472      TIP3     OH2      OT      -0.834000       15.9994           0
     30051 TIP3     472      TIP3     H1       HT       0.417000       1.00800           0
     30052 TIP3     472      TIP3     H2       HT       0.417000       1.00800           0
     30053 TIP3     473      TIP3     OH2      OT      -0.834000       15.9994           0
     30054 TIP3     473      TIP3     H1       HT       0.417000       1.00800           0
     30055 TIP3     473      TIP3     H2       HT       0.417000       1.00800           0
     30056 TIP3     474      TIP3     OH2      OT      -0.834000       15.9994           0
     30057 TIP3     474      TIP3     H1       HT       0.417000       1.00800           0
     30058 TIP3     474      TIP3     H2       HT       0.417000       1.00800           0
     30059 TIP3     475      TIP3     OH2      OT      -0.834000       15.9994           0
     30060 TIP3     475      TIP3     H1       HT       0.417000       1.00800           0
     30061 TIP3     475      TIP3     H2       HT       0.417000       1.00800           0
     30062 TIP3     476      TIP3     OH2      OT      -0.834000       15.9994           0
     30063 TIP3     476      TIP3     H1       HT       0.417000       1.00800           0
     30064 TIP3     476      TIP3     H2       HT       0.417000       1.00800           0
     30065 TIP3     477      TIP3     OH2      OT      -0.834000       15.9994           0
     30066 TIP3     477      TIP3     H1       HT       0.417000       1.00800           0
     30067 TIP3     477      TIP3     H2       HT       0.417000       1.00800           0
     30068 TIP3     478      TIP3     OH2      OT      -0.834000       15.9994           0
     30069 TIP3     478      TIP3     H1       HT       0.417000       1.00800           0
     30070 TIP3     478      TIP3     H2       HT       0.417000       1.00800           0
     30071 TIP3     479      TIP3     OH2      OT      -0.834000       15.9994           0
     30072 TIP3     479      TIP3     H1       HT       0.417000       1.00800           0
     30073 TIP3     479      TIP3     H2       HT       0.417000       1.00800           0
     30074 TIP3     480      TIP3     OH2      OT      -0.834000       15.9994           0
     30075 TIP3     480      TIP3     H1       HT       0.417000       1.00800           0
     30076 TIP3     480      TIP3     H2       HT       0.417000       1.00800           0
     30077 TIP3     481      TIP3     OH2      OT      -0.834000       15.9994           0
     30078 TIP3     481      TIP3     H1       HT       0.417000       1.00800           0
     30079 TIP3     481      TIP3     H2       HT       0.417000       1.00800           0
     30080 TIP3     482      TIP3     OH2      OT      -0.834000       15.9994           0
     30081 TIP3     482      TIP3     H1       HT       0.417000       1.00800           0
     30082 TIP3     482      TIP3     H2       HT       0.417000       1.00800           0
     30083 TIP3     483      TIP3     OH2      OT      -0.834000       15.9994           0
     30084 TIP3     483      TIP3     H1       HT       0.417000       1.00800           0
     30085 TIP3     483      TIP3     H2       HT       0.417000       1.00800           0
     30086 TIP3     484      TIP3     OH2      OT      -0.834000       15.9994           0
     30087 TIP3     484      TIP3     H1       HT       0.417000       1.00800           0
     30088 TIP3     484      TIP3     H2       HT       0.417000       1.00800           0
     30089 TIP3     485      TIP3     OH2      OT      -0.834000       15.9994           0
     30090 TIP3     485      TIP3     H1       HT       0.417000       1.00800           0
     30091 TIP3     485      TIP3     H2       HT       0.417000       1.00800           0
     30092 TIP3     486      TIP3     OH2      OT      -0.834000       15.9994           0
     30093 TIP3     486      TIP3     H1       HT       0.417000       1.00800           0
     30094 TIP3     486      TIP3     H2       HT       0.417000       1.00800           0
     30095 TIP3     487      TIP3     OH2      OT      -0.834000       15.9994           0
     30096 TIP3     487      TIP3     H1       HT       0.417000       1.00800           0
     30097 TIP3     487      TIP3     H2       HT       0.417000       1.00800           0
     30098 TIP3     488      TIP3     OH2      OT      -0.834000       15.9994           0
     30099 TIP3     488      TIP3     H1       HT       0.417000       1.00800           0
     30100 TIP3     488      TIP3     H2       HT       0.417000       1.00800           0
     30101 TIP3     489      TIP3     OH2      OT      -0.834000       15.9994           0
     30102 TIP3     489      TIP3     H1       HT       0.417000       1.00800           0
     30103 TIP3     489      TIP3     H2       HT       0.417000       1.00800           0
     30104 TIP3     490      TIP3     OH2      OT      -0.834000       15.9994           0
     30105 TIP3     490      TIP3     H1       HT       0.417000       1.00800           0
     30106 TIP3     490      TIP3     H2       HT       0.417000       1.00800           0
     30107 TIP3     491      TIP3     OH2      OT      -0.834000       15.9994           0
     30108 TIP3     491      TIP3     H1       HT       0.417000       1.00800           0
     30109 TIP3     491      TIP3     H2       HT       0.417000       1.00800           0
     30110 TIP3     492      TIP3     OH2      OT      -0.834000       15.9994           0
     30111 TIP3     492      TIP3     H1       HT       0.417000       1.00800           0
     30112 TIP3     492      TIP3     H2       HT       0.417000       1.00800           0
     30113 TIP3     493      TIP3     OH2      OT      -0.834000       15.9994           0
     30114 TIP3     493      TIP3     H1       HT       0.417000       1.00800           0
     30115 TIP3     493      TIP3     H2       HT       0.417000       1.00800           0
     30116 TIP3     494      TIP3     OH2      OT      -0.834000       15.9994           0
     30117 TIP3     494      TIP3     H1       HT       0.417000       1.00800           0
     30118 TIP3     494      TIP3     H2       HT       0.417000       1.00800           0
     30119 TIP3     495      TIP3     OH2      OT      -0.834000       15.9994           0
     30120 TIP3     495      TIP3     H1       HT       0.417000       1.00800           0
     30121 TIP3     495      TIP3     H2       HT       0.417000       1.00800           0
     30122 TIP3     496      TIP3     OH2      OT      -0.834000       15.9994           0
     30123 TIP3     496      TIP3     H1       HT       0.417000       1.00800           0
     30124 TIP3     496      TIP3     H2       HT       0.417000       1.00800           0
     30125 TIP3     497      TIP3     OH2      OT      -0.834000       15.9994           0
     30126 TIP3     497      TIP3     H1       HT       0.417000       1.00800           0
     30127 TIP3     497      TIP3     H2       HT       0.417000       1.00800           0
     30128 TIP3     498      TIP3     OH2      OT      -0.834000       15.9994           0
     30129 TIP3     498      TIP3     H1       HT       0.417000       1.00800           0
     30130 TIP3     498      TIP3     H2       HT       0.417000       1.00800           0
     30131 TIP3     499      TIP3     OH2      OT      -0.834000       15.9994           0
     30132 TIP3     499      TIP3     H1       HT       0.417000       1.00800           0
     30133 TIP3     499      TIP3     H2       HT       0.417000       1.00800           0
     30134 TIP3     500      TIP3     OH2      OT      -0.834000       15.9994           0
     30135 TIP3     500      TIP3     H1       HT       0.417000       1.00800           0
     30136 TIP3     500      TIP3     H2       HT       0.417000       1.00800           0
     30137 TIP3     501      TIP3     OH2      OT      -0.834000       15.9994           0
     30138 TIP3     501      TIP3     H1       HT       0.417000       1.00800           0
     30139 TIP3     501      TIP3     H2       HT       0.417000       1.00800           0
     30140 TIP3     502      TIP3     OH2      OT      -0.834000       15.9994           0
     30141 TIP3     502      TIP3     H1       HT       0.417000       1.00800           0
     30142 TIP3     502      TIP3     H2       HT       0.417000       1.00800           0
     30143 TIP3     503      TIP3     OH2      OT      -0.834000       15.9994           0
     30144 TIP3     503      TIP3     H1       HT       0.417000       1.00800           0
     30145 TIP3     503      TIP3     H2       HT       0.417000       1.00800           0
     30146 TIP3     504      TIP3     OH2      OT      -0.834000       15.9994           0
     30147 TIP3     504      TIP3     H1       HT       0.417000       1.00800           0
     30148 TIP3     504      TIP3     H2       HT       0.417000       1.00800           0
     30149 TIP3     505      TIP3     OH2      OT      -0.834000       15.9994           0
     30150 TIP3     505      TIP3     H1       HT       0.417000       1.00800           0
     30151 TIP3     505      TIP3     H2       HT       0.417000       1.00800           0
     30152 TIP3     506      TIP3     OH2      OT      -0.834000       15.9994           0
     30153 TIP3     506      TIP3     H1       HT       0.417000       1.00800           0
     30154 TIP3     506      TIP3     H2       HT       0.417000       1.00800           0
     30155 TIP3     507      TIP3     OH2      OT      -0.834000       15.9994           0
     30156 TIP3     507      TIP3     H1       HT       0.417000       1.00800           0
     30157 TIP3     507      TIP3     H2       HT       0.417000       1.00800           0
     30158 TIP3     508      TIP3     OH2      OT      -0.834000       15.9994           0
     30159 TIP3     508      TIP3     H1       HT       0.417000       1.00800           0
     30160 TIP3     508      TIP3     H2       HT       0.417000       1.00800           0
     30161 TIP3     509      TIP3     OH2      OT      -0.834000       15.9994           0
     30162 TIP3     509      TIP3     H1       HT       0.417000       1.00800           0
     30163 TIP3     509      TIP3     H2       HT       0.417000       1.00800           0
     30164 TIP3     510      TIP3     OH2      OT      -0.834000       15.9994           0
     30165 TIP3     510      TIP3     H1       HT       0.417000       1.00800           0
     30166 TIP3     510      TIP3     H2       HT       0.417000       1.00800           0
     30167 TIP3     511      TIP3     OH2      OT      -0.834000       15.9994           0
     30168 TIP3     511      TIP3     H1       HT       0.417000       1.00800           0
     30169 TIP3     511      TIP3     H2       HT       0.417000       1.00800           0
     30170 TIP3     512      TIP3     OH2      OT      -0.834000       15.9994           0
     30171 TIP3     512      TIP3     H1       HT       0.417000       1.00800           0
     30172 TIP3     512      TIP3     H2       HT       0.417000       1.00800           0
     30173 TIP3     513      TIP3     OH2      OT      -0.834000       15.9994           0
     30174 TIP3     513      TIP3     H1       HT       0.417000       1.00800           0
     30175 TIP3     513      TIP3     H2       HT       0.417000       1.00800           0
     30176 TIP3     514      TIP3     OH2      OT      -0.834000       15.9994           0
     30177 TIP3     514      TIP3     H1       HT       0.417000       1.00800           0
     30178 TIP3     514      TIP3     H2       HT       0.417000       1.00800           0
     30179 TIP3     515      TIP3     OH2      OT      -0.834000       15.9994           0
     30180 TIP3     515      TIP3     H1       HT       0.417000       1.00800           0
     30181 TIP3     515      TIP3     H2       HT       0.417000       1.00800           0
     30182 TIP3     516      TIP3     OH2      OT      -0.834000       15.9994           0
     30183 TIP3     516      TIP3     H1       HT       0.417000       1.00800           0
     30184 TIP3     516      TIP3     H2       HT       0.417000       1.00800           0
     30185 TIP3     517      TIP3     OH2      OT      -0.834000       15.9994           0
     30186 TIP3     517      TIP3     H1       HT       0.417000       1.00800           0
     30187 TIP3     517      TIP3     H2       HT       0.417000       1.00800           0
     30188 TIP3     518      TIP3     OH2      OT      -0.834000       15.9994           0
     30189 TIP3     518      TIP3     H1       HT       0.417000       1.00800           0
     30190 TIP3     518      TIP3     H2       HT       0.417000       1.00800           0
     30191 TIP3     519      TIP3     OH2      OT      -0.834000       15.9994           0
     30192 TIP3     519      TIP3     H1       HT       0.417000       1.00800           0
     30193 TIP3     519      TIP3     H2       HT       0.417000       1.00800           0
     30194 TIP3     520      TIP3     OH2      OT      -0.834000       15.9994           0
     30195 TIP3     520      TIP3     H1       HT       0.417000       1.00800           0
     30196 TIP3     520      TIP3     H2       HT       0.417000       1.00800           0
     30197 TIP3     521      TIP3     OH2      OT      -0.834000       15.9994           0
     30198 TIP3     521      TIP3     H1       HT       0.417000       1.00800           0
     30199 TIP3     521      TIP3     H2       HT       0.417000       1.00800           0
     30200 TIP3     522      TIP3     OH2      OT      -0.834000       15.9994           0
     30201 TIP3     522      TIP3     H1       HT       0.417000       1.00800           0
     30202 TIP3     522      TIP3     H2       HT       0.417000       1.00800           0
     30203 TIP3     523      TIP3     OH2      OT      -0.834000       15.9994           0
     30204 TIP3     523      TIP3     H1       HT       0.417000       1.00800           0
     30205 TIP3     523      TIP3     H2       HT       0.417000       1.00800           0
     30206 TIP3     524      TIP3     OH2      OT      -0.834000       15.9994           0
     30207 TIP3     524      TIP3     H1       HT       0.417000       1.00800           0
     30208 TIP3     524      TIP3     H2       HT       0.417000       1.00800           0
     30209 TIP3     525      TIP3     OH2      OT      -0.834000       15.9994           0
     30210 TIP3     525      TIP3     H1       HT       0.417000       1.00800           0
     30211 TIP3     525      TIP3     H2       HT       0.417000       1.00800           0
     30212 TIP3     526      TIP3     OH2      OT      -0.834000       15.9994           0
     30213 TIP3     526      TIP3     H1       HT       0.417000       1.00800           0
     30214 TIP3     526      TIP3     H2       HT       0.417000       1.00800           0
     30215 TIP3     527      TIP3     OH2      OT      -0.834000       15.9994           0
     30216 TIP3     527      TIP3     H1       HT       0.417000       1.00800           0
     30217 TIP3     527      TIP3     H2       HT       0.417000       1.00800           0
     30218 TIP3     528      TIP3     OH2      OT      -0.834000       15.9994           0
     30219 TIP3     528      TIP3     H1       HT       0.417000       1.00800           0
     30220 TIP3     528      TIP3     H2       HT       0.417000       1.00800           0
     30221 TIP3     529      TIP3     OH2      OT      -0.834000       15.9994           0
     30222 TIP3     529      TIP3     H1       HT       0.417000       1.00800           0
     30223 TIP3     529      TIP3     H2       HT       0.417000       1.00800           0
     30224 TIP3     530      TIP3     OH2      OT      -0.834000       15.9994           0
     30225 TIP3     530      TIP3     H1       HT       0.417000       1.00800           0
     30226 TIP3     530      TIP3     H2       HT       0.417000       1.00800           0
     30227 TIP3     531      TIP3     OH2      OT      -0.834000       15.9994           0
     30228 TIP3     531      TIP3     H1       HT       0.417000       1.00800           0
     30229 TIP3     531      TIP3     H2       HT       0.417000       1.00800           0
     30230 TIP3     532      TIP3     OH2      OT      -0.834000       15.9994           0
     30231 TIP3     532      TIP3     H1       HT       0.417000       1.00800           0
     30232 TIP3     532      TIP3     H2       HT       0.417000       1.00800           0
     30233 TIP3     533      TIP3     OH2      OT      -0.834000       15.9994           0
     30234 TIP3     533      TIP3     H1       HT       0.417000       1.00800           0
     30235 TIP3     533      TIP3     H2       HT       0.417000       1.00800           0
     30236 TIP3     534      TIP3     OH2      OT      -0.834000       15.9994           0
     30237 TIP3     534      TIP3     H1       HT       0.417000       1.00800           0
     30238 TIP3     534      TIP3     H2       HT       0.417000       1.00800           0
     30239 TIP3     535      TIP3     OH2      OT      -0.834000       15.9994           0
     30240 TIP3     535      TIP3     H1       HT       0.417000       1.00800           0
     30241 TIP3     535      TIP3     H2       HT       0.417000       1.00800           0
     30242 TIP3     536      TIP3     OH2      OT      -0.834000       15.9994           0
     30243 TIP3     536      TIP3     H1       HT       0.417000       1.00800           0
     30244 TIP3     536      TIP3     H2       HT       0.417000       1.00800           0
     30245 TIP3     537      TIP3     OH2      OT      -0.834000       15.9994           0
     30246 TIP3     537      TIP3     H1       HT       0.417000       1.00800           0
     30247 TIP3     537      TIP3     H2       HT       0.417000       1.00800           0
     30248 TIP3     538      TIP3     OH2      OT      -0.834000       15.9994           0
     30249 TIP3     538      TIP3     H1       HT       0.417000       1.00800           0
     30250 TIP3     538      TIP3     H2       HT       0.417000       1.00800           0
     30251 TIP3     539      TIP3     OH2      OT      -0.834000       15.9994           0
     30252 TIP3     539      TIP3     H1       HT       0.417000       1.00800           0
     30253 TIP3     539      TIP3     H2       HT       0.417000       1.00800           0
     30254 TIP3     540      TIP3     OH2      OT      -0.834000       15.9994           0
     30255 TIP3     540      TIP3     H1       HT       0.417000       1.00800           0
     30256 TIP3     540      TIP3     H2       HT       0.417000       1.00800           0
     30257 TIP3     541      TIP3     OH2      OT      -0.834000       15.9994           0
     30258 TIP3     541      TIP3     H1       HT       0.417000       1.00800           0
     30259 TIP3     541      TIP3     H2       HT       0.417000       1.00800           0
     30260 TIP3     542      TIP3     OH2      OT      -0.834000       15.9994           0
     30261 TIP3     542      TIP3     H1       HT       0.417000       1.00800           0
     30262 TIP3     542      TIP3     H2       HT       0.417000       1.00800           0
     30263 TIP3     543      TIP3     OH2      OT      -0.834000       15.9994           0
     30264 TIP3     543      TIP3     H1       HT       0.417000       1.00800           0
     30265 TIP3     543      TIP3     H2       HT       0.417000       1.00800           0
     30266 TIP3     544      TIP3     OH2      OT      -0.834000       15.9994           0
     30267 TIP3     544      TIP3     H1       HT       0.417000       1.00800           0
     30268 TIP3     544      TIP3     H2       HT       0.417000       1.00800           0
     30269 TIP3     545      TIP3     OH2      OT      -0.834000       15.9994           0
     30270 TIP3     545      TIP3     H1       HT       0.417000       1.00800           0
     30271 TIP3     545      TIP3     H2       HT       0.417000       1.00800           0
     30272 TIP3     546      TIP3     OH2      OT      -0.834000       15.9994           0
     30273 TIP3     546      TIP3     H1       HT       0.417000       1.00800           0
     30274 TIP3     546      TIP3     H2       HT       0.417000       1.00800           0
     30275 TIP3     547      TIP3     OH2      OT      -0.834000       15.9994           0
     30276 TIP3     547      TIP3     H1       HT       0.417000       1.00800           0
     30277 TIP3     547      TIP3     H2       HT       0.417000       1.00800           0
     30278 TIP3     548      TIP3     OH2      OT      -0.834000       15.9994           0
     30279 TIP3     548      TIP3     H1       HT       0.417000       1.00800           0
     30280 TIP3     548      TIP3     H2       HT       0.417000       1.00800           0
     30281 TIP3     549      TIP3     OH2      OT      -0.834000       15.9994           0
     30282 TIP3     549      TIP3     H1       HT       0.417000       1.00800           0
     30283 TIP3     549      TIP3     H2       HT       0.417000       1.00800           0
     30284 TIP3     550      TIP3     OH2      OT      -0.834000       15.9994           0
     30285 TIP3     550      TIP3     H1       HT       0.417000       1.00800           0
     30286 TIP3     550      TIP3     H2       HT       0.417000       1.00800           0
     30287 TIP3     551      TIP3     OH2      OT      -0.834000       15.9994           0
     30288 TIP3     551      TIP3     H1       HT       0.417000       1.00800           0
     30289 TIP3     551      TIP3     H2       HT       0.417000       1.00800           0
     30290 TIP3     552      TIP3     OH2      OT      -0.834000       15.9994           0
     30291 TIP3     552      TIP3     H1       HT       0.417000       1.00800           0
     30292 TIP3     552      TIP3     H2       HT       0.417000       1.00800           0
     30293 TIP3     553      TIP3     OH2      OT      -0.834000       15.9994           0
     30294 TIP3     553      TIP3     H1       HT       0.417000       1.00800           0
     30295 TIP3     553      TIP3     H2       HT       0.417000       1.00800           0
     30296 TIP3     554      TIP3     OH2      OT      -0.834000       15.9994           0
     30297 TIP3     554      TIP3     H1       HT       0.417000       1.00800           0
     30298 TIP3     554      TIP3     H2       HT       0.417000       1.00800           0
     30299 TIP3     555      TIP3     OH2      OT      -0.834000       15.9994           0
     30300 TIP3     555      TIP3     H1       HT       0.417000       1.00800           0
     30301 TIP3     555      TIP3     H2       HT       0.417000       1.00800           0
     30302 TIP3     556      TIP3     OH2      OT      -0.834000       15.9994           0
     30303 TIP3     556      TIP3     H1       HT       0.417000       1.00800           0
     30304 TIP3     556      TIP3     H2       HT       0.417000       1.00800           0
     30305 TIP3     557      TIP3     OH2      OT      -0.834000       15.9994           0
     30306 TIP3     557      TIP3     H1       HT       0.417000       1.00800           0
     30307 TIP3     557      TIP3     H2       HT       0.417000       1.00800           0
     30308 TIP3     558      TIP3     OH2      OT      -0.834000       15.9994           0
     30309 TIP3     558      TIP3     H1       HT       0.417000       1.00800           0
     30310 TIP3     558      TIP3     H2       HT       0.417000       1.00800           0
     30311 TIP3     559      TIP3     OH2      OT      -0.834000       15.9994           0
     30312 TIP3     559      TIP3     H1       HT       0.417000       1.00800           0
     30313 TIP3     559      TIP3     H2       HT       0.417000       1.00800           0
     30314 TIP3     560      TIP3     OH2      OT      -0.834000       15.9994           0
     30315 TIP3     560      TIP3     H1       HT       0.417000       1.00800           0
     30316 TIP3     560      TIP3     H2       HT       0.417000       1.00800           0
     30317 TIP3     561      TIP3     OH2      OT      -0.834000       15.9994           0
     30318 TIP3     561      TIP3     H1       HT       0.417000       1.00800           0
     30319 TIP3     561      TIP3     H2       HT       0.417000       1.00800           0
     30320 TIP3     562      TIP3     OH2      OT      -0.834000       15.9994           0
     30321 TIP3     562      TIP3     H1       HT       0.417000       1.00800           0
     30322 TIP3     562      TIP3     H2       HT       0.417000       1.00800           0
     30323 TIP3     563      TIP3     OH2      OT      -0.834000       15.9994           0
     30324 TIP3     563      TIP3     H1       HT       0.417000       1.00800           0
     30325 TIP3     563      TIP3     H2       HT       0.417000       1.00800           0
     30326 TIP3     564      TIP3     OH2      OT      -0.834000       15.9994           0
     30327 TIP3     564      TIP3     H1       HT       0.417000       1.00800           0
     30328 TIP3     564      TIP3     H2       HT       0.417000       1.00800           0
     30329 TIP3     565      TIP3     OH2      OT      -0.834000       15.9994           0
     30330 TIP3     565      TIP3     H1       HT       0.417000       1.00800           0
     30331 TIP3     565      TIP3     H2       HT       0.417000       1.00800           0
     30332 TIP3     566      TIP3     OH2      OT      -0.834000       15.9994           0
     30333 TIP3     566      TIP3     H1       HT       0.417000       1.00800           0
     30334 TIP3     566      TIP3     H2       HT       0.417000       1.00800           0
     30335 TIP3     567      TIP3     OH2      OT      -0.834000       15.9994           0
     30336 TIP3     567      TIP3     H1       HT       0.417000       1.00800           0
     30337 TIP3     567      TIP3     H2       HT       0.417000       1.00800           0
     30338 TIP3     568      TIP3     OH2      OT      -0.834000       15.9994           0
     30339 TIP3     568      TIP3     H1       HT       0.417000       1.00800           0
     30340 TIP3     568      TIP3     H2       HT       0.417000       1.00800           0
     30341 TIP3     569      TIP3     OH2      OT      -0.834000       15.9994           0
     30342 TIP3     569      TIP3     H1       HT       0.417000       1.00800           0
     30343 TIP3     569      TIP3     H2       HT       0.417000       1.00800           0
     30344 TIP3     570      TIP3     OH2      OT      -0.834000       15.9994           0
     30345 TIP3     570      TIP3     H1       HT       0.417000       1.00800           0
     30346 TIP3     570      TIP3     H2       HT       0.417000       1.00800           0
     30347 TIP3     571      TIP3     OH2      OT      -0.834000       15.9994           0
     30348 TIP3     571      TIP3     H1       HT       0.417000       1.00800           0
     30349 TIP3     571      TIP3     H2       HT       0.417000       1.00800           0
     30350 TIP3     572      TIP3     OH2      OT      -0.834000       15.9994           0
     30351 TIP3     572      TIP3     H1       HT       0.417000       1.00800           0
     30352 TIP3     572      TIP3     H2       HT       0.417000       1.00800           0
     30353 TIP3     573      TIP3     OH2      OT      -0.834000       15.9994           0
     30354 TIP3     573      TIP3     H1       HT       0.417000       1.00800           0
     30355 TIP3     573      TIP3     H2       HT       0.417000       1.00800           0
     30356 TIP3     574      TIP3     OH2      OT      -0.834000       15.9994           0
     30357 TIP3     574      TIP3     H1       HT       0.417000       1.00800           0
     30358 TIP3     574      TIP3     H2       HT       0.417000       1.00800           0
     30359 TIP3     575      TIP3     OH2      OT      -0.834000       15.9994           0
     30360 TIP3     575      TIP3     H1       HT       0.417000       1.00800           0
     30361 TIP3     575      TIP3     H2       HT       0.417000       1.00800           0
     30362 TIP3     576      TIP3     OH2      OT      -0.834000       15.9994           0
     30363 TIP3     576      TIP3     H1       HT       0.417000       1.00800           0
     30364 TIP3     576      TIP3     H2       HT       0.417000       1.00800           0
     30365 TIP3     577      TIP3     OH2      OT      -0.834000       15.9994           0
     30366 TIP3     577      TIP3     H1       HT       0.417000       1.00800           0
     30367 TIP3     577      TIP3     H2       HT       0.417000       1.00800           0
     30368 TIP3     578      TIP3     OH2      OT      -0.834000       15.9994           0
     30369 TIP3     578      TIP3     H1       HT       0.417000       1.00800           0
     30370 TIP3     578      TIP3     H2       HT       0.417000       1.00800           0
     30371 TIP3     579      TIP3     OH2      OT      -0.834000       15.9994           0
     30372 TIP3     579      TIP3     H1       HT       0.417000       1.00800           0
     30373 TIP3     579      TIP3     H2       HT       0.417000       1.00800           0
     30374 TIP3     580      TIP3     OH2      OT      -0.834000       15.9994           0
     30375 TIP3     580      TIP3     H1       HT       0.417000       1.00800           0
     30376 TIP3     580      TIP3     H2       HT       0.417000       1.00800           0
     30377 TIP3     581      TIP3     OH2      OT      -0.834000       15.9994           0
     30378 TIP3     581      TIP3     H1       HT       0.417000       1.00800           0
     30379 TIP3     581      TIP3     H2       HT       0.417000       1.00800           0
     30380 TIP3     582      TIP3     OH2      OT      -0.834000       15.9994           0
     30381 TIP3     582      TIP3     H1       HT       0.417000       1.00800           0
     30382 TIP3     582      TIP3     H2       HT       0.417000       1.00800           0
     30383 TIP3     583      TIP3     OH2      OT      -0.834000       15.9994           0
     30384 TIP3     583      TIP3     H1       HT       0.417000       1.00800           0
     30385 TIP3     583      TIP3     H2       HT       0.417000       1.00800           0
     30386 TIP3     584      TIP3     OH2      OT      -0.834000       15.9994           0
     30387 TIP3     584      TIP3     H1       HT       0.417000       1.00800           0
     30388 TIP3     584      TIP3     H2       HT       0.417000       1.00800           0
     30389 TIP3     585      TIP3     OH2      OT      -0.834000       15.9994           0
     30390 TIP3     585      TIP3     H1       HT       0.417000       1.00800           0
     30391 TIP3     585      TIP3     H2       HT       0.417000       1.00800           0
     30392 TIP3     586      TIP3     OH2      OT      -0.834000       15.9994           0
     30393 TIP3     586      TIP3     H1       HT       0.417000       1.00800           0
     30394 TIP3     586      TIP3     H2       HT       0.417000       1.00800           0
     30395 TIP3     587      TIP3     OH2      OT      -0.834000       15.9994           0
     30396 TIP3     587      TIP3     H1       HT       0.417000       1.00800           0
     30397 TIP3     587      TIP3     H2       HT       0.417000       1.00800           0
     30398 TIP3     588      TIP3     OH2      OT      -0.834000       15.9994           0
     30399 TIP3     588      TIP3     H1       HT       0.417000       1.00800           0
     30400 TIP3     588      TIP3     H2       HT       0.417000       1.00800           0
     30401 TIP3     589      TIP3     OH2      OT      -0.834000       15.9994           0
     30402 TIP3     589      TIP3     H1       HT       0.417000       1.00800           0
     30403 TIP3     589      TIP3     H2       HT       0.417000       1.00800           0
     30404 TIP3     590      TIP3     OH2      OT      -0.834000       15.9994           0
     30405 TIP3     590      TIP3     H1       HT       0.417000       1.00800           0
     30406 TIP3     590      TIP3     H2       HT       0.417000       1.00800           0
     30407 TIP3     591      TIP3     OH2      OT      -0.834000       15.9994           0
     30408 TIP3     591      TIP3     H1       HT       0.417000       1.00800           0
     30409 TIP3     591      TIP3     H2       HT       0.417000       1.00800           0
     30410 TIP3     592      TIP3     OH2      OT      -0.834000       15.9994           0
     30411 TIP3     592      TIP3     H1       HT       0.417000       1.00800           0
     30412 TIP3     592      TIP3     H2       HT       0.417000       1.00800           0
     30413 TIP3     593      TIP3     OH2      OT      -0.834000       15.9994           0
     30414 TIP3     593      TIP3     H1       HT       0.417000       1.00800           0
     30415 TIP3     593      TIP3     H2       HT       0.417000       1.00800           0
     30416 TIP3     594      TIP3     OH2      OT      -0.834000       15.9994           0
     30417 TIP3     594      TIP3     H1       HT       0.417000       1.00800           0
     30418 TIP3     594      TIP3     H2       HT       0.417000       1.00800           0
     30419 TIP3     595      TIP3     OH2      OT      -0.834000       15.9994           0
     30420 TIP3     595      TIP3     H1       HT       0.417000       1.00800           0
     30421 TIP3     595      TIP3     H2       HT       0.417000       1.00800           0
     30422 TIP3     596      TIP3     OH2      OT      -0.834000       15.9994           0
     30423 TIP3     596      TIP3     H1       HT       0.417000       1.00800           0
     30424 TIP3     596      TIP3     H2       HT       0.417000       1.00800           0
     30425 TIP3     597      TIP3     OH2      OT      -0.834000       15.9994           0
     30426 TIP3     597      TIP3     H1       HT       0.417000       1.00800           0
     30427 TIP3     597      TIP3     H2       HT       0.417000       1.00800           0
     30428 TIP3     598      TIP3     OH2      OT      -0.834000       15.9994           0
     30429 TIP3     598      TIP3     H1       HT       0.417000       1.00800           0
     30430 TIP3     598      TIP3     H2       HT       0.417000       1.00800           0
     30431 TIP3     599      TIP3     OH2      OT      -0.834000       15.9994           0
     30432 TIP3     599      TIP3     H1       HT       0.417000       1.00800           0
     30433 TIP3     599      TIP3     H2       HT       0.417000       1.00800           0
     30434 TIP3     600      TIP3     OH2      OT      -0.834000       15.9994           0
     30435 TIP3     600      TIP3     H1       HT       0.417000       1.00800           0
     30436 TIP3     600      TIP3     H2       HT       0.417000       1.00800           0
     30437 TIP3     601      TIP3     OH2      OT      -0.834000       15.9994           0
     30438 TIP3     601      TIP3     H1       HT       0.417000       1.00800           0
     30439 TIP3     601      TIP3     H2       HT       0.417000       1.00800           0
     30440 TIP3     602      TIP3     OH2      OT      -0.834000       15.9994           0
     30441 TIP3     602      TIP3     H1       HT       0.417000       1.00800           0
     30442 TIP3     602      TIP3     H2       HT       0.417000       1.00800           0
     30443 TIP3     603      TIP3     OH2      OT      -0.834000       15.9994           0
     30444 TIP3     603      TIP3     H1       HT       0.417000       1.00800           0
     30445 TIP3     603      TIP3     H2       HT       0.417000       1.00800           0
     30446 TIP3     604      TIP3     OH2      OT      -0.834000       15.9994           0
     30447 TIP3     604      TIP3     H1       HT       0.417000       1.00800           0
     30448 TIP3     604      TIP3     H2       HT       0.417000       1.00800           0
     30449 TIP3     605      TIP3     OH2      OT      -0.834000       15.9994           0
     30450 TIP3     605      TIP3     H1       HT       0.417000       1.00800           0
     30451 TIP3     605      TIP3     H2       HT       0.417000       1.00800           0
     30452 TIP3     606      TIP3     OH2      OT      -0.834000       15.9994           0
     30453 TIP3     606      TIP3     H1       HT       0.417000       1.00800           0
     30454 TIP3     606      TIP3     H2       HT       0.417000       1.00800           0
     30455 TIP3     607      TIP3     OH2      OT      -0.834000       15.9994           0
     30456 TIP3     607      TIP3     H1       HT       0.417000       1.00800           0
     30457 TIP3     607      TIP3     H2       HT       0.417000       1.00800           0
     30458 TIP3     608      TIP3     OH2      OT      -0.834000       15.9994           0
     30459 TIP3     608      TIP3     H1       HT       0.417000       1.00800           0
     30460 TIP3     608      TIP3     H2       HT       0.417000       1.00800           0
     30461 TIP3     609      TIP3     OH2      OT      -0.834000       15.9994           0
     30462 TIP3     609      TIP3     H1       HT       0.417000       1.00800           0
     30463 TIP3     609      TIP3     H2       HT       0.417000       1.00800           0
     30464 TIP3     610      TIP3     OH2      OT      -0.834000       15.9994           0
     30465 TIP3     610      TIP3     H1       HT       0.417000       1.00800           0
     30466 TIP3     610      TIP3     H2       HT       0.417000       1.00800           0
     30467 TIP3     611      TIP3     OH2      OT      -0.834000       15.9994           0
     30468 TIP3     611      TIP3     H1       HT       0.417000       1.00800           0
     30469 TIP3     611      TIP3     H2       HT       0.417000       1.00800           0
     30470 TIP3     612      TIP3     OH2      OT      -0.834000       15.9994           0
     30471 TIP3     612      TIP3     H1       HT       0.417000       1.00800           0
     30472 TIP3     612      TIP3     H2       HT       0.417000       1.00800           0
     30473 TIP3     613      TIP3     OH2      OT      -0.834000       15.9994           0
     30474 TIP3     613      TIP3     H1       HT       0.417000       1.00800           0
     30475 TIP3     613      TIP3     H2       HT       0.417000       1.00800           0
     30476 TIP3     614      TIP3     OH2      OT      -0.834000       15.9994           0
     30477 TIP3     614      TIP3     H1       HT       0.417000       1.00800           0
     30478 TIP3     614      TIP3     H2       HT       0.417000       1.00800           0
     30479 TIP3     615      TIP3     OH2      OT      -0.834000       15.9994           0
     30480 TIP3     615      TIP3     H1       HT       0.417000       1.00800           0
     30481 TIP3     615      TIP3     H2       HT       0.417000       1.00800           0
     30482 TIP3     616      TIP3     OH2      OT      -0.834000       15.9994           0
     30483 TIP3     616      TIP3     H1       HT       0.417000       1.00800           0
     30484 TIP3     616      TIP3     H2       HT       0.417000       1.00800           0
     30485 TIP3     617      TIP3     OH2      OT      -0.834000       15.9994           0
     30486 TIP3     617      TIP3     H1       HT       0.417000       1.00800           0
     30487 TIP3     617      TIP3     H2       HT       0.417000       1.00800           0
     30488 TIP3     618      TIP3     OH2      OT      -0.834000       15.9994           0
     30489 TIP3     618      TIP3     H1       HT       0.417000       1.00800           0
     30490 TIP3     618      TIP3     H2       HT       0.417000       1.00800           0
     30491 TIP3     619      TIP3     OH2      OT      -0.834000       15.9994           0
     30492 TIP3     619      TIP3     H1       HT       0.417000       1.00800           0
     30493 TIP3     619      TIP3     H2       HT       0.417000       1.00800           0
     30494 TIP3     620      TIP3     OH2      OT      -0.834000       15.9994           0
     30495 TIP3     620      TIP3     H1       HT       0.417000       1.00800           0
     30496 TIP3     620      TIP3     H2       HT       0.417000       1.00800           0
     30497 TIP3     621      TIP3     OH2      OT      -0.834000       15.9994           0
     30498 TIP3     621      TIP3     H1       HT       0.417000       1.00800           0
     30499 TIP3     621      TIP3     H2       HT       0.417000       1.00800           0
     30500 TIP3     622      TIP3     OH2      OT      -0.834000       15.9994           0
     30501 TIP3     622      TIP3     H1       HT       0.417000       1.00800           0
     30502 TIP3     622      TIP3     H2       HT       0.417000       1.00800           0
     30503 TIP3     623      TIP3     OH2      OT      -0.834000       15.9994           0
     30504 TIP3     623      TIP3     H1       HT       0.417000       1.00800           0
     30505 TIP3     623      TIP3     H2       HT       0.417000       1.00800           0
     30506 TIP3     624      TIP3     OH2      OT      -0.834000       15.9994           0
     30507 TIP3     624      TIP3     H1       HT       0.417000       1.00800           0
     30508 TIP3     624      TIP3     H2       HT       0.417000       1.00800           0
     30509 TIP3     625      TIP3     OH2      OT      -0.834000       15.9994           0
     30510 TIP3     625      TIP3     H1       HT       0.417000       1.00800           0
     30511 TIP3     625      TIP3     H2       HT       0.417000       1.00800           0
     30512 TIP3     626      TIP3     OH2      OT      -0.834000       15.9994           0
     30513 TIP3     626      TIP3     H1       HT       0.417000       1.00800           0
     30514 TIP3     626      TIP3     H2       HT       0.417000       1.00800           0
     30515 TIP3     627      TIP3     OH2      OT      -0.834000       15.9994           0
     30516 TIP3     627      TIP3     H1       HT       0.417000       1.00800           0
     30517 TIP3     627      TIP3     H2       HT       0.417000       1.00800           0
     30518 TIP3     628      TIP3     OH2      OT      -0.834000       15.9994           0
     30519 TIP3     628      TIP3     H1       HT       0.417000       1.00800           0
     30520 TIP3     628      TIP3     H2       HT       0.417000       1.00800           0
     30521 TIP3     629      TIP3     OH2      OT      -0.834000       15.9994           0
     30522 TIP3     629      TIP3     H1       HT       0.417000       1.00800           0
     30523 TIP3     629      TIP3     H2       HT       0.417000       1.00800           0
     30524 TIP3     630      TIP3     OH2      OT      -0.834000       15.9994           0
     30525 TIP3     630      TIP3     H1       HT       0.417000       1.00800           0
     30526 TIP3     630      TIP3     H2       HT       0.417000       1.00800           0
     30527 TIP3     631      TIP3     OH2      OT      -0.834000       15.9994           0
     30528 TIP3     631      TIP3     H1       HT       0.417000       1.00800           0
     30529 TIP3     631      TIP3     H2       HT       0.417000       1.00800           0
     30530 TIP3     632      TIP3     OH2      OT      -0.834000       15.9994           0
     30531 TIP3     632      TIP3     H1       HT       0.417000       1.00800           0
     30532 TIP3     632      TIP3     H2       HT       0.417000       1.00800           0
     30533 TIP3     633      TIP3     OH2      OT      -0.834000       15.9994           0
     30534 TIP3     633      TIP3     H1       HT       0.417000       1.00800           0
     30535 TIP3     633      TIP3     H2       HT       0.417000       1.00800           0
     30536 TIP3     634      TIP3     OH2      OT      -0.834000       15.9994           0
     30537 TIP3     634      TIP3     H1       HT       0.417000       1.00800           0
     30538 TIP3     634      TIP3     H2       HT       0.417000       1.00800           0
     30539 TIP3     635      TIP3     OH2      OT      -0.834000       15.9994           0
     30540 TIP3     635      TIP3     H1       HT       0.417000       1.00800           0
     30541 TIP3     635      TIP3     H2       HT       0.417000       1.00800           0
     30542 TIP3     636      TIP3     OH2      OT      -0.834000       15.9994           0
     30543 TIP3     636      TIP3     H1       HT       0.417000       1.00800           0
     30544 TIP3     636      TIP3     H2       HT       0.417000       1.00800           0
     30545 TIP3     637      TIP3     OH2      OT      -0.834000       15.9994           0
     30546 TIP3     637      TIP3     H1       HT       0.417000       1.00800           0
     30547 TIP3     637      TIP3     H2       HT       0.417000       1.00800           0
     30548 TIP3     638      TIP3     OH2      OT      -0.834000       15.9994           0
     30549 TIP3     638      TIP3     H1       HT       0.417000       1.00800           0
     30550 TIP3     638      TIP3     H2       HT       0.417000       1.00800           0
     30551 TIP3     639      TIP3     OH2      OT      -0.834000       15.9994           0
     30552 TIP3     639      TIP3     H1       HT       0.417000       1.00800           0
     30553 TIP3     639      TIP3     H2       HT       0.417000       1.00800           0
     30554 TIP3     640      TIP3     OH2      OT      -0.834000       15.9994           0
     30555 TIP3     640      TIP3     H1       HT       0.417000       1.00800           0
     30556 TIP3     640      TIP3     H2       HT       0.417000       1.00800           0
     30557 TIP3     641      TIP3     OH2      OT      -0.834000       15.9994           0
     30558 TIP3     641      TIP3     H1       HT       0.417000       1.00800           0
     30559 TIP3     641      TIP3     H2       HT       0.417000       1.00800           0
     30560 TIP3     642      TIP3     OH2      OT      -0.834000       15.9994           0
     30561 TIP3     642      TIP3     H1       HT       0.417000       1.00800           0
     30562 TIP3     642      TIP3     H2       HT       0.417000       1.00800           0
     30563 TIP3     643      TIP3     OH2      OT      -0.834000       15.9994           0
     30564 TIP3     643      TIP3     H1       HT       0.417000       1.00800           0
     30565 TIP3     643      TIP3     H2       HT       0.417000       1.00800           0
     30566 TIP3     644      TIP3     OH2      OT      -0.834000       15.9994           0
     30567 TIP3     644      TIP3     H1       HT       0.417000       1.00800           0
     30568 TIP3     644      TIP3     H2       HT       0.417000       1.00800           0
     30569 TIP3     645      TIP3     OH2      OT      -0.834000       15.9994           0
     30570 TIP3     645      TIP3     H1       HT       0.417000       1.00800           0
     30571 TIP3     645      TIP3     H2       HT       0.417000       1.00800           0
     30572 TIP3     646      TIP3     OH2      OT      -0.834000       15.9994           0
     30573 TIP3     646      TIP3     H1       HT       0.417000       1.00800           0
     30574 TIP3     646      TIP3     H2       HT       0.417000       1.00800           0
     30575 TIP3     647      TIP3     OH2      OT      -0.834000       15.9994           0
     30576 TIP3     647      TIP3     H1       HT       0.417000       1.00800           0
     30577 TIP3     647      TIP3     H2       HT       0.417000       1.00800           0
     30578 TIP3     648      TIP3     OH2      OT      -0.834000       15.9994           0
     30579 TIP3     648      TIP3     H1       HT       0.417000       1.00800           0
     30580 TIP3     648      TIP3     H2       HT       0.417000       1.00800           0
     30581 TIP3     649      TIP3     OH2      OT      -0.834000       15.9994           0
     30582 TIP3     649      TIP3     H1       HT       0.417000       1.00800           0
     30583 TIP3     649      TIP3     H2       HT       0.417000       1.00800           0
     30584 TIP3     650      TIP3     OH2      OT      -0.834000       15.9994           0
     30585 TIP3     650      TIP3     H1       HT       0.417000       1.00800           0
     30586 TIP3     650      TIP3     H2       HT       0.417000       1.00800           0
     30587 TIP3     651      TIP3     OH2      OT      -0.834000       15.9994           0
     30588 TIP3     651      TIP3     H1       HT       0.417000       1.00800           0
     30589 TIP3     651      TIP3     H2       HT       0.417000       1.00800           0
     30590 TIP3     652      TIP3     OH2      OT      -0.834000       15.9994           0
     30591 TIP3     652      TIP3     H1       HT       0.417000       1.00800           0
     30592 TIP3     652      TIP3     H2       HT       0.417000       1.00800           0
     30593 TIP3     653      TIP3     OH2      OT      -0.834000       15.9994           0
     30594 TIP3     653      TIP3     H1       HT       0.417000       1.00800           0
     30595 TIP3     653      TIP3     H2       HT       0.417000       1.00800           0
     30596 TIP3     654      TIP3     OH2      OT      -0.834000       15.9994           0
     30597 TIP3     654      TIP3     H1       HT       0.417000       1.00800           0
     30598 TIP3     654      TIP3     H2       HT       0.417000       1.00800           0
     30599 TIP3     655      TIP3     OH2      OT      -0.834000       15.9994           0
     30600 TIP3     655      TIP3     H1       HT       0.417000       1.00800           0
     30601 TIP3     655      TIP3     H2       HT       0.417000       1.00800           0
     30602 TIP3     656      TIP3     OH2      OT      -0.834000       15.9994           0
     30603 TIP3     656      TIP3     H1       HT       0.417000       1.00800           0
     30604 TIP3     656      TIP3     H2       HT       0.417000       1.00800           0
     30605 TIP3     657      TIP3     OH2      OT      -0.834000       15.9994           0
     30606 TIP3     657      TIP3     H1       HT       0.417000       1.00800           0
     30607 TIP3     657      TIP3     H2       HT       0.417000       1.00800           0
     30608 TIP3     658      TIP3     OH2      OT      -0.834000       15.9994           0
     30609 TIP3     658      TIP3     H1       HT       0.417000       1.00800           0
     30610 TIP3     658      TIP3     H2       HT       0.417000       1.00800           0
     30611 TIP3     659      TIP3     OH2      OT      -0.834000       15.9994           0
     30612 TIP3     659      TIP3     H1       HT       0.417000       1.00800           0
     30613 TIP3     659      TIP3     H2       HT       0.417000       1.00800           0
     30614 TIP3     660      TIP3     OH2      OT      -0.834000       15.9994           0
     30615 TIP3     660      TIP3     H1       HT       0.417000       1.00800           0
     30616 TIP3     660      TIP3     H2       HT       0.417000       1.00800           0
     30617 TIP3     661      TIP3     OH2      OT      -0.834000       15.9994           0
     30618 TIP3     661      TIP3     H1       HT       0.417000       1.00800           0
     30619 TIP3     661      TIP3     H2       HT       0.417000       1.00800           0
     30620 TIP3     662      TIP3     OH2      OT      -0.834000       15.9994           0
     30621 TIP3     662      TIP3     H1       HT       0.417000       1.00800           0
     30622 TIP3     662      TIP3     H2       HT       0.417000       1.00800           0
     30623 TIP3     663      TIP3     OH2      OT      -0.834000       15.9994           0
     30624 TIP3     663      TIP3     H1       HT       0.417000       1.00800           0
     30625 TIP3     663      TIP3     H2       HT       0.417000       1.00800           0
     30626 TIP3     664      TIP3     OH2      OT      -0.834000       15.9994           0
     30627 TIP3     664      TIP3     H1       HT       0.417000       1.00800           0
     30628 TIP3     664      TIP3     H2       HT       0.417000       1.00800           0
     30629 TIP3     665      TIP3     OH2      OT      -0.834000       15.9994           0
     30630 TIP3     665      TIP3     H1       HT       0.417000       1.00800           0
     30631 TIP3     665      TIP3     H2       HT       0.417000       1.00800           0
     30632 TIP3     666      TIP3     OH2      OT      -0.834000       15.9994           0
     30633 TIP3     666      TIP3     H1       HT       0.417000       1.00800           0
     30634 TIP3     666      TIP3     H2       HT       0.417000       1.00800           0
     30635 TIP3     667      TIP3     OH2      OT      -0.834000       15.9994           0
     30636 TIP3     667      TIP3     H1       HT       0.417000       1.00800           0
     30637 TIP3     667      TIP3     H2       HT       0.417000       1.00800           0
     30638 TIP3     668      TIP3     OH2      OT      -0.834000       15.9994           0
     30639 TIP3     668      TIP3     H1       HT       0.417000       1.00800           0
     30640 TIP3     668      TIP3     H2       HT       0.417000       1.00800           0
     30641 TIP3     669      TIP3     OH2      OT      -0.834000       15.9994           0
     30642 TIP3     669      TIP3     H1       HT       0.417000       1.00800           0
     30643 TIP3     669      TIP3     H2       HT       0.417000       1.00800           0
     30644 TIP3     670      TIP3     OH2      OT      -0.834000       15.9994           0
     30645 TIP3     670      TIP3     H1       HT       0.417000       1.00800           0
     30646 TIP3     670      TIP3     H2       HT       0.417000       1.00800           0
     30647 TIP3     671      TIP3     OH2      OT      -0.834000       15.9994           0
     30648 TIP3     671      TIP3     H1       HT       0.417000       1.00800           0
     30649 TIP3     671      TIP3     H2       HT       0.417000       1.00800           0
     30650 TIP3     672      TIP3     OH2      OT      -0.834000       15.9994           0
     30651 TIP3     672      TIP3     H1       HT       0.417000       1.00800           0
     30652 TIP3     672      TIP3     H2       HT       0.417000       1.00800           0
     30653 TIP3     673      TIP3     OH2      OT      -0.834000       15.9994           0
     30654 TIP3     673      TIP3     H1       HT       0.417000       1.00800           0
     30655 TIP3     673      TIP3     H2       HT       0.417000       1.00800           0
     30656 TIP3     674      TIP3     OH2      OT      -0.834000       15.9994           0
     30657 TIP3     674      TIP3     H1       HT       0.417000       1.00800           0
     30658 TIP3     674      TIP3     H2       HT       0.417000       1.00800           0
     30659 TIP3     675      TIP3     OH2      OT      -0.834000       15.9994           0
     30660 TIP3     675      TIP3     H1       HT       0.417000       1.00800           0
     30661 TIP3     675      TIP3     H2       HT       0.417000       1.00800           0
     30662 TIP3     676      TIP3     OH2      OT      -0.834000       15.9994           0
     30663 TIP3     676      TIP3     H1       HT       0.417000       1.00800           0
     30664 TIP3     676      TIP3     H2       HT       0.417000       1.00800           0
     30665 TIP3     677      TIP3     OH2      OT      -0.834000       15.9994           0
     30666 TIP3     677      TIP3     H1       HT       0.417000       1.00800           0
     30667 TIP3     677      TIP3     H2       HT       0.417000       1.00800           0
     30668 TIP3     678      TIP3     OH2      OT      -0.834000       15.9994           0
     30669 TIP3     678      TIP3     H1       HT       0.417000       1.00800           0
     30670 TIP3     678      TIP3     H2       HT       0.417000       1.00800           0
     30671 TIP3     679      TIP3     OH2      OT      -0.834000       15.9994           0
     30672 TIP3     679      TIP3     H1       HT       0.417000       1.00800           0
     30673 TIP3     679      TIP3     H2       HT       0.417000       1.00800           0
     30674 TIP3     680      TIP3     OH2      OT      -0.834000       15.9994           0
     30675 TIP3     680      TIP3     H1       HT       0.417000       1.00800           0
     30676 TIP3     680      TIP3     H2       HT       0.417000       1.00800           0
     30677 TIP3     681      TIP3     OH2      OT      -0.834000       15.9994           0
     30678 TIP3     681      TIP3     H1       HT       0.417000       1.00800           0
     30679 TIP3     681      TIP3     H2       HT       0.417000       1.00800           0
     30680 TIP3     682      TIP3     OH2      OT      -0.834000       15.9994           0
     30681 TIP3     682      TIP3     H1       HT       0.417000       1.00800           0
     30682 TIP3     682      TIP3     H2       HT       0.417000       1.00800           0
     30683 TIP3     683      TIP3     OH2      OT      -0.834000       15.9994           0
     30684 TIP3     683      TIP3     H1       HT       0.417000       1.00800           0
     30685 TIP3     683      TIP3     H2       HT       0.417000       1.00800           0
     30686 TIP3     684      TIP3     OH2      OT      -0.834000       15.9994           0
     30687 TIP3     684      TIP3     H1       HT       0.417000       1.00800           0
     30688 TIP3     684      TIP3     H2       HT       0.417000       1.00800           0
     30689 TIP3     685      TIP3     OH2      OT      -0.834000       15.9994           0
     30690 TIP3     685      TIP3     H1       HT       0.417000       1.00800           0
     30691 TIP3     685      TIP3     H2       HT       0.417000       1.00800           0
     30692 TIP3     686      TIP3     OH2      OT      -0.834000       15.9994           0
     30693 TIP3     686      TIP3     H1       HT       0.417000       1.00800           0
     30694 TIP3     686      TIP3     H2       HT       0.417000       1.00800           0
     30695 TIP3     687      TIP3     OH2      OT      -0.834000       15.9994           0
     30696 TIP3     687      TIP3     H1       HT       0.417000       1.00800           0
     30697 TIP3     687      TIP3     H2       HT       0.417000       1.00800           0
     30698 TIP3     688      TIP3     OH2      OT      -0.834000       15.9994           0
     30699 TIP3     688      TIP3     H1       HT       0.417000       1.00800           0
     30700 TIP3     688      TIP3     H2       HT       0.417000       1.00800           0
     30701 TIP3     689      TIP3     OH2      OT      -0.834000       15.9994           0
     30702 TIP3     689      TIP3     H1       HT       0.417000       1.00800           0
     30703 TIP3     689      TIP3     H2       HT       0.417000       1.00800           0
     30704 TIP3     690      TIP3     OH2      OT      -0.834000       15.9994           0
     30705 TIP3     690      TIP3     H1       HT       0.417000       1.00800           0
     30706 TIP3     690      TIP3     H2       HT       0.417000       1.00800           0
     30707 TIP3     691      TIP3     OH2      OT      -0.834000       15.9994           0
     30708 TIP3     691      TIP3     H1       HT       0.417000       1.00800           0
     30709 TIP3     691      TIP3     H2       HT       0.417000       1.00800           0
     30710 TIP3     692      TIP3     OH2      OT      -0.834000       15.9994           0
     30711 TIP3     692      TIP3     H1       HT       0.417000       1.00800           0
     30712 TIP3     692      TIP3     H2       HT       0.417000       1.00800           0
     30713 TIP3     693      TIP3     OH2      OT      -0.834000       15.9994           0
     30714 TIP3     693      TIP3     H1       HT       0.417000       1.00800           0
     30715 TIP3     693      TIP3     H2       HT       0.417000       1.00800           0
     30716 TIP3     694      TIP3     OH2      OT      -0.834000       15.9994           0
     30717 TIP3     694      TIP3     H1       HT       0.417000       1.00800           0
     30718 TIP3     694      TIP3     H2       HT       0.417000       1.00800           0
     30719 TIP3     695      TIP3     OH2      OT      -0.834000       15.9994           0
     30720 TIP3     695      TIP3     H1       HT       0.417000       1.00800           0
     30721 TIP3     695      TIP3     H2       HT       0.417000       1.00800           0
     30722 TIP3     696      TIP3     OH2      OT      -0.834000       15.9994           0
     30723 TIP3     696      TIP3     H1       HT       0.417000       1.00800           0
     30724 TIP3     696      TIP3     H2       HT       0.417000       1.00800           0
     30725 TIP3     697      TIP3     OH2      OT      -0.834000       15.9994           0
     30726 TIP3     697      TIP3     H1       HT       0.417000       1.00800           0
     30727 TIP3     697      TIP3     H2       HT       0.417000       1.00800           0
     30728 TIP3     698      TIP3     OH2      OT      -0.834000       15.9994           0
     30729 TIP3     698      TIP3     H1       HT       0.417000       1.00800           0
     30730 TIP3     698      TIP3     H2       HT       0.417000       1.00800           0
     30731 TIP3     699      TIP3     OH2      OT      -0.834000       15.9994           0
     30732 TIP3     699      TIP3     H1       HT       0.417000       1.00800           0
     30733 TIP3     699      TIP3     H2       HT       0.417000       1.00800           0
     30734 TIP3     700      TIP3     OH2      OT      -0.834000       15.9994           0
     30735 TIP3     700      TIP3     H1       HT       0.417000       1.00800           0
     30736 TIP3     700      TIP3     H2       HT       0.417000       1.00800           0
     30737 TIP3     701      TIP3     OH2      OT      -0.834000       15.9994           0
     30738 TIP3     701      TIP3     H1       HT       0.417000       1.00800           0
     30739 TIP3     701      TIP3     H2       HT       0.417000       1.00800           0
     30740 TIP3     702      TIP3     OH2      OT      -0.834000       15.9994           0
     30741 TIP3     702      TIP3     H1       HT       0.417000       1.00800           0
     30742 TIP3     702      TIP3     H2       HT       0.417000       1.00800           0
     30743 TIP3     703      TIP3     OH2      OT      -0.834000       15.9994           0
     30744 TIP3     703      TIP3     H1       HT       0.417000       1.00800           0
     30745 TIP3     703      TIP3     H2       HT       0.417000       1.00800           0
     30746 TIP3     704      TIP3     OH2      OT      -0.834000       15.9994           0
     30747 TIP3     704      TIP3     H1       HT       0.417000       1.00800           0
     30748 TIP3     704      TIP3     H2       HT       0.417000       1.00800           0
     30749 TIP3     705      TIP3     OH2      OT      -0.834000       15.9994           0
     30750 TIP3     705      TIP3     H1       HT       0.417000       1.00800           0
     30751 TIP3     705      TIP3     H2       HT       0.417000       1.00800           0
     30752 TIP3     706      TIP3     OH2      OT      -0.834000       15.9994           0
     30753 TIP3     706      TIP3     H1       HT       0.417000       1.00800           0
     30754 TIP3     706      TIP3     H2       HT       0.417000       1.00800           0
     30755 TIP3     707      TIP3     OH2      OT      -0.834000       15.9994           0
     30756 TIP3     707      TIP3     H1       HT       0.417000       1.00800           0
     30757 TIP3     707      TIP3     H2       HT       0.417000       1.00800           0
     30758 TIP3     708      TIP3     OH2      OT      -0.834000       15.9994           0
     30759 TIP3     708      TIP3     H1       HT       0.417000       1.00800           0
     30760 TIP3     708      TIP3     H2       HT       0.417000       1.00800           0
     30761 TIP3     709      TIP3     OH2      OT      -0.834000       15.9994           0
     30762 TIP3     709      TIP3     H1       HT       0.417000       1.00800           0
     30763 TIP3     709      TIP3     H2       HT       0.417000       1.00800           0
     30764 TIP3     710      TIP3     OH2      OT      -0.834000       15.9994           0
     30765 TIP3     710      TIP3     H1       HT       0.417000       1.00800           0
     30766 TIP3     710      TIP3     H2       HT       0.417000       1.00800           0
     30767 TIP3     711      TIP3     OH2      OT      -0.834000       15.9994           0
     30768 TIP3     711      TIP3     H1       HT       0.417000       1.00800           0
     30769 TIP3     711      TIP3     H2       HT       0.417000       1.00800           0
     30770 TIP3     712      TIP3     OH2      OT      -0.834000       15.9994           0
     30771 TIP3     712      TIP3     H1       HT       0.417000       1.00800           0
     30772 TIP3     712      TIP3     H2       HT       0.417000       1.00800           0
     30773 TIP3     713      TIP3     OH2      OT      -0.834000       15.9994           0
     30774 TIP3     713      TIP3     H1       HT       0.417000       1.00800           0
     30775 TIP3     713      TIP3     H2       HT       0.417000       1.00800           0
     30776 TIP3     714      TIP3     OH2      OT      -0.834000       15.9994           0
     30777 TIP3     714      TIP3     H1       HT       0.417000       1.00800           0
     30778 TIP3     714      TIP3     H2       HT       0.417000       1.00800           0
     30779 TIP3     715      TIP3     OH2      OT      -0.834000       15.9994           0
     30780 TIP3     715      TIP3     H1       HT       0.417000       1.00800           0
     30781 TIP3     715      TIP3     H2       HT       0.417000       1.00800           0
     30782 TIP3     716      TIP3     OH2      OT      -0.834000       15.9994           0
     30783 TIP3     716      TIP3     H1       HT       0.417000       1.00800           0
     30784 TIP3     716      TIP3     H2       HT       0.417000       1.00800           0
     30785 TIP3     717      TIP3     OH2      OT      -0.834000       15.9994           0
     30786 TIP3     717      TIP3     H1       HT       0.417000       1.00800           0
     30787 TIP3     717      TIP3     H2       HT       0.417000       1.00800           0
     30788 TIP3     718      TIP3     OH2      OT      -0.834000       15.9994           0
     30789 TIP3     718      TIP3     H1       HT       0.417000       1.00800           0
     30790 TIP3     718      TIP3     H2       HT       0.417000       1.00800           0
     30791 TIP3     719      TIP3     OH2      OT      -0.834000       15.9994           0
     30792 TIP3     719      TIP3     H1       HT       0.417000       1.00800           0
     30793 TIP3     719      TIP3     H2       HT       0.417000       1.00800           0
     30794 TIP3     720      TIP3     OH2      OT      -0.834000       15.9994           0
     30795 TIP3     720      TIP3     H1       HT       0.417000       1.00800           0
     30796 TIP3     720      TIP3     H2       HT       0.417000       1.00800           0
     30797 TIP3     721      TIP3     OH2      OT      -0.834000       15.9994           0
     30798 TIP3     721      TIP3     H1       HT       0.417000       1.00800           0
     30799 TIP3     721      TIP3     H2       HT       0.417000       1.00800           0
     30800 TIP3     722      TIP3     OH2      OT      -0.834000       15.9994           0
     30801 TIP3     722      TIP3     H1       HT       0.417000       1.00800           0
     30802 TIP3     722      TIP3     H2       HT       0.417000       1.00800           0
     30803 TIP3     723      TIP3     OH2      OT      -0.834000       15.9994           0
     30804 TIP3     723      TIP3     H1       HT       0.417000       1.00800           0
     30805 TIP3     723      TIP3     H2       HT       0.417000       1.00800           0
     30806 TIP3     724      TIP3     OH2      OT      -0.834000       15.9994           0
     30807 TIP3     724      TIP3     H1       HT       0.417000       1.00800           0
     30808 TIP3     724      TIP3     H2       HT       0.417000       1.00800           0
     30809 TIP3     725      TIP3     OH2      OT      -0.834000       15.9994           0
     30810 TIP3     725      TIP3     H1       HT       0.417000       1.00800           0
     30811 TIP3     725      TIP3     H2       HT       0.417000       1.00800           0
     30812 TIP3     726      TIP3     OH2      OT      -0.834000       15.9994           0
     30813 TIP3     726      TIP3     H1       HT       0.417000       1.00800           0
     30814 TIP3     726      TIP3     H2       HT       0.417000       1.00800           0
     30815 TIP3     727      TIP3     OH2      OT      -0.834000       15.9994           0
     30816 TIP3     727      TIP3     H1       HT       0.417000       1.00800           0
     30817 TIP3     727      TIP3     H2       HT       0.417000       1.00800           0
     30818 TIP3     728      TIP3     OH2      OT      -0.834000       15.9994           0
     30819 TIP3     728      TIP3     H1       HT       0.417000       1.00800           0
     30820 TIP3     728      TIP3     H2       HT       0.417000       1.00800           0
     30821 TIP3     729      TIP3     OH2      OT      -0.834000       15.9994           0
     30822 TIP3     729      TIP3     H1       HT       0.417000       1.00800           0
     30823 TIP3     729      TIP3     H2       HT       0.417000       1.00800           0
     30824 TIP3     730      TIP3     OH2      OT      -0.834000       15.9994           0
     30825 TIP3     730      TIP3     H1       HT       0.417000       1.00800           0
     30826 TIP3     730      TIP3     H2       HT       0.417000       1.00800           0
     30827 TIP3     731      TIP3     OH2      OT      -0.834000       15.9994           0
     30828 TIP3     731      TIP3     H1       HT       0.417000       1.00800           0
     30829 TIP3     731      TIP3     H2       HT       0.417000       1.00800           0
     30830 TIP3     732      TIP3     OH2      OT      -0.834000       15.9994           0
     30831 TIP3     732      TIP3     H1       HT       0.417000       1.00800           0
     30832 TIP3     732      TIP3     H2       HT       0.417000       1.00800           0
     30833 TIP3     733      TIP3     OH2      OT      -0.834000       15.9994           0
     30834 TIP3     733      TIP3     H1       HT       0.417000       1.00800           0
     30835 TIP3     733      TIP3     H2       HT       0.417000       1.00800           0
     30836 TIP3     734      TIP3     OH2      OT      -0.834000       15.9994           0
     30837 TIP3     734      TIP3     H1       HT       0.417000       1.00800           0
     30838 TIP3     734      TIP3     H2       HT       0.417000       1.00800           0
     30839 TIP3     735      TIP3     OH2      OT      -0.834000       15.9994           0
     30840 TIP3     735      TIP3     H1       HT       0.417000       1.00800           0
     30841 TIP3     735      TIP3     H2       HT       0.417000       1.00800           0
     30842 TIP3     736      TIP3     OH2      OT      -0.834000       15.9994           0
     30843 TIP3     736      TIP3     H1       HT       0.417000       1.00800           0
     30844 TIP3     736      TIP3     H2       HT       0.417000       1.00800           0
     30845 TIP3     737      TIP3     OH2      OT      -0.834000       15.9994           0
     30846 TIP3     737      TIP3     H1       HT       0.417000       1.00800           0
     30847 TIP3     737      TIP3     H2       HT       0.417000       1.00800           0
     30848 TIP3     738      TIP3     OH2      OT      -0.834000       15.9994           0
     30849 TIP3     738      TIP3     H1       HT       0.417000       1.00800           0
     30850 TIP3     738      TIP3     H2       HT       0.417000       1.00800           0
     30851 TIP3     739      TIP3     OH2      OT      -0.834000       15.9994           0
     30852 TIP3     739      TIP3     H1       HT       0.417000       1.00800           0
     30853 TIP3     739      TIP3     H2       HT       0.417000       1.00800           0
     30854 TIP3     740      TIP3     OH2      OT      -0.834000       15.9994           0
     30855 TIP3     740      TIP3     H1       HT       0.417000       1.00800           0
     30856 TIP3     740      TIP3     H2       HT       0.417000       1.00800           0
     30857 TIP3     741      TIP3     OH2      OT      -0.834000       15.9994           0
     30858 TIP3     741      TIP3     H1       HT       0.417000       1.00800           0
     30859 TIP3     741      TIP3     H2       HT       0.417000       1.00800           0
     30860 TIP3     742      TIP3     OH2      OT      -0.834000       15.9994           0
     30861 TIP3     742      TIP3     H1       HT       0.417000       1.00800           0
     30862 TIP3     742      TIP3     H2       HT       0.417000       1.00800           0
     30863 TIP3     743      TIP3     OH2      OT      -0.834000       15.9994           0
     30864 TIP3     743      TIP3     H1       HT       0.417000       1.00800           0
     30865 TIP3     743      TIP3     H2       HT       0.417000       1.00800           0
     30866 TIP3     744      TIP3     OH2      OT      -0.834000       15.9994           0
     30867 TIP3     744      TIP3     H1       HT       0.417000       1.00800           0
     30868 TIP3     744      TIP3     H2       HT       0.417000       1.00800           0
     30869 TIP3     745      TIP3     OH2      OT      -0.834000       15.9994           0
     30870 TIP3     745      TIP3     H1       HT       0.417000       1.00800           0
     30871 TIP3     745      TIP3     H2       HT       0.417000       1.00800           0
     30872 TIP3     746      TIP3     OH2      OT      -0.834000       15.9994           0
     30873 TIP3     746      TIP3     H1       HT       0.417000       1.00800           0
     30874 TIP3     746      TIP3     H2       HT       0.417000       1.00800           0
     30875 TIP3     747      TIP3     OH2      OT      -0.834000       15.9994           0
     30876 TIP3     747      TIP3     H1       HT       0.417000       1.00800           0
     30877 TIP3     747      TIP3     H2       HT       0.417000       1.00800           0
     30878 TIP3     748      TIP3     OH2      OT      -0.834000       15.9994           0
     30879 TIP3     748      TIP3     H1       HT       0.417000       1.00800           0
     30880 TIP3     748      TIP3     H2       HT       0.417000       1.00800           0
     30881 TIP3     749      TIP3     OH2      OT      -0.834000       15.9994           0
     30882 TIP3     749      TIP3     H1       HT       0.417000       1.00800           0
     30883 TIP3     749      TIP3     H2       HT       0.417000       1.00800           0
     30884 TIP3     750      TIP3     OH2      OT      -0.834000       15.9994           0
     30885 TIP3     750      TIP3     H1       HT       0.417000       1.00800           0
     30886 TIP3     750      TIP3     H2       HT       0.417000       1.00800           0
     30887 TIP3     751      TIP3     OH2      OT      -0.834000       15.9994           0
     30888 TIP3     751      TIP3     H1       HT       0.417000       1.00800           0
     30889 TIP3     751      TIP3     H2       HT       0.417000       1.00800           0
     30890 TIP3     752      TIP3     OH2      OT      -0.834000       15.9994           0
     30891 TIP3     752      TIP3     H1       HT       0.417000       1.00800           0
     30892 TIP3     752      TIP3     H2       HT       0.417000       1.00800           0
     30893 TIP3     753      TIP3     OH2      OT      -0.834000       15.9994           0
     30894 TIP3     753      TIP3     H1       HT       0.417000       1.00800           0
     30895 TIP3     753      TIP3     H2       HT       0.417000       1.00800           0
     30896 TIP3     754      TIP3     OH2      OT      -0.834000       15.9994           0
     30897 TIP3     754      TIP3     H1       HT       0.417000       1.00800           0
     30898 TIP3     754      TIP3     H2       HT       0.417000       1.00800           0
     30899 TIP3     755      TIP3     OH2      OT      -0.834000       15.9994           0
     30900 TIP3     755      TIP3     H1       HT       0.417000       1.00800           0
     30901 TIP3     755      TIP3     H2       HT       0.417000       1.00800           0
     30902 TIP3     756      TIP3     OH2      OT      -0.834000       15.9994           0
     30903 TIP3     756      TIP3     H1       HT       0.417000       1.00800           0
     30904 TIP3     756      TIP3     H2       HT       0.417000       1.00800           0
     30905 TIP3     757      TIP3     OH2      OT      -0.834000       15.9994           0
     30906 TIP3     757      TIP3     H1       HT       0.417000       1.00800           0
     30907 TIP3     757      TIP3     H2       HT       0.417000       1.00800           0
     30908 TIP3     758      TIP3     OH2      OT      -0.834000       15.9994           0
     30909 TIP3     758      TIP3     H1       HT       0.417000       1.00800           0
     30910 TIP3     758      TIP3     H2       HT       0.417000       1.00800           0
     30911 TIP3     759      TIP3     OH2      OT      -0.834000       15.9994           0
     30912 TIP3     759      TIP3     H1       HT       0.417000       1.00800           0
     30913 TIP3     759      TIP3     H2       HT       0.417000       1.00800           0
     30914 TIP3     760      TIP3     OH2      OT      -0.834000       15.9994           0
     30915 TIP3     760      TIP3     H1       HT       0.417000       1.00800           0
     30916 TIP3     760      TIP3     H2       HT       0.417000       1.00800           0
     30917 TIP3     761      TIP3     OH2      OT      -0.834000       15.9994           0
     30918 TIP3     761      TIP3     H1       HT       0.417000       1.00800           0
     30919 TIP3     761      TIP3     H2       HT       0.417000       1.00800           0
     30920 TIP3     762      TIP3     OH2      OT      -0.834000       15.9994           0
     30921 TIP3     762      TIP3     H1       HT       0.417000       1.00800           0
     30922 TIP3     762      TIP3     H2       HT       0.417000       1.00800           0
     30923 TIP3     763      TIP3     OH2      OT      -0.834000       15.9994           0
     30924 TIP3     763      TIP3     H1       HT       0.417000       1.00800           0
     30925 TIP3     763      TIP3     H2       HT       0.417000       1.00800           0
     30926 TIP3     764      TIP3     OH2      OT      -0.834000       15.9994           0
     30927 TIP3     764      TIP3     H1       HT       0.417000       1.00800           0
     30928 TIP3     764      TIP3     H2       HT       0.417000       1.00800           0
     30929 TIP3     765      TIP3     OH2      OT      -0.834000       15.9994           0
     30930 TIP3     765      TIP3     H1       HT       0.417000       1.00800           0
     30931 TIP3     765      TIP3     H2       HT       0.417000       1.00800           0
     30932 TIP3     766      TIP3     OH2      OT      -0.834000       15.9994           0
     30933 TIP3     766      TIP3     H1       HT       0.417000       1.00800           0
     30934 TIP3     766      TIP3     H2       HT       0.417000       1.00800           0
     30935 TIP3     767      TIP3     OH2      OT      -0.834000       15.9994           0
     30936 TIP3     767      TIP3     H1       HT       0.417000       1.00800           0
     30937 TIP3     767      TIP3     H2       HT       0.417000       1.00800           0
     30938 TIP3     768      TIP3     OH2      OT      -0.834000       15.9994           0
     30939 TIP3     768      TIP3     H1       HT       0.417000       1.00800           0
     30940 TIP3     768      TIP3     H2       HT       0.417000       1.00800           0
     30941 TIP3     769      TIP3     OH2      OT      -0.834000       15.9994           0
     30942 TIP3     769      TIP3     H1       HT       0.417000       1.00800           0
     30943 TIP3     769      TIP3     H2       HT       0.417000       1.00800           0
     30944 TIP3     770      TIP3     OH2      OT      -0.834000       15.9994           0
     30945 TIP3     770      TIP3     H1       HT       0.417000       1.00800           0
     30946 TIP3     770      TIP3     H2       HT       0.417000       1.00800           0
     30947 TIP3     771      TIP3     OH2      OT      -0.834000       15.9994           0
     30948 TIP3     771      TIP3     H1       HT       0.417000       1.00800           0
     30949 TIP3     771      TIP3     H2       HT       0.417000       1.00800           0
     30950 TIP3     772      TIP3     OH2      OT      -0.834000       15.9994           0
     30951 TIP3     772      TIP3     H1       HT       0.417000       1.00800           0
     30952 TIP3     772      TIP3     H2       HT       0.417000       1.00800           0
     30953 TIP3     773      TIP3     OH2      OT      -0.834000       15.9994           0
     30954 TIP3     773      TIP3     H1       HT       0.417000       1.00800           0
     30955 TIP3     773      TIP3     H2       HT       0.417000       1.00800           0
     30956 TIP3     774      TIP3     OH2      OT      -0.834000       15.9994           0
     30957 TIP3     774      TIP3     H1       HT       0.417000       1.00800           0
     30958 TIP3     774      TIP3     H2       HT       0.417000       1.00800           0
     30959 TIP3     775      TIP3     OH2      OT      -0.834000       15.9994           0
     30960 TIP3     775      TIP3     H1       HT       0.417000       1.00800           0
     30961 TIP3     775      TIP3     H2       HT       0.417000       1.00800           0
     30962 TIP3     776      TIP3     OH2      OT      -0.834000       15.9994           0
     30963 TIP3     776      TIP3     H1       HT       0.417000       1.00800           0
     30964 TIP3     776      TIP3     H2       HT       0.417000       1.00800           0
     30965 TIP3     777      TIP3     OH2      OT      -0.834000       15.9994           0
     30966 TIP3     777      TIP3     H1       HT       0.417000       1.00800           0
     30967 TIP3     777      TIP3     H2       HT       0.417000       1.00800           0
     30968 TIP3     778      TIP3     OH2      OT      -0.834000       15.9994           0
     30969 TIP3     778      TIP3     H1       HT       0.417000       1.00800           0
     30970 TIP3     778      TIP3     H2       HT       0.417000       1.00800           0
     30971 TIP3     779      TIP3     OH2      OT      -0.834000       15.9994           0
     30972 TIP3     779      TIP3     H1       HT       0.417000       1.00800           0
     30973 TIP3     779      TIP3     H2       HT       0.417000       1.00800           0
     30974 TIP3     780      TIP3     OH2      OT      -0.834000       15.9994           0
     30975 TIP3     780      TIP3     H1       HT       0.417000       1.00800           0
     30976 TIP3     780      TIP3     H2       HT       0.417000       1.00800           0
     30977 TIP3     781      TIP3     OH2      OT      -0.834000       15.9994           0
     30978 TIP3     781      TIP3     H1       HT       0.417000       1.00800           0
     30979 TIP3     781      TIP3     H2       HT       0.417000       1.00800           0
     30980 TIP3     782      TIP3     OH2      OT      -0.834000       15.9994           0
     30981 TIP3     782      TIP3     H1       HT       0.417000       1.00800           0
     30982 TIP3     782      TIP3     H2       HT       0.417000       1.00800           0
     30983 TIP3     783      TIP3     OH2      OT      -0.834000       15.9994           0
     30984 TIP3     783      TIP3     H1       HT       0.417000       1.00800           0
     30985 TIP3     783      TIP3     H2       HT       0.417000       1.00800           0
     30986 TIP3     784      TIP3     OH2      OT      -0.834000       15.9994           0
     30987 TIP3     784      TIP3     H1       HT       0.417000       1.00800           0
     30988 TIP3     784      TIP3     H2       HT       0.417000       1.00800           0
     30989 TIP3     785      TIP3     OH2      OT      -0.834000       15.9994           0
     30990 TIP3     785      TIP3     H1       HT       0.417000       1.00800           0
     30991 TIP3     785      TIP3     H2       HT       0.417000       1.00800           0
     30992 TIP3     786      TIP3     OH2      OT      -0.834000       15.9994           0
     30993 TIP3     786      TIP3     H1       HT       0.417000       1.00800           0
     30994 TIP3     786      TIP3     H2       HT       0.417000       1.00800           0
     30995 TIP3     787      TIP3     OH2      OT      -0.834000       15.9994           0
     30996 TIP3     787      TIP3     H1       HT       0.417000       1.00800           0
     30997 TIP3     787      TIP3     H2       HT       0.417000       1.00800           0
     30998 TIP3     788      TIP3     OH2      OT      -0.834000       15.9994           0
     30999 TIP3     788      TIP3     H1       HT       0.417000       1.00800           0
     31000 TIP3     788      TIP3     H2       HT       0.417000       1.00800           0
     31001 TIP3     789      TIP3     OH2      OT      -0.834000       15.9994           0
     31002 TIP3     789      TIP3     H1       HT       0.417000       1.00800           0
     31003 TIP3     789      TIP3     H2       HT       0.417000       1.00800           0
     31004 TIP3     790      TIP3     OH2      OT      -0.834000       15.9994           0
     31005 TIP3     790      TIP3     H1       HT       0.417000       1.00800           0
     31006 TIP3     790      TIP3     H2       HT       0.417000       1.00800           0
     31007 TIP3     791      TIP3     OH2      OT      -0.834000       15.9994           0
     31008 TIP3     791      TIP3     H1       HT       0.417000       1.00800           0
     31009 TIP3     791      TIP3     H2       HT       0.417000       1.00800           0
     31010 TIP3     792      TIP3     OH2      OT      -0.834000       15.9994           0
     31011 TIP3     792      TIP3     H1       HT       0.417000       1.00800           0
     31012 TIP3     792      TIP3     H2       HT       0.417000       1.00800           0
     31013 TIP3     793      TIP3     OH2      OT      -0.834000       15.9994           0
     31014 TIP3     793      TIP3     H1       HT       0.417000       1.00800           0
     31015 TIP3     793      TIP3     H2       HT       0.417000       1.00800           0
     31016 TIP3     794      TIP3     OH2      OT      -0.834000       15.9994           0
     31017 TIP3     794      TIP3     H1       HT       0.417000       1.00800           0
     31018 TIP3     794      TIP3     H2       HT       0.417000       1.00800           0
     31019 TIP3     795      TIP3     OH2      OT      -0.834000       15.9994           0
     31020 TIP3     795      TIP3     H1       HT       0.417000       1.00800           0
     31021 TIP3     795      TIP3     H2       HT       0.417000       1.00800           0
     31022 TIP3     796      TIP3     OH2      OT      -0.834000       15.9994           0
     31023 TIP3     796      TIP3     H1       HT       0.417000       1.00800           0
     31024 TIP3     796      TIP3     H2       HT       0.417000       1.00800           0
     31025 TIP3     797      TIP3     OH2      OT      -0.834000       15.9994           0
     31026 TIP3     797      TIP3     H1       HT       0.417000       1.00800           0
     31027 TIP3     797      TIP3     H2       HT       0.417000       1.00800           0
     31028 TIP3     798      TIP3     OH2      OT      -0.834000       15.9994           0
     31029 TIP3     798      TIP3     H1       HT       0.417000       1.00800           0
     31030 TIP3     798      TIP3     H2       HT       0.417000       1.00800           0
     31031 TIP3     799      TIP3     OH2      OT      -0.834000       15.9994           0
     31032 TIP3     799      TIP3     H1       HT       0.417000       1.00800           0
     31033 TIP3     799      TIP3     H2       HT       0.417000       1.00800           0
     31034 TIP3     800      TIP3     OH2      OT      -0.834000       15.9994           0
     31035 TIP3     800      TIP3     H1       HT       0.417000       1.00800           0
     31036 TIP3     800      TIP3     H2       HT       0.417000       1.00800           0
     31037 TIP3     801      TIP3     OH2      OT      -0.834000       15.9994           0
     31038 TIP3     801      TIP3     H1       HT       0.417000       1.00800           0
     31039 TIP3     801      TIP3     H2       HT       0.417000       1.00800           0
     31040 TIP3     802      TIP3     OH2      OT      -0.834000       15.9994           0
     31041 TIP3     802      TIP3     H1       HT       0.417000       1.00800           0
     31042 TIP3     802      TIP3     H2       HT       0.417000       1.00800           0
     31043 TIP3     803      TIP3     OH2      OT      -0.834000       15.9994           0
     31044 TIP3     803      TIP3     H1       HT       0.417000       1.00800           0
     31045 TIP3     803      TIP3     H2       HT       0.417000       1.00800           0
     31046 TIP3     804      TIP3     OH2      OT      -0.834000       15.9994           0
     31047 TIP3     804      TIP3     H1       HT       0.417000       1.00800           0
     31048 TIP3     804      TIP3     H2       HT       0.417000       1.00800           0
     31049 TIP3     805      TIP3     OH2      OT      -0.834000       15.9994           0
     31050 TIP3     805      TIP3     H1       HT       0.417000       1.00800           0
     31051 TIP3     805      TIP3     H2       HT       0.417000       1.00800           0
     31052 TIP3     806      TIP3     OH2      OT      -0.834000       15.9994           0
     31053 TIP3     806      TIP3     H1       HT       0.417000       1.00800           0
     31054 TIP3     806      TIP3     H2       HT       0.417000       1.00800           0
     31055 TIP3     807      TIP3     OH2      OT      -0.834000       15.9994           0
     31056 TIP3     807      TIP3     H1       HT       0.417000       1.00800           0
     31057 TIP3     807      TIP3     H2       HT       0.417000       1.00800           0
     31058 TIP3     808      TIP3     OH2      OT      -0.834000       15.9994           0
     31059 TIP3     808      TIP3     H1       HT       0.417000       1.00800           0
     31060 TIP3     808      TIP3     H2       HT       0.417000       1.00800           0
     31061 TIP3     809      TIP3     OH2      OT      -0.834000       15.9994           0
     31062 TIP3     809      TIP3     H1       HT       0.417000       1.00800           0
     31063 TIP3     809      TIP3     H2       HT       0.417000       1.00800           0
     31064 TIP3     810      TIP3     OH2      OT      -0.834000       15.9994           0
     31065 TIP3     810      TIP3     H1       HT       0.417000       1.00800           0
     31066 TIP3     810      TIP3     H2       HT       0.417000       1.00800           0
     31067 TIP3     811      TIP3     OH2      OT      -0.834000       15.9994           0
     31068 TIP3     811      TIP3     H1       HT       0.417000       1.00800           0
     31069 TIP3     811      TIP3     H2       HT       0.417000       1.00800           0
     31070 TIP3     812      TIP3     OH2      OT      -0.834000       15.9994           0
     31071 TIP3     812      TIP3     H1       HT       0.417000       1.00800           0
     31072 TIP3     812      TIP3     H2       HT       0.417000       1.00800           0
     31073 TIP3     813      TIP3     OH2      OT      -0.834000       15.9994           0
     31074 TIP3     813      TIP3     H1       HT       0.417000       1.00800           0
     31075 TIP3     813      TIP3     H2       HT       0.417000       1.00800           0
     31076 TIP3     814      TIP3     OH2      OT      -0.834000       15.9994           0
     31077 TIP3     814      TIP3     H1       HT       0.417000       1.00800           0
     31078 TIP3     814      TIP3     H2       HT       0.417000       1.00800           0
     31079 TIP3     815      TIP3     OH2      OT      -0.834000       15.9994           0
     31080 TIP3     815      TIP3     H1       HT       0.417000       1.00800           0
     31081 TIP3     815      TIP3     H2       HT       0.417000       1.00800           0
     31082 TIP3     816      TIP3     OH2      OT      -0.834000       15.9994           0
     31083 TIP3     816      TIP3     H1       HT       0.417000       1.00800           0
     31084 TIP3     816      TIP3     H2       HT       0.417000       1.00800           0
     31085 TIP3     817      TIP3     OH2      OT      -0.834000       15.9994           0
     31086 TIP3     817      TIP3     H1       HT       0.417000       1.00800           0
     31087 TIP3     817      TIP3     H2       HT       0.417000       1.00800           0
     31088 TIP3     818      TIP3     OH2      OT      -0.834000       15.9994           0
     31089 TIP3     818      TIP3     H1       HT       0.417000       1.00800           0
     31090 TIP3     818      TIP3     H2       HT       0.417000       1.00800           0
     31091 TIP3     819      TIP3     OH2      OT      -0.834000       15.9994           0
     31092 TIP3     819      TIP3     H1       HT       0.417000       1.00800           0
     31093 TIP3     819      TIP3     H2       HT       0.417000       1.00800           0
     31094 TIP3     820      TIP3     OH2      OT      -0.834000       15.9994           0
     31095 TIP3     820      TIP3     H1       HT       0.417000       1.00800           0
     31096 TIP3     820      TIP3     H2       HT       0.417000       1.00800           0
     31097 TIP3     821      TIP3     OH2      OT      -0.834000       15.9994           0
     31098 TIP3     821      TIP3     H1       HT       0.417000       1.00800           0
     31099 TIP3     821      TIP3     H2       HT       0.417000       1.00800           0
     31100 TIP3     822      TIP3     OH2      OT      -0.834000       15.9994           0
     31101 TIP3     822      TIP3     H1       HT       0.417000       1.00800           0
     31102 TIP3     822      TIP3     H2       HT       0.417000       1.00800           0
     31103 TIP3     823      TIP3     OH2      OT      -0.834000       15.9994           0
     31104 TIP3     823      TIP3     H1       HT       0.417000       1.00800           0
     31105 TIP3     823      TIP3     H2       HT       0.417000       1.00800           0
     31106 TIP3     824      TIP3     OH2      OT      -0.834000       15.9994           0
     31107 TIP3     824      TIP3     H1       HT       0.417000       1.00800           0
     31108 TIP3     824      TIP3     H2       HT       0.417000       1.00800           0
     31109 TIP3     825      TIP3     OH2      OT      -0.834000       15.9994           0
     31110 TIP3     825      TIP3     H1       HT       0.417000       1.00800           0
     31111 TIP3     825      TIP3     H2       HT       0.417000       1.00800           0
     31112 TIP3     826      TIP3     OH2      OT      -0.834000       15.9994           0
     31113 TIP3     826      TIP3     H1       HT       0.417000       1.00800           0
     31114 TIP3     826      TIP3     H2       HT       0.417000       1.00800           0
     31115 TIP3     827      TIP3     OH2      OT      -0.834000       15.9994           0
     31116 TIP3     827      TIP3     H1       HT       0.417000       1.00800           0
     31117 TIP3     827      TIP3     H2       HT       0.417000       1.00800           0
     31118 TIP3     828      TIP3     OH2      OT      -0.834000       15.9994           0
     31119 TIP3     828      TIP3     H1       HT       0.417000       1.00800           0
     31120 TIP3     828      TIP3     H2       HT       0.417000       1.00800           0
     31121 TIP3     829      TIP3     OH2      OT      -0.834000       15.9994           0
     31122 TIP3     829      TIP3     H1       HT       0.417000       1.00800           0
     31123 TIP3     829      TIP3     H2       HT       0.417000       1.00800           0
     31124 TIP3     830      TIP3     OH2      OT      -0.834000       15.9994           0
     31125 TIP3     830      TIP3     H1       HT       0.417000       1.00800           0
     31126 TIP3     830      TIP3     H2       HT       0.417000       1.00800           0
     31127 TIP3     831      TIP3     OH2      OT      -0.834000       15.9994           0
     31128 TIP3     831      TIP3     H1       HT       0.417000       1.00800           0
     31129 TIP3     831      TIP3     H2       HT       0.417000       1.00800           0
     31130 TIP3     832      TIP3     OH2      OT      -0.834000       15.9994           0
     31131 TIP3     832      TIP3     H1       HT       0.417000       1.00800           0
     31132 TIP3     832      TIP3     H2       HT       0.417000       1.00800           0
     31133 TIP3     833      TIP3     OH2      OT      -0.834000       15.9994           0
     31134 TIP3     833      TIP3     H1       HT       0.417000       1.00800           0
     31135 TIP3     833      TIP3     H2       HT       0.417000       1.00800           0
     31136 TIP3     834      TIP3     OH2      OT      -0.834000       15.9994           0
     31137 TIP3     834      TIP3     H1       HT       0.417000       1.00800           0
     31138 TIP3     834      TIP3     H2       HT       0.417000       1.00800           0
     31139 TIP3     835      TIP3     OH2      OT      -0.834000       15.9994           0
     31140 TIP3     835      TIP3     H1       HT       0.417000       1.00800           0
     31141 TIP3     835      TIP3     H2       HT       0.417000       1.00800           0
     31142 TIP3     836      TIP3     OH2      OT      -0.834000       15.9994           0
     31143 TIP3     836      TIP3     H1       HT       0.417000       1.00800           0
     31144 TIP3     836      TIP3     H2       HT       0.417000       1.00800           0
     31145 TIP3     837      TIP3     OH2      OT      -0.834000       15.9994           0
     31146 TIP3     837      TIP3     H1       HT       0.417000       1.00800           0
     31147 TIP3     837      TIP3     H2       HT       0.417000       1.00800           0
     31148 TIP3     838      TIP3     OH2      OT      -0.834000       15.9994           0
     31149 TIP3     838      TIP3     H1       HT       0.417000       1.00800           0
     31150 TIP3     838      TIP3     H2       HT       0.417000       1.00800           0
     31151 TIP3     839      TIP3     OH2      OT      -0.834000       15.9994           0
     31152 TIP3     839      TIP3     H1       HT       0.417000       1.00800           0
     31153 TIP3     839      TIP3     H2       HT       0.417000       1.00800           0
     31154 TIP3     840      TIP3     OH2      OT      -0.834000       15.9994           0
     31155 TIP3     840      TIP3     H1       HT       0.417000       1.00800           0
     31156 TIP3     840      TIP3     H2       HT       0.417000       1.00800           0
     31157 TIP3     841      TIP3     OH2      OT      -0.834000       15.9994           0
     31158 TIP3     841      TIP3     H1       HT       0.417000       1.00800           0
     31159 TIP3     841      TIP3     H2       HT       0.417000       1.00800           0
     31160 TIP3     842      TIP3     OH2      OT      -0.834000       15.9994           0
     31161 TIP3     842      TIP3     H1       HT       0.417000       1.00800           0
     31162 TIP3     842      TIP3     H2       HT       0.417000       1.00800           0
     31163 TIP3     843      TIP3     OH2      OT      -0.834000       15.9994           0
     31164 TIP3     843      TIP3     H1       HT       0.417000       1.00800           0
     31165 TIP3     843      TIP3     H2       HT       0.417000       1.00800           0
     31166 TIP3     844      TIP3     OH2      OT      -0.834000       15.9994           0
     31167 TIP3     844      TIP3     H1       HT       0.417000       1.00800           0
     31168 TIP3     844      TIP3     H2       HT       0.417000       1.00800           0
     31169 TIP3     845      TIP3     OH2      OT      -0.834000       15.9994           0
     31170 TIP3     845      TIP3     H1       HT       0.417000       1.00800           0
     31171 TIP3     845      TIP3     H2       HT       0.417000       1.00800           0
     31172 TIP3     846      TIP3     OH2      OT      -0.834000       15.9994           0
     31173 TIP3     846      TIP3     H1       HT       0.417000       1.00800           0
     31174 TIP3     846      TIP3     H2       HT       0.417000       1.00800           0
     31175 TIP3     847      TIP3     OH2      OT      -0.834000       15.9994           0
     31176 TIP3     847      TIP3     H1       HT       0.417000       1.00800           0
     31177 TIP3     847      TIP3     H2       HT       0.417000       1.00800           0
     31178 TIP3     848      TIP3     OH2      OT      -0.834000       15.9994           0
     31179 TIP3     848      TIP3     H1       HT       0.417000       1.00800           0
     31180 TIP3     848      TIP3     H2       HT       0.417000       1.00800           0
     31181 TIP3     849      TIP3     OH2      OT      -0.834000       15.9994           0
     31182 TIP3     849      TIP3     H1       HT       0.417000       1.00800           0
     31183 TIP3     849      TIP3     H2       HT       0.417000       1.00800           0
     31184 TIP3     850      TIP3     OH2      OT      -0.834000       15.9994           0
     31185 TIP3     850      TIP3     H1       HT       0.417000       1.00800           0
     31186 TIP3     850      TIP3     H2       HT       0.417000       1.00800           0
     31187 TIP3     851      TIP3     OH2      OT      -0.834000       15.9994           0
     31188 TIP3     851      TIP3     H1       HT       0.417000       1.00800           0
     31189 TIP3     851      TIP3     H2       HT       0.417000       1.00800           0
     31190 TIP3     852      TIP3     OH2      OT      -0.834000       15.9994           0
     31191 TIP3     852      TIP3     H1       HT       0.417000       1.00800           0
     31192 TIP3     852      TIP3     H2       HT       0.417000       1.00800           0
     31193 TIP3     853      TIP3     OH2      OT      -0.834000       15.9994           0
     31194 TIP3     853      TIP3     H1       HT       0.417000       1.00800           0
     31195 TIP3     853      TIP3     H2       HT       0.417000       1.00800           0
     31196 TIP3     854      TIP3     OH2      OT      -0.834000       15.9994           0
     31197 TIP3     854      TIP3     H1       HT       0.417000       1.00800           0
     31198 TIP3     854      TIP3     H2       HT       0.417000       1.00800           0
     31199 TIP3     855      TIP3     OH2      OT      -0.834000       15.9994           0
     31200 TIP3     855      TIP3     H1       HT       0.417000       1.00800           0
     31201 TIP3     855      TIP3     H2       HT       0.417000       1.00800           0
     31202 TIP3     856      TIP3     OH2      OT      -0.834000       15.9994           0
     31203 TIP3     856      TIP3     H1       HT       0.417000       1.00800           0
     31204 TIP3     856      TIP3     H2       HT       0.417000       1.00800           0
     31205 TIP3     857      TIP3     OH2      OT      -0.834000       15.9994           0
     31206 TIP3     857      TIP3     H1       HT       0.417000       1.00800           0
     31207 TIP3     857      TIP3     H2       HT       0.417000       1.00800           0
     31208 TIP3     858      TIP3     OH2      OT      -0.834000       15.9994           0
     31209 TIP3     858      TIP3     H1       HT       0.417000       1.00800           0
     31210 TIP3     858      TIP3     H2       HT       0.417000       1.00800           0
     31211 TIP3     859      TIP3     OH2      OT      -0.834000       15.9994           0
     31212 TIP3     859      TIP3     H1       HT       0.417000       1.00800           0
     31213 TIP3     859      TIP3     H2       HT       0.417000       1.00800           0
     31214 TIP3     860      TIP3     OH2      OT      -0.834000       15.9994           0
     31215 TIP3     860      TIP3     H1       HT       0.417000       1.00800           0
     31216 TIP3     860      TIP3     H2       HT       0.417000       1.00800           0
     31217 TIP3     861      TIP3     OH2      OT      -0.834000       15.9994           0
     31218 TIP3     861      TIP3     H1       HT       0.417000       1.00800           0
     31219 TIP3     861      TIP3     H2       HT       0.417000       1.00800           0
     31220 TIP3     862      TIP3     OH2      OT      -0.834000       15.9994           0
     31221 TIP3     862      TIP3     H1       HT       0.417000       1.00800           0
     31222 TIP3     862      TIP3     H2       HT       0.417000       1.00800           0
     31223 TIP3     863      TIP3     OH2      OT      -0.834000       15.9994           0
     31224 TIP3     863      TIP3     H1       HT       0.417000       1.00800           0
     31225 TIP3     863      TIP3     H2       HT       0.417000       1.00800           0
     31226 TIP3     864      TIP3     OH2      OT      -0.834000       15.9994           0
     31227 TIP3     864      TIP3     H1       HT       0.417000       1.00800           0
     31228 TIP3     864      TIP3     H2       HT       0.417000       1.00800           0
     31229 TIP3     865      TIP3     OH2      OT      -0.834000       15.9994           0
     31230 TIP3     865      TIP3     H1       HT       0.417000       1.00800           0
     31231 TIP3     865      TIP3     H2       HT       0.417000       1.00800           0
     31232 TIP3     866      TIP3     OH2      OT      -0.834000       15.9994           0
     31233 TIP3     866      TIP3     H1       HT       0.417000       1.00800           0
     31234 TIP3     866      TIP3     H2       HT       0.417000       1.00800           0
     31235 TIP3     867      TIP3     OH2      OT      -0.834000       15.9994           0
     31236 TIP3     867      TIP3     H1       HT       0.417000       1.00800           0
     31237 TIP3     867      TIP3     H2       HT       0.417000       1.00800           0
     31238 TIP3     868      TIP3     OH2      OT      -0.834000       15.9994           0
     31239 TIP3     868      TIP3     H1       HT       0.417000       1.00800           0
     31240 TIP3     868      TIP3     H2       HT       0.417000       1.00800           0
     31241 TIP3     869      TIP3     OH2      OT      -0.834000       15.9994           0
     31242 TIP3     869      TIP3     H1       HT       0.417000       1.00800           0
     31243 TIP3     869      TIP3     H2       HT       0.417000       1.00800           0
     31244 TIP3     870      TIP3     OH2      OT      -0.834000       15.9994           0
     31245 TIP3     870      TIP3     H1       HT       0.417000       1.00800           0
     31246 TIP3     870      TIP3     H2       HT       0.417000       1.00800           0
     31247 TIP3     871      TIP3     OH2      OT      -0.834000       15.9994           0
     31248 TIP3     871      TIP3     H1       HT       0.417000       1.00800           0
     31249 TIP3     871      TIP3     H2       HT       0.417000       1.00800           0
     31250 TIP3     872      TIP3     OH2      OT      -0.834000       15.9994           0
     31251 TIP3     872      TIP3     H1       HT       0.417000       1.00800           0
     31252 TIP3     872      TIP3     H2       HT       0.417000       1.00800           0
     31253 TIP3     873      TIP3     OH2      OT      -0.834000       15.9994           0
     31254 TIP3     873      TIP3     H1       HT       0.417000       1.00800           0
     31255 TIP3     873      TIP3     H2       HT       0.417000       1.00800           0
     31256 TIP3     874      TIP3     OH2      OT      -0.834000       15.9994           0
     31257 TIP3     874      TIP3     H1       HT       0.417000       1.00800           0
     31258 TIP3     874      TIP3     H2       HT       0.417000       1.00800           0
     31259 TIP3     875      TIP3     OH2      OT      -0.834000       15.9994           0
     31260 TIP3     875      TIP3     H1       HT       0.417000       1.00800           0
     31261 TIP3     875      TIP3     H2       HT       0.417000       1.00800           0
     31262 TIP3     876      TIP3     OH2      OT      -0.834000       15.9994           0
     31263 TIP3     876      TIP3     H1       HT       0.417000       1.00800           0
     31264 TIP3     876      TIP3     H2       HT       0.417000       1.00800           0
     31265 TIP3     877      TIP3     OH2      OT      -0.834000       15.9994           0
     31266 TIP3     877      TIP3     H1       HT       0.417000       1.00800           0
     31267 TIP3     877      TIP3     H2       HT       0.417000       1.00800           0
     31268 TIP3     878      TIP3     OH2      OT      -0.834000       15.9994           0
     31269 TIP3     878      TIP3     H1       HT       0.417000       1.00800           0
     31270 TIP3     878      TIP3     H2       HT       0.417000       1.00800           0
     31271 TIP3     879      TIP3     OH2      OT      -0.834000       15.9994           0
     31272 TIP3     879      TIP3     H1       HT       0.417000       1.00800           0
     31273 TIP3     879      TIP3     H2       HT       0.417000       1.00800           0
     31274 TIP3     880      TIP3     OH2      OT      -0.834000       15.9994           0
     31275 TIP3     880      TIP3     H1       HT       0.417000       1.00800           0
     31276 TIP3     880      TIP3     H2       HT       0.417000       1.00800           0
     31277 TIP3     881      TIP3     OH2      OT      -0.834000       15.9994           0
     31278 TIP3     881      TIP3     H1       HT       0.417000       1.00800           0
     31279 TIP3     881      TIP3     H2       HT       0.417000       1.00800           0
     31280 TIP3     882      TIP3     OH2      OT      -0.834000       15.9994           0
     31281 TIP3     882      TIP3     H1       HT       0.417000       1.00800           0
     31282 TIP3     882      TIP3     H2       HT       0.417000       1.00800           0
     31283 TIP3     883      TIP3     OH2      OT      -0.834000       15.9994           0
     31284 TIP3     883      TIP3     H1       HT       0.417000       1.00800           0
     31285 TIP3     883      TIP3     H2       HT       0.417000       1.00800           0
     31286 TIP3     884      TIP3     OH2      OT      -0.834000       15.9994           0
     31287 TIP3     884      TIP3     H1       HT       0.417000       1.00800           0
     31288 TIP3     884      TIP3     H2       HT       0.417000       1.00800           0
     31289 TIP3     885      TIP3     OH2      OT      -0.834000       15.9994           0
     31290 TIP3     885      TIP3     H1       HT       0.417000       1.00800           0
     31291 TIP3     885      TIP3     H2       HT       0.417000       1.00800           0
     31292 TIP3     886      TIP3     OH2      OT      -0.834000       15.9994           0
     31293 TIP3     886      TIP3     H1       HT       0.417000       1.00800           0
     31294 TIP3     886      TIP3     H2       HT       0.417000       1.00800           0
     31295 TIP3     887      TIP3     OH2      OT      -0.834000       15.9994           0
     31296 TIP3     887      TIP3     H1       HT       0.417000       1.00800           0
     31297 TIP3     887      TIP3     H2       HT       0.417000       1.00800           0
     31298 TIP3     888      TIP3     OH2      OT      -0.834000       15.9994           0
     31299 TIP3     888      TIP3     H1       HT       0.417000       1.00800           0
     31300 TIP3     888      TIP3     H2       HT       0.417000       1.00800           0
     31301 TIP3     889      TIP3     OH2      OT      -0.834000       15.9994           0
     31302 TIP3     889      TIP3     H1       HT       0.417000       1.00800           0
     31303 TIP3     889      TIP3     H2       HT       0.417000       1.00800           0
     31304 TIP3     890      TIP3     OH2      OT      -0.834000       15.9994           0
     31305 TIP3     890      TIP3     H1       HT       0.417000       1.00800           0
     31306 TIP3     890      TIP3     H2       HT       0.417000       1.00800           0
     31307 TIP3     891      TIP3     OH2      OT      -0.834000       15.9994           0
     31308 TIP3     891      TIP3     H1       HT       0.417000       1.00800           0
     31309 TIP3     891      TIP3     H2       HT       0.417000       1.00800           0
     31310 TIP3     892      TIP3     OH2      OT      -0.834000       15.9994           0
     31311 TIP3     892      TIP3     H1       HT       0.417000       1.00800           0
     31312 TIP3     892      TIP3     H2       HT       0.417000       1.00800           0
     31313 TIP3     893      TIP3     OH2      OT      -0.834000       15.9994           0
     31314 TIP3     893      TIP3     H1       HT       0.417000       1.00800           0
     31315 TIP3     893      TIP3     H2       HT       0.417000       1.00800           0
     31316 TIP3     894      TIP3     OH2      OT      -0.834000       15.9994           0
     31317 TIP3     894      TIP3     H1       HT       0.417000       1.00800           0
     31318 TIP3     894      TIP3     H2       HT       0.417000       1.00800           0
     31319 TIP3     895      TIP3     OH2      OT      -0.834000       15.9994           0
     31320 TIP3     895      TIP3     H1       HT       0.417000       1.00800           0
     31321 TIP3     895      TIP3     H2       HT       0.417000       1.00800           0
     31322 TIP3     896      TIP3     OH2      OT      -0.834000       15.9994           0
     31323 TIP3     896      TIP3     H1       HT       0.417000       1.00800           0
     31324 TIP3     896      TIP3     H2       HT       0.417000       1.00800           0
     31325 TIP3     897      TIP3     OH2      OT      -0.834000       15.9994           0
     31326 TIP3     897      TIP3     H1       HT       0.417000       1.00800           0
     31327 TIP3     897      TIP3     H2       HT       0.417000       1.00800           0
     31328 TIP3     898      TIP3     OH2      OT      -0.834000       15.9994           0
     31329 TIP3     898      TIP3     H1       HT       0.417000       1.00800           0
     31330 TIP3     898      TIP3     H2       HT       0.417000       1.00800           0
     31331 TIP3     899      TIP3     OH2      OT      -0.834000       15.9994           0
     31332 TIP3     899      TIP3     H1       HT       0.417000       1.00800           0
     31333 TIP3     899      TIP3     H2       HT       0.417000       1.00800           0
     31334 TIP3     900      TIP3     OH2      OT      -0.834000       15.9994           0
     31335 TIP3     900      TIP3     H1       HT       0.417000       1.00800           0
     31336 TIP3     900      TIP3     H2       HT       0.417000       1.00800           0
     31337 TIP3     901      TIP3     OH2      OT      -0.834000       15.9994           0
     31338 TIP3     901      TIP3     H1       HT       0.417000       1.00800           0
     31339 TIP3     901      TIP3     H2       HT       0.417000       1.00800           0
     31340 TIP3     902      TIP3     OH2      OT      -0.834000       15.9994           0
     31341 TIP3     902      TIP3     H1       HT       0.417000       1.00800           0
     31342 TIP3     902      TIP3     H2       HT       0.417000       1.00800           0
     31343 TIP3     903      TIP3     OH2      OT      -0.834000       15.9994           0
     31344 TIP3     903      TIP3     H1       HT       0.417000       1.00800           0
     31345 TIP3     903      TIP3     H2       HT       0.417000       1.00800           0
     31346 TIP3     904      TIP3     OH2      OT      -0.834000       15.9994           0
     31347 TIP3     904      TIP3     H1       HT       0.417000       1.00800           0
     31348 TIP3     904      TIP3     H2       HT       0.417000       1.00800           0
     31349 TIP3     905      TIP3     OH2      OT      -0.834000       15.9994           0
     31350 TIP3     905      TIP3     H1       HT       0.417000       1.00800           0
     31351 TIP3     905      TIP3     H2       HT       0.417000       1.00800           0
     31352 TIP3     906      TIP3     OH2      OT      -0.834000       15.9994           0
     31353 TIP3     906      TIP3     H1       HT       0.417000       1.00800           0
     31354 TIP3     906      TIP3     H2       HT       0.417000       1.00800           0
     31355 TIP3     907      TIP3     OH2      OT      -0.834000       15.9994           0
     31356 TIP3     907      TIP3     H1       HT       0.417000       1.00800           0
     31357 TIP3     907      TIP3     H2       HT       0.417000       1.00800           0
     31358 TIP3     908      TIP3     OH2      OT      -0.834000       15.9994           0
     31359 TIP3     908      TIP3     H1       HT       0.417000       1.00800           0
     31360 TIP3     908      TIP3     H2       HT       0.417000       1.00800           0
     31361 TIP3     909      TIP3     OH2      OT      -0.834000       15.9994           0
     31362 TIP3     909      TIP3     H1       HT       0.417000       1.00800           0
     31363 TIP3     909      TIP3     H2       HT       0.417000       1.00800           0
     31364 TIP3     910      TIP3     OH2      OT      -0.834000       15.9994           0
     31365 TIP3     910      TIP3     H1       HT       0.417000       1.00800           0
     31366 TIP3     910      TIP3     H2       HT       0.417000       1.00800           0
     31367 TIP3     911      TIP3     OH2      OT      -0.834000       15.9994           0
     31368 TIP3     911      TIP3     H1       HT       0.417000       1.00800           0
     31369 TIP3     911      TIP3     H2       HT       0.417000       1.00800           0
     31370 TIP3     912      TIP3     OH2      OT      -0.834000       15.9994           0
     31371 TIP3     912      TIP3     H1       HT       0.417000       1.00800           0
     31372 TIP3     912      TIP3     H2       HT       0.417000       1.00800           0
     31373 TIP3     913      TIP3     OH2      OT      -0.834000       15.9994           0
     31374 TIP3     913      TIP3     H1       HT       0.417000       1.00800           0
     31375 TIP3     913      TIP3     H2       HT       0.417000       1.00800           0
     31376 TIP3     914      TIP3     OH2      OT      -0.834000       15.9994           0
     31377 TIP3     914      TIP3     H1       HT       0.417000       1.00800           0
     31378 TIP3     914      TIP3     H2       HT       0.417000       1.00800           0
     31379 TIP3     915      TIP3     OH2      OT      -0.834000       15.9994           0
     31380 TIP3     915      TIP3     H1       HT       0.417000       1.00800           0
     31381 TIP3     915      TIP3     H2       HT       0.417000       1.00800           0
     31382 TIP3     916      TIP3     OH2      OT      -0.834000       15.9994           0
     31383 TIP3     916      TIP3     H1       HT       0.417000       1.00800           0
     31384 TIP3     916      TIP3     H2       HT       0.417000       1.00800           0
     31385 TIP3     917      TIP3     OH2      OT      -0.834000       15.9994           0
     31386 TIP3     917      TIP3     H1       HT       0.417000       1.00800           0
     31387 TIP3     917      TIP3     H2       HT       0.417000       1.00800           0
     31388 TIP3     918      TIP3     OH2      OT      -0.834000       15.9994           0
     31389 TIP3     918      TIP3     H1       HT       0.417000       1.00800           0
     31390 TIP3     918      TIP3     H2       HT       0.417000       1.00800           0
     31391 TIP3     919      TIP3     OH2      OT      -0.834000       15.9994           0
     31392 TIP3     919      TIP3     H1       HT       0.417000       1.00800           0
     31393 TIP3     919      TIP3     H2       HT       0.417000       1.00800           0
     31394 TIP3     920      TIP3     OH2      OT      -0.834000       15.9994           0
     31395 TIP3     920      TIP3     H1       HT       0.417000       1.00800           0
     31396 TIP3     920      TIP3     H2       HT       0.417000       1.00800           0
     31397 TIP3     921      TIP3     OH2      OT      -0.834000       15.9994           0
     31398 TIP3     921      TIP3     H1       HT       0.417000       1.00800           0
     31399 TIP3     921      TIP3     H2       HT       0.417000       1.00800           0
     31400 TIP3     922      TIP3     OH2      OT      -0.834000       15.9994           0
     31401 TIP3     922      TIP3     H1       HT       0.417000       1.00800           0
     31402 TIP3     922      TIP3     H2       HT       0.417000       1.00800           0
     31403 TIP3     923      TIP3     OH2      OT      -0.834000       15.9994           0
     31404 TIP3     923      TIP3     H1       HT       0.417000       1.00800           0
     31405 TIP3     923      TIP3     H2       HT       0.417000       1.00800           0
     31406 TIP3     924      TIP3     OH2      OT      -0.834000       15.9994           0
     31407 TIP3     924      TIP3     H1       HT       0.417000       1.00800           0
     31408 TIP3     924      TIP3     H2       HT       0.417000       1.00800           0
     31409 TIP3     925      TIP3     OH2      OT      -0.834000       15.9994           0
     31410 TIP3     925      TIP3     H1       HT       0.417000       1.00800           0
     31411 TIP3     925      TIP3     H2       HT       0.417000       1.00800           0
     31412 TIP3     926      TIP3     OH2      OT      -0.834000       15.9994           0
     31413 TIP3     926      TIP3     H1       HT       0.417000       1.00800           0
     31414 TIP3     926      TIP3     H2       HT       0.417000       1.00800           0
     31415 TIP3     927      TIP3     OH2      OT      -0.834000       15.9994           0
     31416 TIP3     927      TIP3     H1       HT       0.417000       1.00800           0
     31417 TIP3     927      TIP3     H2       HT       0.417000       1.00800           0
     31418 TIP3     928      TIP3     OH2      OT      -0.834000       15.9994           0
     31419 TIP3     928      TIP3     H1       HT       0.417000       1.00800           0
     31420 TIP3     928      TIP3     H2       HT       0.417000       1.00800           0
     31421 TIP3     929      TIP3     OH2      OT      -0.834000       15.9994           0
     31422 TIP3     929      TIP3     H1       HT       0.417000       1.00800           0
     31423 TIP3     929      TIP3     H2       HT       0.417000       1.00800           0
     31424 TIP3     930      TIP3     OH2      OT      -0.834000       15.9994           0
     31425 TIP3     930      TIP3     H1       HT       0.417000       1.00800           0
     31426 TIP3     930      TIP3     H2       HT       0.417000       1.00800           0
     31427 TIP3     931      TIP3     OH2      OT      -0.834000       15.9994           0
     31428 TIP3     931      TIP3     H1       HT       0.417000       1.00800           0
     31429 TIP3     931      TIP3     H2       HT       0.417000       1.00800           0
     31430 TIP3     932      TIP3     OH2      OT      -0.834000       15.9994           0
     31431 TIP3     932      TIP3     H1       HT       0.417000       1.00800           0
     31432 TIP3     932      TIP3     H2       HT       0.417000       1.00800           0
     31433 TIP3     933      TIP3     OH2      OT      -0.834000       15.9994           0
     31434 TIP3     933      TIP3     H1       HT       0.417000       1.00800           0
     31435 TIP3     933      TIP3     H2       HT       0.417000       1.00800           0
     31436 TIP3     934      TIP3     OH2      OT      -0.834000       15.9994           0
     31437 TIP3     934      TIP3     H1       HT       0.417000       1.00800           0
     31438 TIP3     934      TIP3     H2       HT       0.417000       1.00800           0
     31439 TIP3     935      TIP3     OH2      OT      -0.834000       15.9994           0
     31440 TIP3     935      TIP3     H1       HT       0.417000       1.00800           0
     31441 TIP3     935      TIP3     H2       HT       0.417000       1.00800           0
     31442 TIP3     936      TIP3     OH2      OT      -0.834000       15.9994           0
     31443 TIP3     936      TIP3     H1       HT       0.417000       1.00800           0
     31444 TIP3     936      TIP3     H2       HT       0.417000       1.00800           0
     31445 TIP3     937      TIP3     OH2      OT      -0.834000       15.9994           0
     31446 TIP3     937      TIP3     H1       HT       0.417000       1.00800           0
     31447 TIP3     937      TIP3     H2       HT       0.417000       1.00800           0
     31448 TIP3     938      TIP3     OH2      OT      -0.834000       15.9994           0
     31449 TIP3     938      TIP3     H1       HT       0.417000       1.00800           0
     31450 TIP3     938      TIP3     H2       HT       0.417000       1.00800           0
     31451 TIP3     939      TIP3     OH2      OT      -0.834000       15.9994           0
     31452 TIP3     939      TIP3     H1       HT       0.417000       1.00800           0
     31453 TIP3     939      TIP3     H2       HT       0.417000       1.00800           0
     31454 TIP3     940      TIP3     OH2      OT      -0.834000       15.9994           0
     31455 TIP3     940      TIP3     H1       HT       0.417000       1.00800           0
     31456 TIP3     940      TIP3     H2       HT       0.417000       1.00800           0
     31457 TIP3     941      TIP3     OH2      OT      -0.834000       15.9994           0
     31458 TIP3     941      TIP3     H1       HT       0.417000       1.00800           0
     31459 TIP3     941      TIP3     H2       HT       0.417000       1.00800           0
     31460 TIP3     942      TIP3     OH2      OT      -0.834000       15.9994           0
     31461 TIP3     942      TIP3     H1       HT       0.417000       1.00800           0
     31462 TIP3     942      TIP3     H2       HT       0.417000       1.00800           0
     31463 TIP3     943      TIP3     OH2      OT      -0.834000       15.9994           0
     31464 TIP3     943      TIP3     H1       HT       0.417000       1.00800           0
     31465 TIP3     943      TIP3     H2       HT       0.417000       1.00800           0
     31466 TIP3     944      TIP3     OH2      OT      -0.834000       15.9994           0
     31467 TIP3     944      TIP3     H1       HT       0.417000       1.00800           0
     31468 TIP3     944      TIP3     H2       HT       0.417000       1.00800           0
     31469 TIP3     945      TIP3     OH2      OT      -0.834000       15.9994           0
     31470 TIP3     945      TIP3     H1       HT       0.417000       1.00800           0
     31471 TIP3     945      TIP3     H2       HT       0.417000       1.00800           0
     31472 TIP3     946      TIP3     OH2      OT      -0.834000       15.9994           0
     31473 TIP3     946      TIP3     H1       HT       0.417000       1.00800           0
     31474 TIP3     946      TIP3     H2       HT       0.417000       1.00800           0
     31475 TIP3     947      TIP3     OH2      OT      -0.834000       15.9994           0
     31476 TIP3     947      TIP3     H1       HT       0.417000       1.00800           0
     31477 TIP3     947      TIP3     H2       HT       0.417000       1.00800           0
     31478 TIP3     948      TIP3     OH2      OT      -0.834000       15.9994           0
     31479 TIP3     948      TIP3     H1       HT       0.417000       1.00800           0
     31480 TIP3     948      TIP3     H2       HT       0.417000       1.00800           0
     31481 TIP3     949      TIP3     OH2      OT      -0.834000       15.9994           0
     31482 TIP3     949      TIP3     H1       HT       0.417000       1.00800           0
     31483 TIP3     949      TIP3     H2       HT       0.417000       1.00800           0
     31484 TIP3     950      TIP3     OH2      OT      -0.834000       15.9994           0
     31485 TIP3     950      TIP3     H1       HT       0.417000       1.00800           0
     31486 TIP3     950      TIP3     H2       HT       0.417000       1.00800           0
     31487 TIP3     951      TIP3     OH2      OT      -0.834000       15.9994           0
     31488 TIP3     951      TIP3     H1       HT       0.417000       1.00800           0
     31489 TIP3     951      TIP3     H2       HT       0.417000       1.00800           0
     31490 TIP3     952      TIP3     OH2      OT      -0.834000       15.9994           0
     31491 TIP3     952      TIP3     H1       HT       0.417000       1.00800           0
     31492 TIP3     952      TIP3     H2       HT       0.417000       1.00800           0
     31493 TIP3     953      TIP3     OH2      OT      -0.834000       15.9994           0
     31494 TIP3     953      TIP3     H1       HT       0.417000       1.00800           0
     31495 TIP3     953      TIP3     H2       HT       0.417000       1.00800           0
     31496 TIP3     954      TIP3     OH2      OT      -0.834000       15.9994           0
     31497 TIP3     954      TIP3     H1       HT       0.417000       1.00800           0
     31498 TIP3     954      TIP3     H2       HT       0.417000       1.00800           0
     31499 TIP3     955      TIP3     OH2      OT      -0.834000       15.9994           0
     31500 TIP3     955      TIP3     H1       HT       0.417000       1.00800           0
     31501 TIP3     955      TIP3     H2       HT       0.417000       1.00800           0
     31502 TIP3     956      TIP3     OH2      OT      -0.834000       15.9994           0
     31503 TIP3     956      TIP3     H1       HT       0.417000       1.00800           0
     31504 TIP3     956      TIP3     H2       HT       0.417000       1.00800           0
     31505 TIP3     957      TIP3     OH2      OT      -0.834000       15.9994           0
     31506 TIP3     957      TIP3     H1       HT       0.417000       1.00800           0
     31507 TIP3     957      TIP3     H2       HT       0.417000       1.00800           0
     31508 TIP3     958      TIP3     OH2      OT      -0.834000       15.9994           0
     31509 TIP3     958      TIP3     H1       HT       0.417000       1.00800           0
     31510 TIP3     958      TIP3     H2       HT       0.417000       1.00800           0
     31511 TIP3     959      TIP3     OH2      OT      -0.834000       15.9994           0
     31512 TIP3     959      TIP3     H1       HT       0.417000       1.00800           0
     31513 TIP3     959      TIP3     H2       HT       0.417000       1.00800           0
     31514 TIP3     960      TIP3     OH2      OT      -0.834000       15.9994           0
     31515 TIP3     960      TIP3     H1       HT       0.417000       1.00800           0
     31516 TIP3     960      TIP3     H2       HT       0.417000       1.00800           0
     31517 TIP3     961      TIP3     OH2      OT      -0.834000       15.9994           0
     31518 TIP3     961      TIP3     H1       HT       0.417000       1.00800           0
     31519 TIP3     961      TIP3     H2       HT       0.417000       1.00800           0
     31520 TIP3     962      TIP3     OH2      OT      -0.834000       15.9994           0
     31521 TIP3     962      TIP3     H1       HT       0.417000       1.00800           0
     31522 TIP3     962      TIP3     H2       HT       0.417000       1.00800           0
     31523 TIP3     963      TIP3     OH2      OT      -0.834000       15.9994           0
     31524 TIP3     963      TIP3     H1       HT       0.417000       1.00800           0
     31525 TIP3     963      TIP3     H2       HT       0.417000       1.00800           0
     31526 TIP3     964      TIP3     OH2      OT      -0.834000       15.9994           0
     31527 TIP3     964      TIP3     H1       HT       0.417000       1.00800           0
     31528 TIP3     964      TIP3     H2       HT       0.417000       1.00800           0
     31529 TIP3     965      TIP3     OH2      OT      -0.834000       15.9994           0
     31530 TIP3     965      TIP3     H1       HT       0.417000       1.00800           0
     31531 TIP3     965      TIP3     H2       HT       0.417000       1.00800           0
     31532 TIP3     966      TIP3     OH2      OT      -0.834000       15.9994           0
     31533 TIP3     966      TIP3     H1       HT       0.417000       1.00800           0
     31534 TIP3     966      TIP3     H2       HT       0.417000       1.00800           0
     31535 TIP3     967      TIP3     OH2      OT      -0.834000       15.9994           0
     31536 TIP3     967      TIP3     H1       HT       0.417000       1.00800           0
     31537 TIP3     967      TIP3     H2       HT       0.417000       1.00800           0
     31538 TIP3     968      TIP3     OH2      OT      -0.834000       15.9994           0
     31539 TIP3     968      TIP3     H1       HT       0.417000       1.00800           0
     31540 TIP3     968      TIP3     H2       HT       0.417000       1.00800           0
     31541 TIP3     969      TIP3     OH2      OT      -0.834000       15.9994           0
     31542 TIP3     969      TIP3     H1       HT       0.417000       1.00800           0
     31543 TIP3     969      TIP3     H2       HT       0.417000       1.00800           0
     31544 TIP3     970      TIP3     OH2      OT      -0.834000       15.9994           0
     31545 TIP3     970      TIP3     H1       HT       0.417000       1.00800           0
     31546 TIP3     970      TIP3     H2       HT       0.417000       1.00800           0
     31547 TIP3     971      TIP3     OH2      OT      -0.834000       15.9994           0
     31548 TIP3     971      TIP3     H1       HT       0.417000       1.00800           0
     31549 TIP3     971      TIP3     H2       HT       0.417000       1.00800           0
     31550 TIP3     972      TIP3     OH2      OT      -0.834000       15.9994           0
     31551 TIP3     972      TIP3     H1       HT       0.417000       1.00800           0
     31552 TIP3     972      TIP3     H2       HT       0.417000       1.00800           0
     31553 TIP3     973      TIP3     OH2      OT      -0.834000       15.9994           0
     31554 TIP3     973      TIP3     H1       HT       0.417000       1.00800           0
     31555 TIP3     973      TIP3     H2       HT       0.417000       1.00800           0
     31556 TIP3     974      TIP3     OH2      OT      -0.834000       15.9994           0
     31557 TIP3     974      TIP3     H1       HT       0.417000       1.00800           0
     31558 TIP3     974      TIP3     H2       HT       0.417000       1.00800           0
     31559 TIP3     975      TIP3     OH2      OT      -0.834000       15.9994           0
     31560 TIP3     975      TIP3     H1       HT       0.417000       1.00800           0
     31561 TIP3     975      TIP3     H2       HT       0.417000       1.00800           0
     31562 TIP3     976      TIP3     OH2      OT      -0.834000       15.9994           0
     31563 TIP3     976      TIP3     H1       HT       0.417000       1.00800           0
     31564 TIP3     976      TIP3     H2       HT       0.417000       1.00800           0
     31565 TIP3     977      TIP3     OH2      OT      -0.834000       15.9994           0
     31566 TIP3     977      TIP3     H1       HT       0.417000       1.00800           0
     31567 TIP3     977      TIP3     H2       HT       0.417000       1.00800           0
     31568 TIP3     978      TIP3     OH2      OT      -0.834000       15.9994           0
     31569 TIP3     978      TIP3     H1       HT       0.417000       1.00800           0
     31570 TIP3     978      TIP3     H2       HT       0.417000       1.00800           0
     31571 TIP3     979      TIP3     OH2      OT      -0.834000       15.9994           0
     31572 TIP3     979      TIP3     H1       HT       0.417000       1.00800           0
     31573 TIP3     979      TIP3     H2       HT       0.417000       1.00800           0
     31574 TIP3     980      TIP3     OH2      OT      -0.834000       15.9994           0
     31575 TIP3     980      TIP3     H1       HT       0.417000       1.00800           0
     31576 TIP3     980      TIP3     H2       HT       0.417000       1.00800           0
     31577 TIP3     981      TIP3     OH2      OT      -0.834000       15.9994           0
     31578 TIP3     981      TIP3     H1       HT       0.417000       1.00800           0
     31579 TIP3     981      TIP3     H2       HT       0.417000       1.00800           0
     31580 TIP3     982      TIP3     OH2      OT      -0.834000       15.9994           0
     31581 TIP3     982      TIP3     H1       HT       0.417000       1.00800           0
     31582 TIP3     982      TIP3     H2       HT       0.417000       1.00800           0
     31583 TIP3     983      TIP3     OH2      OT      -0.834000       15.9994           0
     31584 TIP3     983      TIP3     H1       HT       0.417000       1.00800           0
     31585 TIP3     983      TIP3     H2       HT       0.417000       1.00800           0
     31586 TIP3     984      TIP3     OH2      OT      -0.834000       15.9994           0
     31587 TIP3     984      TIP3     H1       HT       0.417000       1.00800           0
     31588 TIP3     984      TIP3     H2       HT       0.417000       1.00800           0
     31589 TIP3     985      TIP3     OH2      OT      -0.834000       15.9994           0
     31590 TIP3     985      TIP3     H1       HT       0.417000       1.00800           0
     31591 TIP3     985      TIP3     H2       HT       0.417000       1.00800           0
     31592 TIP3     986      TIP3     OH2      OT      -0.834000       15.9994           0
     31593 TIP3     986      TIP3     H1       HT       0.417000       1.00800           0
     31594 TIP3     986      TIP3     H2       HT       0.417000       1.00800           0
     31595 TIP3     987      TIP3     OH2      OT      -0.834000       15.9994           0
     31596 TIP3     987      TIP3     H1       HT       0.417000       1.00800           0
     31597 TIP3     987      TIP3     H2       HT       0.417000       1.00800           0
     31598 TIP3     988      TIP3     OH2      OT      -0.834000       15.9994           0
     31599 TIP3     988      TIP3     H1       HT       0.417000       1.00800           0
     31600 TIP3     988      TIP3     H2       HT       0.417000       1.00800           0
     31601 TIP3     989      TIP3     OH2      OT      -0.834000       15.9994           0
     31602 TIP3     989      TIP3     H1       HT       0.417000       1.00800           0
     31603 TIP3     989      TIP3     H2       HT       0.417000       1.00800           0
     31604 TIP3     990      TIP3     OH2      OT      -0.834000       15.9994           0
     31605 TIP3     990      TIP3     H1       HT       0.417000       1.00800           0
     31606 TIP3     990      TIP3     H2       HT       0.417000       1.00800           0
     31607 TIP3     991      TIP3     OH2      OT      -0.834000       15.9994           0
     31608 TIP3     991      TIP3     H1       HT       0.417000       1.00800           0
     31609 TIP3     991      TIP3     H2       HT       0.417000       1.00800           0
     31610 TIP3     992      TIP3     OH2      OT      -0.834000       15.9994           0
     31611 TIP3     992      TIP3     H1       HT       0.417000       1.00800           0
     31612 TIP3     992      TIP3     H2       HT       0.417000       1.00800           0
     31613 TIP3     993      TIP3     OH2      OT      -0.834000       15.9994           0
     31614 TIP3     993      TIP3     H1       HT       0.417000       1.00800           0
     31615 TIP3     993      TIP3     H2       HT       0.417000       1.00800           0
     31616 TIP3     994      TIP3     OH2      OT      -0.834000       15.9994           0
     31617 TIP3     994      TIP3     H1       HT       0.417000       1.00800           0
     31618 TIP3     994      TIP3     H2       HT       0.417000       1.00800           0
     31619 TIP3     995      TIP3     OH2      OT      -0.834000       15.9994           0
     31620 TIP3     995      TIP3     H1       HT       0.417000       1.00800           0
     31621 TIP3     995      TIP3     H2       HT       0.417000       1.00800           0
     31622 TIP3     996      TIP3     OH2      OT      -0.834000       15.9994           0
     31623 TIP3     996      TIP3     H1       HT       0.417000       1.00800           0
     31624 TIP3     996      TIP3     H2       HT       0.417000       1.00800           0
     31625 TIP3     997      TIP3     OH2      OT      -0.834000       15.9994           0
     31626 TIP3     997      TIP3     H1       HT       0.417000       1.00800           0
     31627 TIP3     997      TIP3     H2       HT       0.417000       1.00800           0
     31628 TIP3     998      TIP3     OH2      OT      -0.834000       15.9994           0
     31629 TIP3     998      TIP3     H1       HT       0.417000       1.00800           0
     31630 TIP3     998      TIP3     H2       HT       0.417000       1.00800           0
     31631 TIP3     999      TIP3     OH2      OT      -0.834000       15.9994           0
     31632 TIP3     999      TIP3     H1       HT       0.417000       1.00800           0
     31633 TIP3     999      TIP3     H2       HT       0.417000       1.00800           0
     31634 TIP3     1000     TIP3     OH2      OT      -0.834000       15.9994           0
     31635 TIP3     1000     TIP3     H1       HT       0.417000       1.00800           0
     31636 TIP3     1000     TIP3     H2       HT       0.417000       1.00800           0
     31637 TIP3     1001     TIP3     OH2      OT      -0.834000       15.9994           0
     31638 TIP3     1001     TIP3     H1       HT       0.417000       1.00800           0
     31639 TIP3     1001     TIP3     H2       HT       0.417000       1.00800           0
     31640 TIP3     1002     TIP3     OH2      OT      -0.834000       15.9994           0
     31641 TIP3     1002     TIP3     H1       HT       0.417000       1.00800           0
     31642 TIP3     1002     TIP3     H2       HT       0.417000       1.00800           0
     31643 TIP3     1003     TIP3     OH2      OT      -0.834000       15.9994           0
     31644 TIP3     1003     TIP3     H1       HT       0.417000       1.00800           0
     31645 TIP3     1003     TIP3     H2       HT       0.417000       1.00800           0
     31646 TIP3     1004     TIP3     OH2      OT      -0.834000       15.9994           0
     31647 TIP3     1004     TIP3     H1       HT       0.417000       1.00800           0
     31648 TIP3     1004     TIP3     H2       HT       0.417000       1.00800           0
     31649 TIP3     1005     TIP3     OH2      OT      -0.834000       15.9994           0
     31650 TIP3     1005     TIP3     H1       HT       0.417000       1.00800           0
     31651 TIP3     1005     TIP3     H2       HT       0.417000       1.00800           0
     31652 TIP3     1006     TIP3     OH2      OT      -0.834000       15.9994           0
     31653 TIP3     1006     TIP3     H1       HT       0.417000       1.00800           0
     31654 TIP3     1006     TIP3     H2       HT       0.417000       1.00800           0
     31655 TIP3     1007     TIP3     OH2      OT      -0.834000       15.9994           0
     31656 TIP3     1007     TIP3     H1       HT       0.417000       1.00800           0
     31657 TIP3     1007     TIP3     H2       HT       0.417000       1.00800           0
     31658 TIP3     1008     TIP3     OH2      OT      -0.834000       15.9994           0
     31659 TIP3     1008     TIP3     H1       HT       0.417000       1.00800           0
     31660 TIP3     1008     TIP3     H2       HT       0.417000       1.00800           0
     31661 TIP3     1009     TIP3     OH2      OT      -0.834000       15.9994           0
     31662 TIP3     1009     TIP3     H1       HT       0.417000       1.00800           0
     31663 TIP3     1009     TIP3     H2       HT       0.417000       1.00800           0
     31664 TIP3     1010     TIP3     OH2      OT      -0.834000       15.9994           0
     31665 TIP3     1010     TIP3     H1       HT       0.417000       1.00800           0
     31666 TIP3     1010     TIP3     H2       HT       0.417000       1.00800           0
     31667 TIP3     1011     TIP3     OH2      OT      -0.834000       15.9994           0
     31668 TIP3     1011     TIP3     H1       HT       0.417000       1.00800           0
     31669 TIP3     1011     TIP3     H2       HT       0.417000       1.00800           0
     31670 TIP3     1012     TIP3     OH2      OT      -0.834000       15.9994           0
     31671 TIP3     1012     TIP3     H1       HT       0.417000       1.00800           0
     31672 TIP3     1012     TIP3     H2       HT       0.417000       1.00800           0
     31673 TIP3     1013     TIP3     OH2      OT      -0.834000       15.9994           0
     31674 TIP3     1013     TIP3     H1       HT       0.417000       1.00800           0
     31675 TIP3     1013     TIP3     H2       HT       0.417000       1.00800           0
     31676 TIP3     1014     TIP3     OH2      OT      -0.834000       15.9994           0
     31677 TIP3     1014     TIP3     H1       HT       0.417000       1.00800           0
     31678 TIP3     1014     TIP3     H2       HT       0.417000       1.00800           0
     31679 TIP3     1015     TIP3     OH2      OT      -0.834000       15.9994           0
     31680 TIP3     1015     TIP3     H1       HT       0.417000       1.00800           0
     31681 TIP3     1015     TIP3     H2       HT       0.417000       1.00800           0
     31682 TIP3     1016     TIP3     OH2      OT      -0.834000       15.9994           0
     31683 TIP3     1016     TIP3     H1       HT       0.417000       1.00800           0
     31684 TIP3     1016     TIP3     H2       HT       0.417000       1.00800           0
     31685 TIP3     1017     TIP3     OH2      OT      -0.834000       15.9994           0
     31686 TIP3     1017     TIP3     H1       HT       0.417000       1.00800           0
     31687 TIP3     1017     TIP3     H2       HT       0.417000       1.00800           0
     31688 TIP3     1018     TIP3     OH2      OT      -0.834000       15.9994           0
     31689 TIP3     1018     TIP3     H1       HT       0.417000       1.00800           0
     31690 TIP3     1018     TIP3     H2       HT       0.417000       1.00800           0
     31691 TIP3     1019     TIP3     OH2      OT      -0.834000       15.9994           0
     31692 TIP3     1019     TIP3     H1       HT       0.417000       1.00800           0
     31693 TIP3     1019     TIP3     H2       HT       0.417000       1.00800           0
     31694 TIP3     1020     TIP3     OH2      OT      -0.834000       15.9994           0
     31695 TIP3     1020     TIP3     H1       HT       0.417000       1.00800           0
     31696 TIP3     1020     TIP3     H2       HT       0.417000       1.00800           0
     31697 TIP3     1021     TIP3     OH2      OT      -0.834000       15.9994           0
     31698 TIP3     1021     TIP3     H1       HT       0.417000       1.00800           0
     31699 TIP3     1021     TIP3     H2       HT       0.417000       1.00800           0
     31700 TIP3     1022     TIP3     OH2      OT      -0.834000       15.9994           0
     31701 TIP3     1022     TIP3     H1       HT       0.417000       1.00800           0
     31702 TIP3     1022     TIP3     H2       HT       0.417000       1.00800           0
     31703 TIP3     1023     TIP3     OH2      OT      -0.834000       15.9994           0
     31704 TIP3     1023     TIP3     H1       HT       0.417000       1.00800           0
     31705 TIP3     1023     TIP3     H2       HT       0.417000       1.00800           0
     31706 TIP3     1024     TIP3     OH2      OT      -0.834000       15.9994           0
     31707 TIP3     1024     TIP3     H1       HT       0.417000       1.00800           0
     31708 TIP3     1024     TIP3     H2       HT       0.417000       1.00800           0
     31709 TIP3     1025     TIP3     OH2      OT      -0.834000       15.9994           0
     31710 TIP3     1025     TIP3     H1       HT       0.417000       1.00800           0
     31711 TIP3     1025     TIP3     H2       HT       0.417000       1.00800           0
     31712 TIP3     1026     TIP3     OH2      OT      -0.834000       15.9994           0
     31713 TIP3     1026     TIP3     H1       HT       0.417000       1.00800           0
     31714 TIP3     1026     TIP3     H2       HT       0.417000       1.00800           0
     31715 TIP3     1027     TIP3     OH2      OT      -0.834000       15.9994           0
     31716 TIP3     1027     TIP3     H1       HT       0.417000       1.00800           0
     31717 TIP3     1027     TIP3     H2       HT       0.417000       1.00800           0
     31718 TIP3     1028     TIP3     OH2      OT      -0.834000       15.9994           0
     31719 TIP3     1028     TIP3     H1       HT       0.417000       1.00800           0
     31720 TIP3     1028     TIP3     H2       HT       0.417000       1.00800           0
     31721 TIP3     1029     TIP3     OH2      OT      -0.834000       15.9994           0
     31722 TIP3     1029     TIP3     H1       HT       0.417000       1.00800           0
     31723 TIP3     1029     TIP3     H2       HT       0.417000       1.00800           0
     31724 TIP3     1030     TIP3     OH2      OT      -0.834000       15.9994           0
     31725 TIP3     1030     TIP3     H1       HT       0.417000       1.00800           0
     31726 TIP3     1030     TIP3     H2       HT       0.417000       1.00800           0
     31727 TIP3     1031     TIP3     OH2      OT      -0.834000       15.9994           0
     31728 TIP3     1031     TIP3     H1       HT       0.417000       1.00800           0
     31729 TIP3     1031     TIP3     H2       HT       0.417000       1.00800           0
     31730 TIP3     1032     TIP3     OH2      OT      -0.834000       15.9994           0
     31731 TIP3     1032     TIP3     H1       HT       0.417000       1.00800           0
     31732 TIP3     1032     TIP3     H2       HT       0.417000       1.00800           0
     31733 TIP3     1033     TIP3     OH2      OT      -0.834000       15.9994           0
     31734 TIP3     1033     TIP3     H1       HT       0.417000       1.00800           0
     31735 TIP3     1033     TIP3     H2       HT       0.417000       1.00800           0
     31736 TIP3     1034     TIP3     OH2      OT      -0.834000       15.9994           0
     31737 TIP3     1034     TIP3     H1       HT       0.417000       1.00800           0
     31738 TIP3     1034     TIP3     H2       HT       0.417000       1.00800           0
     31739 TIP3     1035     TIP3     OH2      OT      -0.834000       15.9994           0
     31740 TIP3     1035     TIP3     H1       HT       0.417000       1.00800           0
     31741 TIP3     1035     TIP3     H2       HT       0.417000       1.00800           0
     31742 TIP3     1036     TIP3     OH2      OT      -0.834000       15.9994           0
     31743 TIP3     1036     TIP3     H1       HT       0.417000       1.00800           0
     31744 TIP3     1036     TIP3     H2       HT       0.417000       1.00800           0
     31745 TIP3     1037     TIP3     OH2      OT      -0.834000       15.9994           0
     31746 TIP3     1037     TIP3     H1       HT       0.417000       1.00800           0
     31747 TIP3     1037     TIP3     H2       HT       0.417000       1.00800           0
     31748 TIP3     1038     TIP3     OH2      OT      -0.834000       15.9994           0
     31749 TIP3     1038     TIP3     H1       HT       0.417000       1.00800           0
     31750 TIP3     1038     TIP3     H2       HT       0.417000       1.00800           0
     31751 TIP3     1039     TIP3     OH2      OT      -0.834000       15.9994           0
     31752 TIP3     1039     TIP3     H1       HT       0.417000       1.00800           0
     31753 TIP3     1039     TIP3     H2       HT       0.417000       1.00800           0
     31754 TIP3     1040     TIP3     OH2      OT      -0.834000       15.9994           0
     31755 TIP3     1040     TIP3     H1       HT       0.417000       1.00800           0
     31756 TIP3     1040     TIP3     H2       HT       0.417000       1.00800           0
     31757 TIP3     1041     TIP3     OH2      OT      -0.834000       15.9994           0
     31758 TIP3     1041     TIP3     H1       HT       0.417000       1.00800           0
     31759 TIP3     1041     TIP3     H2       HT       0.417000       1.00800           0
     31760 TIP3     1042     TIP3     OH2      OT      -0.834000       15.9994           0
     31761 TIP3     1042     TIP3     H1       HT       0.417000       1.00800           0
     31762 TIP3     1042     TIP3     H2       HT       0.417000       1.00800           0
     31763 TIP3     1043     TIP3     OH2      OT      -0.834000       15.9994           0
     31764 TIP3     1043     TIP3     H1       HT       0.417000       1.00800           0
     31765 TIP3     1043     TIP3     H2       HT       0.417000       1.00800           0
     31766 TIP3     1044     TIP3     OH2      OT      -0.834000       15.9994           0
     31767 TIP3     1044     TIP3     H1       HT       0.417000       1.00800           0
     31768 TIP3     1044     TIP3     H2       HT       0.417000       1.00800           0
     31769 TIP3     1045     TIP3     OH2      OT      -0.834000       15.9994           0
     31770 TIP3     1045     TIP3     H1       HT       0.417000       1.00800           0
     31771 TIP3     1045     TIP3     H2       HT       0.417000       1.00800           0
     31772 TIP3     1046     TIP3     OH2      OT      -0.834000       15.9994           0
     31773 TIP3     1046     TIP3     H1       HT       0.417000       1.00800           0
     31774 TIP3     1046     TIP3     H2       HT       0.417000       1.00800           0
     31775 TIP3     1047     TIP3     OH2      OT      -0.834000       15.9994           0
     31776 TIP3     1047     TIP3     H1       HT       0.417000       1.00800           0
     31777 TIP3     1047     TIP3     H2       HT       0.417000       1.00800           0
     31778 TIP3     1048     TIP3     OH2      OT      -0.834000       15.9994           0
     31779 TIP3     1048     TIP3     H1       HT       0.417000       1.00800           0
     31780 TIP3     1048     TIP3     H2       HT       0.417000       1.00800           0
     31781 TIP3     1049     TIP3     OH2      OT      -0.834000       15.9994           0
     31782 TIP3     1049     TIP3     H1       HT       0.417000       1.00800           0
     31783 TIP3     1049     TIP3     H2       HT       0.417000       1.00800           0
     31784 TIP3     1050     TIP3     OH2      OT      -0.834000       15.9994           0
     31785 TIP3     1050     TIP3     H1       HT       0.417000       1.00800           0
     31786 TIP3     1050     TIP3     H2       HT       0.417000       1.00800           0
     31787 TIP3     1051     TIP3     OH2      OT      -0.834000       15.9994           0
     31788 TIP3     1051     TIP3     H1       HT       0.417000       1.00800           0
     31789 TIP3     1051     TIP3     H2       HT       0.417000       1.00800           0
     31790 TIP3     1052     TIP3     OH2      OT      -0.834000       15.9994           0
     31791 TIP3     1052     TIP3     H1       HT       0.417000       1.00800           0
     31792 TIP3     1052     TIP3     H2       HT       0.417000       1.00800           0
     31793 TIP3     1053     TIP3     OH2      OT      -0.834000       15.9994           0
     31794 TIP3     1053     TIP3     H1       HT       0.417000       1.00800           0
     31795 TIP3     1053     TIP3     H2       HT       0.417000       1.00800           0
     31796 TIP3     1054     TIP3     OH2      OT      -0.834000       15.9994           0
     31797 TIP3     1054     TIP3     H1       HT       0.417000       1.00800           0
     31798 TIP3     1054     TIP3     H2       HT       0.417000       1.00800           0
     31799 TIP3     1055     TIP3     OH2      OT      -0.834000       15.9994           0
     31800 TIP3     1055     TIP3     H1       HT       0.417000       1.00800           0
     31801 TIP3     1055     TIP3     H2       HT       0.417000       1.00800           0
     31802 TIP3     1056     TIP3     OH2      OT      -0.834000       15.9994           0
     31803 TIP3     1056     TIP3     H1       HT       0.417000       1.00800           0
     31804 TIP3     1056     TIP3     H2       HT       0.417000       1.00800           0
     31805 TIP3     1057     TIP3     OH2      OT      -0.834000       15.9994           0
     31806 TIP3     1057     TIP3     H1       HT       0.417000       1.00800           0
     31807 TIP3     1057     TIP3     H2       HT       0.417000       1.00800           0
     31808 TIP3     1058     TIP3     OH2      OT      -0.834000       15.9994           0
     31809 TIP3     1058     TIP3     H1       HT       0.417000       1.00800           0
     31810 TIP3     1058     TIP3     H2       HT       0.417000       1.00800           0
     31811 TIP3     1059     TIP3     OH2      OT      -0.834000       15.9994           0
     31812 TIP3     1059     TIP3     H1       HT       0.417000       1.00800           0
     31813 TIP3     1059     TIP3     H2       HT       0.417000       1.00800           0
     31814 TIP3     1060     TIP3     OH2      OT      -0.834000       15.9994           0
     31815 TIP3     1060     TIP3     H1       HT       0.417000       1.00800           0
     31816 TIP3     1060     TIP3     H2       HT       0.417000       1.00800           0
     31817 TIP3     1061     TIP3     OH2      OT      -0.834000       15.9994           0
     31818 TIP3     1061     TIP3     H1       HT       0.417000       1.00800           0
     31819 TIP3     1061     TIP3     H2       HT       0.417000       1.00800           0
     31820 TIP3     1062     TIP3     OH2      OT      -0.834000       15.9994           0
     31821 TIP3     1062     TIP3     H1       HT       0.417000       1.00800           0
     31822 TIP3     1062     TIP3     H2       HT       0.417000       1.00800           0
     31823 TIP3     1063     TIP3     OH2      OT      -0.834000       15.9994           0
     31824 TIP3     1063     TIP3     H1       HT       0.417000       1.00800           0
     31825 TIP3     1063     TIP3     H2       HT       0.417000       1.00800           0
     31826 TIP3     1064     TIP3     OH2      OT      -0.834000       15.9994           0
     31827 TIP3     1064     TIP3     H1       HT       0.417000       1.00800           0
     31828 TIP3     1064     TIP3     H2       HT       0.417000       1.00800           0
     31829 TIP3     1065     TIP3     OH2      OT      -0.834000       15.9994           0
     31830 TIP3     1065     TIP3     H1       HT       0.417000       1.00800           0
     31831 TIP3     1065     TIP3     H2       HT       0.417000       1.00800           0
     31832 TIP3     1066     TIP3     OH2      OT      -0.834000       15.9994           0
     31833 TIP3     1066     TIP3     H1       HT       0.417000       1.00800           0
     31834 TIP3     1066     TIP3     H2       HT       0.417000       1.00800           0
     31835 TIP3     1067     TIP3     OH2      OT      -0.834000       15.9994           0
     31836 TIP3     1067     TIP3     H1       HT       0.417000       1.00800           0
     31837 TIP3     1067     TIP3     H2       HT       0.417000       1.00800           0
     31838 TIP3     1068     TIP3     OH2      OT      -0.834000       15.9994           0
     31839 TIP3     1068     TIP3     H1       HT       0.417000       1.00800           0
     31840 TIP3     1068     TIP3     H2       HT       0.417000       1.00800           0
     31841 TIP3     1069     TIP3     OH2      OT      -0.834000       15.9994           0
     31842 TIP3     1069     TIP3     H1       HT       0.417000       1.00800           0
     31843 TIP3     1069     TIP3     H2       HT       0.417000       1.00800           0
     31844 TIP3     1070     TIP3     OH2      OT      -0.834000       15.9994           0
     31845 TIP3     1070     TIP3     H1       HT       0.417000       1.00800           0
     31846 TIP3     1070     TIP3     H2       HT       0.417000       1.00800           0
     31847 TIP3     1071     TIP3     OH2      OT      -0.834000       15.9994           0
     31848 TIP3     1071     TIP3     H1       HT       0.417000       1.00800           0
     31849 TIP3     1071     TIP3     H2       HT       0.417000       1.00800           0
     31850 TIP3     1072     TIP3     OH2      OT      -0.834000       15.9994           0
     31851 TIP3     1072     TIP3     H1       HT       0.417000       1.00800           0
     31852 TIP3     1072     TIP3     H2       HT       0.417000       1.00800           0
     31853 TIP3     1073     TIP3     OH2      OT      -0.834000       15.9994           0
     31854 TIP3     1073     TIP3     H1       HT       0.417000       1.00800           0
     31855 TIP3     1073     TIP3     H2       HT       0.417000       1.00800           0
     31856 TIP3     1074     TIP3     OH2      OT      -0.834000       15.9994           0
     31857 TIP3     1074     TIP3     H1       HT       0.417000       1.00800           0
     31858 TIP3     1074     TIP3     H2       HT       0.417000       1.00800           0
     31859 TIP3     1075     TIP3     OH2      OT      -0.834000       15.9994           0
     31860 TIP3     1075     TIP3     H1       HT       0.417000       1.00800           0
     31861 TIP3     1075     TIP3     H2       HT       0.417000       1.00800           0
     31862 TIP3     1076     TIP3     OH2      OT      -0.834000       15.9994           0
     31863 TIP3     1076     TIP3     H1       HT       0.417000       1.00800           0
     31864 TIP3     1076     TIP3     H2       HT       0.417000       1.00800           0
     31865 TIP3     1077     TIP3     OH2      OT      -0.834000       15.9994           0
     31866 TIP3     1077     TIP3     H1       HT       0.417000       1.00800           0
     31867 TIP3     1077     TIP3     H2       HT       0.417000       1.00800           0
     31868 TIP3     1078     TIP3     OH2      OT      -0.834000       15.9994           0
     31869 TIP3     1078     TIP3     H1       HT       0.417000       1.00800           0
     31870 TIP3     1078     TIP3     H2       HT       0.417000       1.00800           0
     31871 TIP3     1079     TIP3     OH2      OT      -0.834000       15.9994           0
     31872 TIP3     1079     TIP3     H1       HT       0.417000       1.00800           0
     31873 TIP3     1079     TIP3     H2       HT       0.417000       1.00800           0
     31874 TIP3     1080     TIP3     OH2      OT      -0.834000       15.9994           0
     31875 TIP3     1080     TIP3     H1       HT       0.417000       1.00800           0
     31876 TIP3     1080     TIP3     H2       HT       0.417000       1.00800           0
     31877 TIP3     1081     TIP3     OH2      OT      -0.834000       15.9994           0
     31878 TIP3     1081     TIP3     H1       HT       0.417000       1.00800           0
     31879 TIP3     1081     TIP3     H2       HT       0.417000       1.00800           0
     31880 TIP3     1082     TIP3     OH2      OT      -0.834000       15.9994           0
     31881 TIP3     1082     TIP3     H1       HT       0.417000       1.00800           0
     31882 TIP3     1082     TIP3     H2       HT       0.417000       1.00800           0
     31883 TIP3     1083     TIP3     OH2      OT      -0.834000       15.9994           0
     31884 TIP3     1083     TIP3     H1       HT       0.417000       1.00800           0
     31885 TIP3     1083     TIP3     H2       HT       0.417000       1.00800           0
     31886 TIP3     1084     TIP3     OH2      OT      -0.834000       15.9994           0
     31887 TIP3     1084     TIP3     H1       HT       0.417000       1.00800           0
     31888 TIP3     1084     TIP3     H2       HT       0.417000       1.00800           0
     31889 TIP3     1085     TIP3     OH2      OT      -0.834000       15.9994           0
     31890 TIP3     1085     TIP3     H1       HT       0.417000       1.00800           0
     31891 TIP3     1085     TIP3     H2       HT       0.417000       1.00800           0
     31892 TIP3     1086     TIP3     OH2      OT      -0.834000       15.9994           0
     31893 TIP3     1086     TIP3     H1       HT       0.417000       1.00800           0
     31894 TIP3     1086     TIP3     H2       HT       0.417000       1.00800           0
     31895 TIP3     1087     TIP3     OH2      OT      -0.834000       15.9994           0
     31896 TIP3     1087     TIP3     H1       HT       0.417000       1.00800           0
     31897 TIP3     1087     TIP3     H2       HT       0.417000       1.00800           0
     31898 TIP3     1088     TIP3     OH2      OT      -0.834000       15.9994           0
     31899 TIP3     1088     TIP3     H1       HT       0.417000       1.00800           0
     31900 TIP3     1088     TIP3     H2       HT       0.417000       1.00800           0
     31901 TIP3     1089     TIP3     OH2      OT      -0.834000       15.9994           0
     31902 TIP3     1089     TIP3     H1       HT       0.417000       1.00800           0
     31903 TIP3     1089     TIP3     H2       HT       0.417000       1.00800           0
     31904 TIP3     1090     TIP3     OH2      OT      -0.834000       15.9994           0
     31905 TIP3     1090     TIP3     H1       HT       0.417000       1.00800           0
     31906 TIP3     1090     TIP3     H2       HT       0.417000       1.00800           0
     31907 TIP3     1091     TIP3     OH2      OT      -0.834000       15.9994           0
     31908 TIP3     1091     TIP3     H1       HT       0.417000       1.00800           0
     31909 TIP3     1091     TIP3     H2       HT       0.417000       1.00800           0
     31910 TIP3     1092     TIP3     OH2      OT      -0.834000       15.9994           0
     31911 TIP3     1092     TIP3     H1       HT       0.417000       1.00800           0
     31912 TIP3     1092     TIP3     H2       HT       0.417000       1.00800           0
     31913 TIP3     1093     TIP3     OH2      OT      -0.834000       15.9994           0
     31914 TIP3     1093     TIP3     H1       HT       0.417000       1.00800           0
     31915 TIP3     1093     TIP3     H2       HT       0.417000       1.00800           0
     31916 TIP3     1094     TIP3     OH2      OT      -0.834000       15.9994           0
     31917 TIP3     1094     TIP3     H1       HT       0.417000       1.00800           0
     31918 TIP3     1094     TIP3     H2       HT       0.417000       1.00800           0
     31919 TIP3     1095     TIP3     OH2      OT      -0.834000       15.9994           0
     31920 TIP3     1095     TIP3     H1       HT       0.417000       1.00800           0
     31921 TIP3     1095     TIP3     H2       HT       0.417000       1.00800           0
     31922 TIP3     1096     TIP3     OH2      OT      -0.834000       15.9994           0
     31923 TIP3     1096     TIP3     H1       HT       0.417000       1.00800           0
     31924 TIP3     1096     TIP3     H2       HT       0.417000       1.00800           0
     31925 TIP3     1097     TIP3     OH2      OT      -0.834000       15.9994           0
     31926 TIP3     1097     TIP3     H1       HT       0.417000       1.00800           0
     31927 TIP3     1097     TIP3     H2       HT       0.417000       1.00800           0
     31928 TIP3     1098     TIP3     OH2      OT      -0.834000       15.9994           0
     31929 TIP3     1098     TIP3     H1       HT       0.417000       1.00800           0
     31930 TIP3     1098     TIP3     H2       HT       0.417000       1.00800           0
     31931 TIP3     1099     TIP3     OH2      OT      -0.834000       15.9994           0
     31932 TIP3     1099     TIP3     H1       HT       0.417000       1.00800           0
     31933 TIP3     1099     TIP3     H2       HT       0.417000       1.00800           0
     31934 TIP3     1100     TIP3     OH2      OT      -0.834000       15.9994           0
     31935 TIP3     1100     TIP3     H1       HT       0.417000       1.00800           0
     31936 TIP3     1100     TIP3     H2       HT       0.417000       1.00800           0
     31937 TIP3     1101     TIP3     OH2      OT      -0.834000       15.9994           0
     31938 TIP3     1101     TIP3     H1       HT       0.417000       1.00800           0
     31939 TIP3     1101     TIP3     H2       HT       0.417000       1.00800           0
     31940 TIP3     1102     TIP3     OH2      OT      -0.834000       15.9994           0
     31941 TIP3     1102     TIP3     H1       HT       0.417000       1.00800           0
     31942 TIP3     1102     TIP3     H2       HT       0.417000       1.00800           0
     31943 TIP3     1103     TIP3     OH2      OT      -0.834000       15.9994           0
     31944 TIP3     1103     TIP3     H1       HT       0.417000       1.00800           0
     31945 TIP3     1103     TIP3     H2       HT       0.417000       1.00800           0
     31946 TIP3     1104     TIP3     OH2      OT      -0.834000       15.9994           0
     31947 TIP3     1104     TIP3     H1       HT       0.417000       1.00800           0
     31948 TIP3     1104     TIP3     H2       HT       0.417000       1.00800           0
     31949 TIP3     1105     TIP3     OH2      OT      -0.834000       15.9994           0
     31950 TIP3     1105     TIP3     H1       HT       0.417000       1.00800           0
     31951 TIP3     1105     TIP3     H2       HT       0.417000       1.00800           0
     31952 TIP3     1106     TIP3     OH2      OT      -0.834000       15.9994           0
     31953 TIP3     1106     TIP3     H1       HT       0.417000       1.00800           0
     31954 TIP3     1106     TIP3     H2       HT       0.417000       1.00800           0
     31955 TIP3     1107     TIP3     OH2      OT      -0.834000       15.9994           0
     31956 TIP3     1107     TIP3     H1       HT       0.417000       1.00800           0
     31957 TIP3     1107     TIP3     H2       HT       0.417000       1.00800           0
     31958 TIP3     1108     TIP3     OH2      OT      -0.834000       15.9994           0
     31959 TIP3     1108     TIP3     H1       HT       0.417000       1.00800           0
     31960 TIP3     1108     TIP3     H2       HT       0.417000       1.00800           0
     31961 TIP3     1109     TIP3     OH2      OT      -0.834000       15.9994           0
     31962 TIP3     1109     TIP3     H1       HT       0.417000       1.00800           0
     31963 TIP3     1109     TIP3     H2       HT       0.417000       1.00800           0
     31964 TIP3     1110     TIP3     OH2      OT      -0.834000       15.9994           0
     31965 TIP3     1110     TIP3     H1       HT       0.417000       1.00800           0
     31966 TIP3     1110     TIP3     H2       HT       0.417000       1.00800           0
     31967 TIP3     1111     TIP3     OH2      OT      -0.834000       15.9994           0
     31968 TIP3     1111     TIP3     H1       HT       0.417000       1.00800           0
     31969 TIP3     1111     TIP3     H2       HT       0.417000       1.00800           0
     31970 TIP3     1112     TIP3     OH2      OT      -0.834000       15.9994           0
     31971 TIP3     1112     TIP3     H1       HT       0.417000       1.00800           0
     31972 TIP3     1112     TIP3     H2       HT       0.417000       1.00800           0
     31973 TIP3     1113     TIP3     OH2      OT      -0.834000       15.9994           0
     31974 TIP3     1113     TIP3     H1       HT       0.417000       1.00800           0
     31975 TIP3     1113     TIP3     H2       HT       0.417000       1.00800           0
     31976 TIP3     1114     TIP3     OH2      OT      -0.834000       15.9994           0
     31977 TIP3     1114     TIP3     H1       HT       0.417000       1.00800           0
     31978 TIP3     1114     TIP3     H2       HT       0.417000       1.00800           0
     31979 TIP3     1115     TIP3     OH2      OT      -0.834000       15.9994           0
     31980 TIP3     1115     TIP3     H1       HT       0.417000       1.00800           0
     31981 TIP3     1115     TIP3     H2       HT       0.417000       1.00800           0
     31982 TIP3     1116     TIP3     OH2      OT      -0.834000       15.9994           0
     31983 TIP3     1116     TIP3     H1       HT       0.417000       1.00800           0
     31984 TIP3     1116     TIP3     H2       HT       0.417000       1.00800           0
     31985 TIP3     1117     TIP3     OH2      OT      -0.834000       15.9994           0
     31986 TIP3     1117     TIP3     H1       HT       0.417000       1.00800           0
     31987 TIP3     1117     TIP3     H2       HT       0.417000       1.00800           0
     31988 TIP3     1118     TIP3     OH2      OT      -0.834000       15.9994           0
     31989 TIP3     1118     TIP3     H1       HT       0.417000       1.00800           0
     31990 TIP3     1118     TIP3     H2       HT       0.417000       1.00800           0
     31991 TIP3     1119     TIP3     OH2      OT      -0.834000       15.9994           0
     31992 TIP3     1119     TIP3     H1       HT       0.417000       1.00800           0
     31993 TIP3     1119     TIP3     H2       HT       0.417000       1.00800           0
     31994 TIP3     1120     TIP3     OH2      OT      -0.834000       15.9994           0
     31995 TIP3     1120     TIP3     H1       HT       0.417000       1.00800           0
     31996 TIP3     1120     TIP3     H2       HT       0.417000       1.00800           0
     31997 TIP3     1121     TIP3     OH2      OT      -0.834000       15.9994           0
     31998 TIP3     1121     TIP3     H1       HT       0.417000       1.00800           0
     31999 TIP3     1121     TIP3     H2       HT       0.417000       1.00800           0
     32000 TIP3     1122     TIP3     OH2      OT      -0.834000       15.9994           0
     32001 TIP3     1122     TIP3     H1       HT       0.417000       1.00800           0
     32002 TIP3     1122     TIP3     H2       HT       0.417000       1.00800           0
     32003 TIP3     1123     TIP3     OH2      OT      -0.834000       15.9994           0
     32004 TIP3     1123     TIP3     H1       HT       0.417000       1.00800           0
     32005 TIP3     1123     TIP3     H2       HT       0.417000       1.00800           0
     32006 TIP3     1124     TIP3     OH2      OT      -0.834000       15.9994           0
     32007 TIP3     1124     TIP3     H1       HT       0.417000       1.00800           0
     32008 TIP3     1124     TIP3     H2       HT       0.417000       1.00800           0
     32009 TIP3     1125     TIP3     OH2      OT      -0.834000       15.9994           0
     32010 TIP3     1125     TIP3     H1       HT       0.417000       1.00800           0
     32011 TIP3     1125     TIP3     H2       HT       0.417000       1.00800           0
     32012 TIP3     1126     TIP3     OH2      OT      -0.834000       15.9994           0
     32013 TIP3     1126     TIP3     H1       HT       0.417000       1.00800           0
     32014 TIP3     1126     TIP3     H2       HT       0.417000       1.00800           0
     32015 TIP3     1127     TIP3     OH2      OT      -0.834000       15.9994           0
     32016 TIP3     1127     TIP3     H1       HT       0.417000       1.00800           0
     32017 TIP3     1127     TIP3     H2       HT       0.417000       1.00800           0
     32018 TIP3     1128     TIP3     OH2      OT      -0.834000       15.9994           0
     32019 TIP3     1128     TIP3     H1       HT       0.417000       1.00800           0
     32020 TIP3     1128     TIP3     H2       HT       0.417000       1.00800           0
     32021 TIP3     1129     TIP3     OH2      OT      -0.834000       15.9994           0
     32022 TIP3     1129     TIP3     H1       HT       0.417000       1.00800           0
     32023 TIP3     1129     TIP3     H2       HT       0.417000       1.00800           0
     32024 TIP3     1130     TIP3     OH2      OT      -0.834000       15.9994           0
     32025 TIP3     1130     TIP3     H1       HT       0.417000       1.00800           0
     32026 TIP3     1130     TIP3     H2       HT       0.417000       1.00800           0
     32027 TIP3     1131     TIP3     OH2      OT      -0.834000       15.9994           0
     32028 TIP3     1131     TIP3     H1       HT       0.417000       1.00800           0
     32029 TIP3     1131     TIP3     H2       HT       0.417000       1.00800           0
     32030 TIP3     1132     TIP3     OH2      OT      -0.834000       15.9994           0
     32031 TIP3     1132     TIP3     H1       HT       0.417000       1.00800           0
     32032 TIP3     1132     TIP3     H2       HT       0.417000       1.00800           0
     32033 TIP3     1133     TIP3     OH2      OT      -0.834000       15.9994           0
     32034 TIP3     1133     TIP3     H1       HT       0.417000       1.00800           0
     32035 TIP3     1133     TIP3     H2       HT       0.417000       1.00800           0
     32036 TIP3     1134     TIP3     OH2      OT      -0.834000       15.9994           0
     32037 TIP3     1134     TIP3     H1       HT       0.417000       1.00800           0
     32038 TIP3     1134     TIP3     H2       HT       0.417000       1.00800           0
     32039 TIP3     1135     TIP3     OH2      OT      -0.834000       15.9994           0
     32040 TIP3     1135     TIP3     H1       HT       0.417000       1.00800           0
     32041 TIP3     1135     TIP3     H2       HT       0.417000       1.00800           0
     32042 TIP3     1136     TIP3     OH2      OT      -0.834000       15.9994           0
     32043 TIP3     1136     TIP3     H1       HT       0.417000       1.00800           0
     32044 TIP3     1136     TIP3     H2       HT       0.417000       1.00800           0
     32045 TIP3     1137     TIP3     OH2      OT      -0.834000       15.9994           0
     32046 TIP3     1137     TIP3     H1       HT       0.417000       1.00800           0
     32047 TIP3     1137     TIP3     H2       HT       0.417000       1.00800           0
     32048 TIP3     1138     TIP3     OH2      OT      -0.834000       15.9994           0
     32049 TIP3     1138     TIP3     H1       HT       0.417000       1.00800           0
     32050 TIP3     1138     TIP3     H2       HT       0.417000       1.00800           0
     32051 TIP3     1139     TIP3     OH2      OT      -0.834000       15.9994           0
     32052 TIP3     1139     TIP3     H1       HT       0.417000       1.00800           0
     32053 TIP3     1139     TIP3     H2       HT       0.417000       1.00800           0
     32054 TIP3     1140     TIP3     OH2      OT      -0.834000       15.9994           0
     32055 TIP3     1140     TIP3     H1       HT       0.417000       1.00800           0
     32056 TIP3     1140     TIP3     H2       HT       0.417000       1.00800           0
     32057 TIP3     1141     TIP3     OH2      OT      -0.834000       15.9994           0
     32058 TIP3     1141     TIP3     H1       HT       0.417000       1.00800           0
     32059 TIP3     1141     TIP3     H2       HT       0.417000       1.00800           0
     32060 TIP3     1142     TIP3     OH2      OT      -0.834000       15.9994           0
     32061 TIP3     1142     TIP3     H1       HT       0.417000       1.00800           0
     32062 TIP3     1142     TIP3     H2       HT       0.417000       1.00800           0
     32063 TIP3     1143     TIP3     OH2      OT      -0.834000       15.9994           0
     32064 TIP3     1143     TIP3     H1       HT       0.417000       1.00800           0
     32065 TIP3     1143     TIP3     H2       HT       0.417000       1.00800           0
     32066 TIP3     1144     TIP3     OH2      OT      -0.834000       15.9994           0
     32067 TIP3     1144     TIP3     H1       HT       0.417000       1.00800           0
     32068 TIP3     1144     TIP3     H2       HT       0.417000       1.00800           0
     32069 TIP3     1145     TIP3     OH2      OT      -0.834000       15.9994           0
     32070 TIP3     1145     TIP3     H1       HT       0.417000       1.00800           0
     32071 TIP3     1145     TIP3     H2       HT       0.417000       1.00800           0
     32072 TIP3     1146     TIP3     OH2      OT      -0.834000       15.9994           0
     32073 TIP3     1146     TIP3     H1       HT       0.417000       1.00800           0
     32074 TIP3     1146     TIP3     H2       HT       0.417000       1.00800           0
     32075 TIP3     1147     TIP3     OH2      OT      -0.834000       15.9994           0
     32076 TIP3     1147     TIP3     H1       HT       0.417000       1.00800           0
     32077 TIP3     1147     TIP3     H2       HT       0.417000       1.00800           0
     32078 TIP3     1148     TIP3     OH2      OT      -0.834000       15.9994           0
     32079 TIP3     1148     TIP3     H1       HT       0.417000       1.00800           0
     32080 TIP3     1148     TIP3     H2       HT       0.417000       1.00800           0
     32081 TIP3     1149     TIP3     OH2      OT      -0.834000       15.9994           0
     32082 TIP3     1149     TIP3     H1       HT       0.417000       1.00800           0
     32083 TIP3     1149     TIP3     H2       HT       0.417000       1.00800           0
     32084 TIP3     1150     TIP3     OH2      OT      -0.834000       15.9994           0
     32085 TIP3     1150     TIP3     H1       HT       0.417000       1.00800           0
     32086 TIP3     1150     TIP3     H2       HT       0.417000       1.00800           0
     32087 TIP3     1151     TIP3     OH2      OT      -0.834000       15.9994           0
     32088 TIP3     1151     TIP3     H1       HT       0.417000       1.00800           0
     32089 TIP3     1151     TIP3     H2       HT       0.417000       1.00800           0
     32090 TIP3     1152     TIP3     OH2      OT      -0.834000       15.9994           0
     32091 TIP3     1152     TIP3     H1       HT       0.417000       1.00800           0
     32092 TIP3     1152     TIP3     H2       HT       0.417000       1.00800           0
     32093 TIP3     1153     TIP3     OH2      OT      -0.834000       15.9994           0
     32094 TIP3     1153     TIP3     H1       HT       0.417000       1.00800           0
     32095 TIP3     1153     TIP3     H2       HT       0.417000       1.00800           0
     32096 TIP3     1154     TIP3     OH2      OT      -0.834000       15.9994           0
     32097 TIP3     1154     TIP3     H1       HT       0.417000       1.00800           0
     32098 TIP3     1154     TIP3     H2       HT       0.417000       1.00800           0
     32099 TIP3     1155     TIP3     OH2      OT      -0.834000       15.9994           0
     32100 TIP3     1155     TIP3     H1       HT       0.417000       1.00800           0
     32101 TIP3     1155     TIP3     H2       HT       0.417000       1.00800           0
     32102 TIP3     1156     TIP3     OH2      OT      -0.834000       15.9994           0
     32103 TIP3     1156     TIP3     H1       HT       0.417000       1.00800           0
     32104 TIP3     1156     TIP3     H2       HT       0.417000       1.00800           0
     32105 TIP3     1157     TIP3     OH2      OT      -0.834000       15.9994           0
     32106 TIP3     1157     TIP3     H1       HT       0.417000       1.00800           0
     32107 TIP3     1157     TIP3     H2       HT       0.417000       1.00800           0
     32108 TIP3     1158     TIP3     OH2      OT      -0.834000       15.9994           0
     32109 TIP3     1158     TIP3     H1       HT       0.417000       1.00800           0
     32110 TIP3     1158     TIP3     H2       HT       0.417000       1.00800           0
     32111 TIP3     1159     TIP3     OH2      OT      -0.834000       15.9994           0
     32112 TIP3     1159     TIP3     H1       HT       0.417000       1.00800           0
     32113 TIP3     1159     TIP3     H2       HT       0.417000       1.00800           0
     32114 TIP3     1160     TIP3     OH2      OT      -0.834000       15.9994           0
     32115 TIP3     1160     TIP3     H1       HT       0.417000       1.00800           0
     32116 TIP3     1160     TIP3     H2       HT       0.417000       1.00800           0
     32117 TIP3     1161     TIP3     OH2      OT      -0.834000       15.9994           0
     32118 TIP3     1161     TIP3     H1       HT       0.417000       1.00800           0
     32119 TIP3     1161     TIP3     H2       HT       0.417000       1.00800           0
     32120 TIP3     1162     TIP3     OH2      OT      -0.834000       15.9994           0
     32121 TIP3     1162     TIP3     H1       HT       0.417000       1.00800           0
     32122 TIP3     1162     TIP3     H2       HT       0.417000       1.00800           0
     32123 TIP3     1163     TIP3     OH2      OT      -0.834000       15.9994           0
     32124 TIP3     1163     TIP3     H1       HT       0.417000       1.00800           0
     32125 TIP3     1163     TIP3     H2       HT       0.417000       1.00800           0
     32126 TIP3     1164     TIP3     OH2      OT      -0.834000       15.9994           0
     32127 TIP3     1164     TIP3     H1       HT       0.417000       1.00800           0
     32128 TIP3     1164     TIP3     H2       HT       0.417000       1.00800           0
     32129 TIP3     1165     TIP3     OH2      OT      -0.834000       15.9994           0
     32130 TIP3     1165     TIP3     H1       HT       0.417000       1.00800           0
     32131 TIP3     1165     TIP3     H2       HT       0.417000       1.00800           0
     32132 TIP3     1166     TIP3     OH2      OT      -0.834000       15.9994           0
     32133 TIP3     1166     TIP3     H1       HT       0.417000       1.00800           0
     32134 TIP3     1166     TIP3     H2       HT       0.417000       1.00800           0
     32135 TIP3     1167     TIP3     OH2      OT      -0.834000       15.9994           0
     32136 TIP3     1167     TIP3     H1       HT       0.417000       1.00800           0
     32137 TIP3     1167     TIP3     H2       HT       0.417000       1.00800           0
     32138 TIP3     1168     TIP3     OH2      OT      -0.834000       15.9994           0
     32139 TIP3     1168     TIP3     H1       HT       0.417000       1.00800           0
     32140 TIP3     1168     TIP3     H2       HT       0.417000       1.00800           0
     32141 TIP3     1169     TIP3     OH2      OT      -0.834000       15.9994           0
     32142 TIP3     1169     TIP3     H1       HT       0.417000       1.00800           0
     32143 TIP3     1169     TIP3     H2       HT       0.417000       1.00800           0
     32144 TIP3     1170     TIP3     OH2      OT      -0.834000       15.9994           0
     32145 TIP3     1170     TIP3     H1       HT       0.417000       1.00800           0
     32146 TIP3     1170     TIP3     H2       HT       0.417000       1.00800           0
     32147 TIP3     1171     TIP3     OH2      OT      -0.834000       15.9994           0
     32148 TIP3     1171     TIP3     H1       HT       0.417000       1.00800           0
     32149 TIP3     1171     TIP3     H2       HT       0.417000       1.00800           0
     32150 TIP3     1172     TIP3     OH2      OT      -0.834000       15.9994           0
     32151 TIP3     1172     TIP3     H1       HT       0.417000       1.00800           0
     32152 TIP3     1172     TIP3     H2       HT       0.417000       1.00800           0
     32153 TIP3     1173     TIP3     OH2      OT      -0.834000       15.9994           0
     32154 TIP3     1173     TIP3     H1       HT       0.417000       1.00800           0
     32155 TIP3     1173     TIP3     H2       HT       0.417000       1.00800           0
     32156 TIP3     1174     TIP3     OH2      OT      -0.834000       15.9994           0
     32157 TIP3     1174     TIP3     H1       HT       0.417000       1.00800           0
     32158 TIP3     1174     TIP3     H2       HT       0.417000       1.00800           0
     32159 TIP3     1175     TIP3     OH2      OT      -0.834000       15.9994           0
     32160 TIP3     1175     TIP3     H1       HT       0.417000       1.00800           0
     32161 TIP3     1175     TIP3     H2       HT       0.417000       1.00800           0
     32162 TIP3     1176     TIP3     OH2      OT      -0.834000       15.9994           0
     32163 TIP3     1176     TIP3     H1       HT       0.417000       1.00800           0
     32164 TIP3     1176     TIP3     H2       HT       0.417000       1.00800           0
     32165 TIP3     1177     TIP3     OH2      OT      -0.834000       15.9994           0
     32166 TIP3     1177     TIP3     H1       HT       0.417000       1.00800           0
     32167 TIP3     1177     TIP3     H2       HT       0.417000       1.00800           0
     32168 TIP3     1178     TIP3     OH2      OT      -0.834000       15.9994           0
     32169 TIP3     1178     TIP3     H1       HT       0.417000       1.00800           0
     32170 TIP3     1178     TIP3     H2       HT       0.417000       1.00800           0
     32171 TIP3     1179     TIP3     OH2      OT      -0.834000       15.9994           0
     32172 TIP3     1179     TIP3     H1       HT       0.417000       1.00800           0
     32173 TIP3     1179     TIP3     H2       HT       0.417000       1.00800           0
     32174 TIP3     1180     TIP3     OH2      OT      -0.834000       15.9994           0
     32175 TIP3     1180     TIP3     H1       HT       0.417000       1.00800           0
     32176 TIP3     1180     TIP3     H2       HT       0.417000       1.00800           0
     32177 TIP3     1181     TIP3     OH2      OT      -0.834000       15.9994           0
     32178 TIP3     1181     TIP3     H1       HT       0.417000       1.00800           0
     32179 TIP3     1181     TIP3     H2       HT       0.417000       1.00800           0
     32180 TIP3     1182     TIP3     OH2      OT      -0.834000       15.9994           0
     32181 TIP3     1182     TIP3     H1       HT       0.417000       1.00800           0
     32182 TIP3     1182     TIP3     H2       HT       0.417000       1.00800           0
     32183 TIP3     1183     TIP3     OH2      OT      -0.834000       15.9994           0
     32184 TIP3     1183     TIP3     H1       HT       0.417000       1.00800           0
     32185 TIP3     1183     TIP3     H2       HT       0.417000       1.00800           0
     32186 TIP3     1184     TIP3     OH2      OT      -0.834000       15.9994           0
     32187 TIP3     1184     TIP3     H1       HT       0.417000       1.00800           0
     32188 TIP3     1184     TIP3     H2       HT       0.417000       1.00800           0
     32189 TIP3     1185     TIP3     OH2      OT      -0.834000       15.9994           0
     32190 TIP3     1185     TIP3     H1       HT       0.417000       1.00800           0
     32191 TIP3     1185     TIP3     H2       HT       0.417000       1.00800           0
     32192 TIP3     1186     TIP3     OH2      OT      -0.834000       15.9994           0
     32193 TIP3     1186     TIP3     H1       HT       0.417000       1.00800           0
     32194 TIP3     1186     TIP3     H2       HT       0.417000       1.00800           0
     32195 TIP3     1187     TIP3     OH2      OT      -0.834000       15.9994           0
     32196 TIP3     1187     TIP3     H1       HT       0.417000       1.00800           0
     32197 TIP3     1187     TIP3     H2       HT       0.417000       1.00800           0
     32198 TIP3     1188     TIP3     OH2      OT      -0.834000       15.9994           0
     32199 TIP3     1188     TIP3     H1       HT       0.417000       1.00800           0
     32200 TIP3     1188     TIP3     H2       HT       0.417000       1.00800           0
     32201 TIP3     1189     TIP3     OH2      OT      -0.834000       15.9994           0
     32202 TIP3     1189     TIP3     H1       HT       0.417000       1.00800           0
     32203 TIP3     1189     TIP3     H2       HT       0.417000       1.00800           0
     32204 TIP3     1190     TIP3     OH2      OT      -0.834000       15.9994           0
     32205 TIP3     1190     TIP3     H1       HT       0.417000       1.00800           0
     32206 TIP3     1190     TIP3     H2       HT       0.417000       1.00800           0
     32207 TIP3     1191     TIP3     OH2      OT      -0.834000       15.9994           0
     32208 TIP3     1191     TIP3     H1       HT       0.417000       1.00800           0
     32209 TIP3     1191     TIP3     H2       HT       0.417000       1.00800           0
     32210 TIP3     1192     TIP3     OH2      OT      -0.834000       15.9994           0
     32211 TIP3     1192     TIP3     H1       HT       0.417000       1.00800           0
     32212 TIP3     1192     TIP3     H2       HT       0.417000       1.00800           0
     32213 TIP3     1193     TIP3     OH2      OT      -0.834000       15.9994           0
     32214 TIP3     1193     TIP3     H1       HT       0.417000       1.00800           0
     32215 TIP3     1193     TIP3     H2       HT       0.417000       1.00800           0
     32216 TIP3     1194     TIP3     OH2      OT      -0.834000       15.9994           0
     32217 TIP3     1194     TIP3     H1       HT       0.417000       1.00800           0
     32218 TIP3     1194     TIP3     H2       HT       0.417000       1.00800           0
     32219 TIP3     1195     TIP3     OH2      OT      -0.834000       15.9994           0
     32220 TIP3     1195     TIP3     H1       HT       0.417000       1.00800           0
     32221 TIP3     1195     TIP3     H2       HT       0.417000       1.00800           0
     32222 TIP3     1196     TIP3     OH2      OT      -0.834000       15.9994           0
     32223 TIP3     1196     TIP3     H1       HT       0.417000       1.00800           0
     32224 TIP3     1196     TIP3     H2       HT       0.417000       1.00800           0
     32225 TIP3     1197     TIP3     OH2      OT      -0.834000       15.9994           0
     32226 TIP3     1197     TIP3     H1       HT       0.417000       1.00800           0
     32227 TIP3     1197     TIP3     H2       HT       0.417000       1.00800           0
     32228 TIP3     1198     TIP3     OH2      OT      -0.834000       15.9994           0
     32229 TIP3     1198     TIP3     H1       HT       0.417000       1.00800           0
     32230 TIP3     1198     TIP3     H2       HT       0.417000       1.00800           0
     32231 TIP3     1199     TIP3     OH2      OT      -0.834000       15.9994           0
     32232 TIP3     1199     TIP3     H1       HT       0.417000       1.00800           0
     32233 TIP3     1199     TIP3     H2       HT       0.417000       1.00800           0
     32234 TIP3     1200     TIP3     OH2      OT      -0.834000       15.9994           0
     32235 TIP3     1200     TIP3     H1       HT       0.417000       1.00800           0
     32236 TIP3     1200     TIP3     H2       HT       0.417000       1.00800           0
     32237 TIP3     1201     TIP3     OH2      OT      -0.834000       15.9994           0
     32238 TIP3     1201     TIP3     H1       HT       0.417000       1.00800           0
     32239 TIP3     1201     TIP3     H2       HT       0.417000       1.00800           0
     32240 TIP3     1202     TIP3     OH2      OT      -0.834000       15.9994           0
     32241 TIP3     1202     TIP3     H1       HT       0.417000       1.00800           0
     32242 TIP3     1202     TIP3     H2       HT       0.417000       1.00800           0
     32243 TIP3     1203     TIP3     OH2      OT      -0.834000       15.9994           0
     32244 TIP3     1203     TIP3     H1       HT       0.417000       1.00800           0
     32245 TIP3     1203     TIP3     H2       HT       0.417000       1.00800           0
     32246 TIP3     1204     TIP3     OH2      OT      -0.834000       15.9994           0
     32247 TIP3     1204     TIP3     H1       HT       0.417000       1.00800           0
     32248 TIP3     1204     TIP3     H2       HT       0.417000       1.00800           0
     32249 TIP3     1205     TIP3     OH2      OT      -0.834000       15.9994           0
     32250 TIP3     1205     TIP3     H1       HT       0.417000       1.00800           0
     32251 TIP3     1205     TIP3     H2       HT       0.417000       1.00800           0
     32252 TIP3     1206     TIP3     OH2      OT      -0.834000       15.9994           0
     32253 TIP3     1206     TIP3     H1       HT       0.417000       1.00800           0
     32254 TIP3     1206     TIP3     H2       HT       0.417000       1.00800           0
     32255 TIP3     1207     TIP3     OH2      OT      -0.834000       15.9994           0
     32256 TIP3     1207     TIP3     H1       HT       0.417000       1.00800           0
     32257 TIP3     1207     TIP3     H2       HT       0.417000       1.00800           0
     32258 TIP3     1208     TIP3     OH2      OT      -0.834000       15.9994           0
     32259 TIP3     1208     TIP3     H1       HT       0.417000       1.00800           0
     32260 TIP3     1208     TIP3     H2       HT       0.417000       1.00800           0
     32261 TIP3     1209     TIP3     OH2      OT      -0.834000       15.9994           0
     32262 TIP3     1209     TIP3     H1       HT       0.417000       1.00800           0
     32263 TIP3     1209     TIP3     H2       HT       0.417000       1.00800           0
     32264 TIP3     1210     TIP3     OH2      OT      -0.834000       15.9994           0
     32265 TIP3     1210     TIP3     H1       HT       0.417000       1.00800           0
     32266 TIP3     1210     TIP3     H2       HT       0.417000       1.00800           0
     32267 TIP3     1211     TIP3     OH2      OT      -0.834000       15.9994           0
     32268 TIP3     1211     TIP3     H1       HT       0.417000       1.00800           0
     32269 TIP3     1211     TIP3     H2       HT       0.417000       1.00800           0
     32270 TIP3     1212     TIP3     OH2      OT      -0.834000       15.9994           0
     32271 TIP3     1212     TIP3     H1       HT       0.417000       1.00800           0
     32272 TIP3     1212     TIP3     H2       HT       0.417000       1.00800           0
     32273 TIP3     1213     TIP3     OH2      OT      -0.834000       15.9994           0
     32274 TIP3     1213     TIP3     H1       HT       0.417000       1.00800           0
     32275 TIP3     1213     TIP3     H2       HT       0.417000       1.00800           0
     32276 TIP3     1214     TIP3     OH2      OT      -0.834000       15.9994           0
     32277 TIP3     1214     TIP3     H1       HT       0.417000       1.00800           0
     32278 TIP3     1214     TIP3     H2       HT       0.417000       1.00800           0
     32279 TIP3     1215     TIP3     OH2      OT      -0.834000       15.9994           0
     32280 TIP3     1215     TIP3     H1       HT       0.417000       1.00800           0
     32281 TIP3     1215     TIP3     H2       HT       0.417000       1.00800           0
     32282 TIP3     1216     TIP3     OH2      OT      -0.834000       15.9994           0
     32283 TIP3     1216     TIP3     H1       HT       0.417000       1.00800           0
     32284 TIP3     1216     TIP3     H2       HT       0.417000       1.00800           0
     32285 TIP3     1217     TIP3     OH2      OT      -0.834000       15.9994           0
     32286 TIP3     1217     TIP3     H1       HT       0.417000       1.00800           0
     32287 TIP3     1217     TIP3     H2       HT       0.417000       1.00800           0
     32288 TIP3     1218     TIP3     OH2      OT      -0.834000       15.9994           0
     32289 TIP3     1218     TIP3     H1       HT       0.417000       1.00800           0
     32290 TIP3     1218     TIP3     H2       HT       0.417000       1.00800           0
     32291 TIP3     1219     TIP3     OH2      OT      -0.834000       15.9994           0
     32292 TIP3     1219     TIP3     H1       HT       0.417000       1.00800           0
     32293 TIP3     1219     TIP3     H2       HT       0.417000       1.00800           0
     32294 TIP3     1220     TIP3     OH2      OT      -0.834000       15.9994           0
     32295 TIP3     1220     TIP3     H1       HT       0.417000       1.00800           0
     32296 TIP3     1220     TIP3     H2       HT       0.417000       1.00800           0
     32297 TIP3     1221     TIP3     OH2      OT      -0.834000       15.9994           0
     32298 TIP3     1221     TIP3     H1       HT       0.417000       1.00800           0
     32299 TIP3     1221     TIP3     H2       HT       0.417000       1.00800           0
     32300 TIP3     1222     TIP3     OH2      OT      -0.834000       15.9994           0
     32301 TIP3     1222     TIP3     H1       HT       0.417000       1.00800           0
     32302 TIP3     1222     TIP3     H2       HT       0.417000       1.00800           0
     32303 TIP3     1223     TIP3     OH2      OT      -0.834000       15.9994           0
     32304 TIP3     1223     TIP3     H1       HT       0.417000       1.00800           0
     32305 TIP3     1223     TIP3     H2       HT       0.417000       1.00800           0
     32306 TIP3     1224     TIP3     OH2      OT      -0.834000       15.9994           0
     32307 TIP3     1224     TIP3     H1       HT       0.417000       1.00800           0
     32308 TIP3     1224     TIP3     H2       HT       0.417000       1.00800           0
     32309 TIP3     1225     TIP3     OH2      OT      -0.834000       15.9994           0
     32310 TIP3     1225     TIP3     H1       HT       0.417000       1.00800           0
     32311 TIP3     1225     TIP3     H2       HT       0.417000       1.00800           0
     32312 TIP3     1226     TIP3     OH2      OT      -0.834000       15.9994           0
     32313 TIP3     1226     TIP3     H1       HT       0.417000       1.00800           0
     32314 TIP3     1226     TIP3     H2       HT       0.417000       1.00800           0
     32315 TIP3     1227     TIP3     OH2      OT      -0.834000       15.9994           0
     32316 TIP3     1227     TIP3     H1       HT       0.417000       1.00800           0
     32317 TIP3     1227     TIP3     H2       HT       0.417000       1.00800           0
     32318 TIP3     1228     TIP3     OH2      OT      -0.834000       15.9994           0
     32319 TIP3     1228     TIP3     H1       HT       0.417000       1.00800           0
     32320 TIP3     1228     TIP3     H2       HT       0.417000       1.00800           0
     32321 TIP3     1229     TIP3     OH2      OT      -0.834000       15.9994           0
     32322 TIP3     1229     TIP3     H1       HT       0.417000       1.00800           0
     32323 TIP3     1229     TIP3     H2       HT       0.417000       1.00800           0
     32324 TIP3     1230     TIP3     OH2      OT      -0.834000       15.9994           0
     32325 TIP3     1230     TIP3     H1       HT       0.417000       1.00800           0
     32326 TIP3     1230     TIP3     H2       HT       0.417000       1.00800           0
     32327 TIP3     1231     TIP3     OH2      OT      -0.834000       15.9994           0
     32328 TIP3     1231     TIP3     H1       HT       0.417000       1.00800           0
     32329 TIP3     1231     TIP3     H2       HT       0.417000       1.00800           0
     32330 TIP3     1232     TIP3     OH2      OT      -0.834000       15.9994           0
     32331 TIP3     1232     TIP3     H1       HT       0.417000       1.00800           0
     32332 TIP3     1232     TIP3     H2       HT       0.417000       1.00800           0
     32333 TIP3     1233     TIP3     OH2      OT      -0.834000       15.9994           0
     32334 TIP3     1233     TIP3     H1       HT       0.417000       1.00800           0
     32335 TIP3     1233     TIP3     H2       HT       0.417000       1.00800           0
     32336 TIP3     1234     TIP3     OH2      OT      -0.834000       15.9994           0
     32337 TIP3     1234     TIP3     H1       HT       0.417000       1.00800           0
     32338 TIP3     1234     TIP3     H2       HT       0.417000       1.00800           0
     32339 TIP3     1235     TIP3     OH2      OT      -0.834000       15.9994           0
     32340 TIP3     1235     TIP3     H1       HT       0.417000       1.00800           0
     32341 TIP3     1235     TIP3     H2       HT       0.417000       1.00800           0
     32342 TIP3     1236     TIP3     OH2      OT      -0.834000       15.9994           0
     32343 TIP3     1236     TIP3     H1       HT       0.417000       1.00800           0
     32344 TIP3     1236     TIP3     H2       HT       0.417000       1.00800           0
     32345 TIP3     1237     TIP3     OH2      OT      -0.834000       15.9994           0
     32346 TIP3     1237     TIP3     H1       HT       0.417000       1.00800           0
     32347 TIP3     1237     TIP3     H2       HT       0.417000       1.00800           0
     32348 TIP3     1238     TIP3     OH2      OT      -0.834000       15.9994           0
     32349 TIP3     1238     TIP3     H1       HT       0.417000       1.00800           0
     32350 TIP3     1238     TIP3     H2       HT       0.417000       1.00800           0
     32351 TIP3     1239     TIP3     OH2      OT      -0.834000       15.9994           0
     32352 TIP3     1239     TIP3     H1       HT       0.417000       1.00800           0
     32353 TIP3     1239     TIP3     H2       HT       0.417000       1.00800           0
     32354 TIP3     1240     TIP3     OH2      OT      -0.834000       15.9994           0
     32355 TIP3     1240     TIP3     H1       HT       0.417000       1.00800           0
     32356 TIP3     1240     TIP3     H2       HT       0.417000       1.00800           0
     32357 TIP3     1241     TIP3     OH2      OT      -0.834000       15.9994           0
     32358 TIP3     1241     TIP3     H1       HT       0.417000       1.00800           0
     32359 TIP3     1241     TIP3     H2       HT       0.417000       1.00800           0
     32360 TIP3     1242     TIP3     OH2      OT      -0.834000       15.9994           0
     32361 TIP3     1242     TIP3     H1       HT       0.417000       1.00800           0
     32362 TIP3     1242     TIP3     H2       HT       0.417000       1.00800           0
     32363 TIP3     1243     TIP3     OH2      OT      -0.834000       15.9994           0
     32364 TIP3     1243     TIP3     H1       HT       0.417000       1.00800           0
     32365 TIP3     1243     TIP3     H2       HT       0.417000       1.00800           0
     32366 TIP3     1244     TIP3     OH2      OT      -0.834000       15.9994           0
     32367 TIP3     1244     TIP3     H1       HT       0.417000       1.00800           0
     32368 TIP3     1244     TIP3     H2       HT       0.417000       1.00800           0
     32369 TIP3     1245     TIP3     OH2      OT      -0.834000       15.9994           0
     32370 TIP3     1245     TIP3     H1       HT       0.417000       1.00800           0
     32371 TIP3     1245     TIP3     H2       HT       0.417000       1.00800           0
     32372 TIP3     1246     TIP3     OH2      OT      -0.834000       15.9994           0
     32373 TIP3     1246     TIP3     H1       HT       0.417000       1.00800           0
     32374 TIP3     1246     TIP3     H2       HT       0.417000       1.00800           0
     32375 TIP3     1247     TIP3     OH2      OT      -0.834000       15.9994           0
     32376 TIP3     1247     TIP3     H1       HT       0.417000       1.00800           0
     32377 TIP3     1247     TIP3     H2       HT       0.417000       1.00800           0
     32378 TIP3     1248     TIP3     OH2      OT      -0.834000       15.9994           0
     32379 TIP3     1248     TIP3     H1       HT       0.417000       1.00800           0
     32380 TIP3     1248     TIP3     H2       HT       0.417000       1.00800           0
     32381 TIP3     1249     TIP3     OH2      OT      -0.834000       15.9994           0
     32382 TIP3     1249     TIP3     H1       HT       0.417000       1.00800           0
     32383 TIP3     1249     TIP3     H2       HT       0.417000       1.00800           0
     32384 TIP3     1250     TIP3     OH2      OT      -0.834000       15.9994           0
     32385 TIP3     1250     TIP3     H1       HT       0.417000       1.00800           0
     32386 TIP3     1250     TIP3     H2       HT       0.417000       1.00800           0
     32387 TIP3     1251     TIP3     OH2      OT      -0.834000       15.9994           0
     32388 TIP3     1251     TIP3     H1       HT       0.417000       1.00800           0
     32389 TIP3     1251     TIP3     H2       HT       0.417000       1.00800           0
     32390 TIP3     1252     TIP3     OH2      OT      -0.834000       15.9994           0
     32391 TIP3     1252     TIP3     H1       HT       0.417000       1.00800           0
     32392 TIP3     1252     TIP3     H2       HT       0.417000       1.00800           0
     32393 TIP3     1253     TIP3     OH2      OT      -0.834000       15.9994           0
     32394 TIP3     1253     TIP3     H1       HT       0.417000       1.00800           0
     32395 TIP3     1253     TIP3     H2       HT       0.417000       1.00800           0
     32396 TIP3     1254     TIP3     OH2      OT      -0.834000       15.9994           0
     32397 TIP3     1254     TIP3     H1       HT       0.417000       1.00800           0
     32398 TIP3     1254     TIP3     H2       HT       0.417000       1.00800           0
     32399 TIP3     1255     TIP3     OH2      OT      -0.834000       15.9994           0
     32400 TIP3     1255     TIP3     H1       HT       0.417000       1.00800           0
     32401 TIP3     1255     TIP3     H2       HT       0.417000       1.00800           0
     32402 TIP3     1256     TIP3     OH2      OT      -0.834000       15.9994           0
     32403 TIP3     1256     TIP3     H1       HT       0.417000       1.00800           0
     32404 TIP3     1256     TIP3     H2       HT       0.417000       1.00800           0
     32405 TIP3     1257     TIP3     OH2      OT      -0.834000       15.9994           0
     32406 TIP3     1257     TIP3     H1       HT       0.417000       1.00800           0
     32407 TIP3     1257     TIP3     H2       HT       0.417000       1.00800           0
     32408 TIP3     1258     TIP3     OH2      OT      -0.834000       15.9994           0
     32409 TIP3     1258     TIP3     H1       HT       0.417000       1.00800           0
     32410 TIP3     1258     TIP3     H2       HT       0.417000       1.00800           0
     32411 TIP3     1259     TIP3     OH2      OT      -0.834000       15.9994           0
     32412 TIP3     1259     TIP3     H1       HT       0.417000       1.00800           0
     32413 TIP3     1259     TIP3     H2       HT       0.417000       1.00800           0
     32414 TIP3     1260     TIP3     OH2      OT      -0.834000       15.9994           0
     32415 TIP3     1260     TIP3     H1       HT       0.417000       1.00800           0
     32416 TIP3     1260     TIP3     H2       HT       0.417000       1.00800           0
     32417 TIP3     1261     TIP3     OH2      OT      -0.834000       15.9994           0
     32418 TIP3     1261     TIP3     H1       HT       0.417000       1.00800           0
     32419 TIP3     1261     TIP3     H2       HT       0.417000       1.00800           0
     32420 TIP3     1262     TIP3     OH2      OT      -0.834000       15.9994           0
     32421 TIP3     1262     TIP3     H1       HT       0.417000       1.00800           0
     32422 TIP3     1262     TIP3     H2       HT       0.417000       1.00800           0
     32423 TIP3     1263     TIP3     OH2      OT      -0.834000       15.9994           0
     32424 TIP3     1263     TIP3     H1       HT       0.417000       1.00800           0
     32425 TIP3     1263     TIP3     H2       HT       0.417000       1.00800           0
     32426 TIP3     1264     TIP3     OH2      OT      -0.834000       15.9994           0
     32427 TIP3     1264     TIP3     H1       HT       0.417000       1.00800           0
     32428 TIP3     1264     TIP3     H2       HT       0.417000       1.00800           0
     32429 TIP3     1265     TIP3     OH2      OT      -0.834000       15.9994           0
     32430 TIP3     1265     TIP3     H1       HT       0.417000       1.00800           0
     32431 TIP3     1265     TIP3     H2       HT       0.417000       1.00800           0
     32432 TIP3     1266     TIP3     OH2      OT      -0.834000       15.9994           0
     32433 TIP3     1266     TIP3     H1       HT       0.417000       1.00800           0
     32434 TIP3     1266     TIP3     H2       HT       0.417000       1.00800           0
     32435 TIP3     1267     TIP3     OH2      OT      -0.834000       15.9994           0
     32436 TIP3     1267     TIP3     H1       HT       0.417000       1.00800           0
     32437 TIP3     1267     TIP3     H2       HT       0.417000       1.00800           0
     32438 TIP3     1268     TIP3     OH2      OT      -0.834000       15.9994           0
     32439 TIP3     1268     TIP3     H1       HT       0.417000       1.00800           0
     32440 TIP3     1268     TIP3     H2       HT       0.417000       1.00800           0
     32441 TIP3     1269     TIP3     OH2      OT      -0.834000       15.9994           0
     32442 TIP3     1269     TIP3     H1       HT       0.417000       1.00800           0
     32443 TIP3     1269     TIP3     H2       HT       0.417000       1.00800           0
     32444 TIP3     1270     TIP3     OH2      OT      -0.834000       15.9994           0
     32445 TIP3     1270     TIP3     H1       HT       0.417000       1.00800           0
     32446 TIP3     1270     TIP3     H2       HT       0.417000       1.00800           0
     32447 TIP3     1271     TIP3     OH2      OT      -0.834000       15.9994           0
     32448 TIP3     1271     TIP3     H1       HT       0.417000       1.00800           0
     32449 TIP3     1271     TIP3     H2       HT       0.417000       1.00800           0
     32450 TIP3     1272     TIP3     OH2      OT      -0.834000       15.9994           0
     32451 TIP3     1272     TIP3     H1       HT       0.417000       1.00800           0
     32452 TIP3     1272     TIP3     H2       HT       0.417000       1.00800           0
     32453 TIP3     1273     TIP3     OH2      OT      -0.834000       15.9994           0
     32454 TIP3     1273     TIP3     H1       HT       0.417000       1.00800           0
     32455 TIP3     1273     TIP3     H2       HT       0.417000       1.00800           0
     32456 TIP3     1274     TIP3     OH2      OT      -0.834000       15.9994           0
     32457 TIP3     1274     TIP3     H1       HT       0.417000       1.00800           0
     32458 TIP3     1274     TIP3     H2       HT       0.417000       1.00800           0
     32459 TIP3     1275     TIP3     OH2      OT      -0.834000       15.9994           0
     32460 TIP3     1275     TIP3     H1       HT       0.417000       1.00800           0
     32461 TIP3     1275     TIP3     H2       HT       0.417000       1.00800           0
     32462 TIP3     1276     TIP3     OH2      OT      -0.834000       15.9994           0
     32463 TIP3     1276     TIP3     H1       HT       0.417000       1.00800           0
     32464 TIP3     1276     TIP3     H2       HT       0.417000       1.00800           0
     32465 TIP3     1277     TIP3     OH2      OT      -0.834000       15.9994           0
     32466 TIP3     1277     TIP3     H1       HT       0.417000       1.00800           0
     32467 TIP3     1277     TIP3     H2       HT       0.417000       1.00800           0
     32468 TIP3     1278     TIP3     OH2      OT      -0.834000       15.9994           0
     32469 TIP3     1278     TIP3     H1       HT       0.417000       1.00800           0
     32470 TIP3     1278     TIP3     H2       HT       0.417000       1.00800           0
     32471 TIP3     1279     TIP3     OH2      OT      -0.834000       15.9994           0
     32472 TIP3     1279     TIP3     H1       HT       0.417000       1.00800           0
     32473 TIP3     1279     TIP3     H2       HT       0.417000       1.00800           0
     32474 TIP3     1280     TIP3     OH2      OT      -0.834000       15.9994           0
     32475 TIP3     1280     TIP3     H1       HT       0.417000       1.00800           0
     32476 TIP3     1280     TIP3     H2       HT       0.417000       1.00800           0
     32477 TIP3     1281     TIP3     OH2      OT      -0.834000       15.9994           0
     32478 TIP3     1281     TIP3     H1       HT       0.417000       1.00800           0
     32479 TIP3     1281     TIP3     H2       HT       0.417000       1.00800           0
     32480 TIP3     1282     TIP3     OH2      OT      -0.834000       15.9994           0
     32481 TIP3     1282     TIP3     H1       HT       0.417000       1.00800           0
     32482 TIP3     1282     TIP3     H2       HT       0.417000       1.00800           0
     32483 TIP3     1283     TIP3     OH2      OT      -0.834000       15.9994           0
     32484 TIP3     1283     TIP3     H1       HT       0.417000       1.00800           0
     32485 TIP3     1283     TIP3     H2       HT       0.417000       1.00800           0
     32486 TIP3     1284     TIP3     OH2      OT      -0.834000       15.9994           0
     32487 TIP3     1284     TIP3     H1       HT       0.417000       1.00800           0
     32488 TIP3     1284     TIP3     H2       HT       0.417000       1.00800           0
     32489 TIP3     1285     TIP3     OH2      OT      -0.834000       15.9994           0
     32490 TIP3     1285     TIP3     H1       HT       0.417000       1.00800           0
     32491 TIP3     1285     TIP3     H2       HT       0.417000       1.00800           0
     32492 TIP3     1286     TIP3     OH2      OT      -0.834000       15.9994           0
     32493 TIP3     1286     TIP3     H1       HT       0.417000       1.00800           0
     32494 TIP3     1286     TIP3     H2       HT       0.417000       1.00800           0
     32495 TIP3     1287     TIP3     OH2      OT      -0.834000       15.9994           0
     32496 TIP3     1287     TIP3     H1       HT       0.417000       1.00800           0
     32497 TIP3     1287     TIP3     H2       HT       0.417000       1.00800           0
     32498 TIP3     1288     TIP3     OH2      OT      -0.834000       15.9994           0
     32499 TIP3     1288     TIP3     H1       HT       0.417000       1.00800           0
     32500 TIP3     1288     TIP3     H2       HT       0.417000       1.00800           0
     32501 TIP3     1289     TIP3     OH2      OT      -0.834000       15.9994           0
     32502 TIP3     1289     TIP3     H1       HT       0.417000       1.00800           0
     32503 TIP3     1289     TIP3     H2       HT       0.417000       1.00800           0
     32504 TIP3     1290     TIP3     OH2      OT      -0.834000       15.9994           0
     32505 TIP3     1290     TIP3     H1       HT       0.417000       1.00800           0
     32506 TIP3     1290     TIP3     H2       HT       0.417000       1.00800           0
     32507 TIP3     1291     TIP3     OH2      OT      -0.834000       15.9994           0
     32508 TIP3     1291     TIP3     H1       HT       0.417000       1.00800           0
     32509 TIP3     1291     TIP3     H2       HT       0.417000       1.00800           0
     32510 TIP3     1292     TIP3     OH2      OT      -0.834000       15.9994           0
     32511 TIP3     1292     TIP3     H1       HT       0.417000       1.00800           0
     32512 TIP3     1292     TIP3     H2       HT       0.417000       1.00800           0
     32513 TIP3     1293     TIP3     OH2      OT      -0.834000       15.9994           0
     32514 TIP3     1293     TIP3     H1       HT       0.417000       1.00800           0
     32515 TIP3     1293     TIP3     H2       HT       0.417000       1.00800           0
     32516 TIP3     1294     TIP3     OH2      OT      -0.834000       15.9994           0
     32517 TIP3     1294     TIP3     H1       HT       0.417000       1.00800           0
     32518 TIP3     1294     TIP3     H2       HT       0.417000       1.00800           0
     32519 TIP3     1295     TIP3     OH2      OT      -0.834000       15.9994           0
     32520 TIP3     1295     TIP3     H1       HT       0.417000       1.00800           0
     32521 TIP3     1295     TIP3     H2       HT       0.417000       1.00800           0
     32522 TIP3     1296     TIP3     OH2      OT      -0.834000       15.9994           0
     32523 TIP3     1296     TIP3     H1       HT       0.417000       1.00800           0
     32524 TIP3     1296     TIP3     H2       HT       0.417000       1.00800           0
     32525 TIP3     1297     TIP3     OH2      OT      -0.834000       15.9994           0
     32526 TIP3     1297     TIP3     H1       HT       0.417000       1.00800           0
     32527 TIP3     1297     TIP3     H2       HT       0.417000       1.00800           0
     32528 TIP3     1298     TIP3     OH2      OT      -0.834000       15.9994           0
     32529 TIP3     1298     TIP3     H1       HT       0.417000       1.00800           0
     32530 TIP3     1298     TIP3     H2       HT       0.417000       1.00800           0
     32531 TIP3     1299     TIP3     OH2      OT      -0.834000       15.9994           0
     32532 TIP3     1299     TIP3     H1       HT       0.417000       1.00800           0
     32533 TIP3     1299     TIP3     H2       HT       0.417000       1.00800           0
     32534 TIP3     1300     TIP3     OH2      OT      -0.834000       15.9994           0
     32535 TIP3     1300     TIP3     H1       HT       0.417000       1.00800           0
     32536 TIP3     1300     TIP3     H2       HT       0.417000       1.00800           0
     32537 TIP3     1301     TIP3     OH2      OT      -0.834000       15.9994           0
     32538 TIP3     1301     TIP3     H1       HT       0.417000       1.00800           0
     32539 TIP3     1301     TIP3     H2       HT       0.417000       1.00800           0
     32540 TIP3     1302     TIP3     OH2      OT      -0.834000       15.9994           0
     32541 TIP3     1302     TIP3     H1       HT       0.417000       1.00800           0
     32542 TIP3     1302     TIP3     H2       HT       0.417000       1.00800           0
     32543 TIP3     1303     TIP3     OH2      OT      -0.834000       15.9994           0
     32544 TIP3     1303     TIP3     H1       HT       0.417000       1.00800           0
     32545 TIP3     1303     TIP3     H2       HT       0.417000       1.00800           0
     32546 TIP3     1304     TIP3     OH2      OT      -0.834000       15.9994           0
     32547 TIP3     1304     TIP3     H1       HT       0.417000       1.00800           0
     32548 TIP3     1304     TIP3     H2       HT       0.417000       1.00800           0
     32549 TIP3     1305     TIP3     OH2      OT      -0.834000       15.9994           0
     32550 TIP3     1305     TIP3     H1       HT       0.417000       1.00800           0
     32551 TIP3     1305     TIP3     H2       HT       0.417000       1.00800           0
     32552 TIP3     1306     TIP3     OH2      OT      -0.834000       15.9994           0
     32553 TIP3     1306     TIP3     H1       HT       0.417000       1.00800           0
     32554 TIP3     1306     TIP3     H2       HT       0.417000       1.00800           0
     32555 TIP3     1307     TIP3     OH2      OT      -0.834000       15.9994           0
     32556 TIP3     1307     TIP3     H1       HT       0.417000       1.00800           0
     32557 TIP3     1307     TIP3     H2       HT       0.417000       1.00800           0
     32558 TIP3     1308     TIP3     OH2      OT      -0.834000       15.9994           0
     32559 TIP3     1308     TIP3     H1       HT       0.417000       1.00800           0
     32560 TIP3     1308     TIP3     H2       HT       0.417000       1.00800           0
     32561 TIP3     1309     TIP3     OH2      OT      -0.834000       15.9994           0
     32562 TIP3     1309     TIP3     H1       HT       0.417000       1.00800           0
     32563 TIP3     1309     TIP3     H2       HT       0.417000       1.00800           0
     32564 TIP3     1310     TIP3     OH2      OT      -0.834000       15.9994           0
     32565 TIP3     1310     TIP3     H1       HT       0.417000       1.00800           0
     32566 TIP3     1310     TIP3     H2       HT       0.417000       1.00800           0
     32567 TIP3     1311     TIP3     OH2      OT      -0.834000       15.9994           0
     32568 TIP3     1311     TIP3     H1       HT       0.417000       1.00800           0
     32569 TIP3     1311     TIP3     H2       HT       0.417000       1.00800           0
     32570 TIP3     1312     TIP3     OH2      OT      -0.834000       15.9994           0
     32571 TIP3     1312     TIP3     H1       HT       0.417000       1.00800           0
     32572 TIP3     1312     TIP3     H2       HT       0.417000       1.00800           0
     32573 TIP3     1313     TIP3     OH2      OT      -0.834000       15.9994           0
     32574 TIP3     1313     TIP3     H1       HT       0.417000       1.00800           0
     32575 TIP3     1313     TIP3     H2       HT       0.417000       1.00800           0
     32576 TIP3     1314     TIP3     OH2      OT      -0.834000       15.9994           0
     32577 TIP3     1314     TIP3     H1       HT       0.417000       1.00800           0
     32578 TIP3     1314     TIP3     H2       HT       0.417000       1.00800           0
     32579 TIP3     1315     TIP3     OH2      OT      -0.834000       15.9994           0
     32580 TIP3     1315     TIP3     H1       HT       0.417000       1.00800           0
     32581 TIP3     1315     TIP3     H2       HT       0.417000       1.00800           0
     32582 TIP3     1316     TIP3     OH2      OT      -0.834000       15.9994           0
     32583 TIP3     1316     TIP3     H1       HT       0.417000       1.00800           0
     32584 TIP3     1316     TIP3     H2       HT       0.417000       1.00800           0
     32585 TIP3     1317     TIP3     OH2      OT      -0.834000       15.9994           0
     32586 TIP3     1317     TIP3     H1       HT       0.417000       1.00800           0
     32587 TIP3     1317     TIP3     H2       HT       0.417000       1.00800           0
     32588 TIP3     1318     TIP3     OH2      OT      -0.834000       15.9994           0
     32589 TIP3     1318     TIP3     H1       HT       0.417000       1.00800           0
     32590 TIP3     1318     TIP3     H2       HT       0.417000       1.00800           0
     32591 TIP3     1319     TIP3     OH2      OT      -0.834000       15.9994           0
     32592 TIP3     1319     TIP3     H1       HT       0.417000       1.00800           0
     32593 TIP3     1319     TIP3     H2       HT       0.417000       1.00800           0
     32594 TIP3     1320     TIP3     OH2      OT      -0.834000       15.9994           0
     32595 TIP3     1320     TIP3     H1       HT       0.417000       1.00800           0
     32596 TIP3     1320     TIP3     H2       HT       0.417000       1.00800           0
     32597 TIP3     1321     TIP3     OH2      OT      -0.834000       15.9994           0
     32598 TIP3     1321     TIP3     H1       HT       0.417000       1.00800           0
     32599 TIP3     1321     TIP3     H2       HT       0.417000       1.00800           0
     32600 TIP3     1322     TIP3     OH2      OT      -0.834000       15.9994           0
     32601 TIP3     1322     TIP3     H1       HT       0.417000       1.00800           0
     32602 TIP3     1322     TIP3     H2       HT       0.417000       1.00800           0
     32603 TIP3     1323     TIP3     OH2      OT      -0.834000       15.9994           0
     32604 TIP3     1323     TIP3     H1       HT       0.417000       1.00800           0
     32605 TIP3     1323     TIP3     H2       HT       0.417000       1.00800           0
     32606 TIP3     1324     TIP3     OH2      OT      -0.834000       15.9994           0
     32607 TIP3     1324     TIP3     H1       HT       0.417000       1.00800           0
     32608 TIP3     1324     TIP3     H2       HT       0.417000       1.00800           0
     32609 TIP3     1325     TIP3     OH2      OT      -0.834000       15.9994           0
     32610 TIP3     1325     TIP3     H1       HT       0.417000       1.00800           0
     32611 TIP3     1325     TIP3     H2       HT       0.417000       1.00800           0
     32612 TIP3     1326     TIP3     OH2      OT      -0.834000       15.9994           0
     32613 TIP3     1326     TIP3     H1       HT       0.417000       1.00800           0
     32614 TIP3     1326     TIP3     H2       HT       0.417000       1.00800           0
     32615 TIP3     1327     TIP3     OH2      OT      -0.834000       15.9994           0
     32616 TIP3     1327     TIP3     H1       HT       0.417000       1.00800           0
     32617 TIP3     1327     TIP3     H2       HT       0.417000       1.00800           0
     32618 TIP3     1328     TIP3     OH2      OT      -0.834000       15.9994           0
     32619 TIP3     1328     TIP3     H1       HT       0.417000       1.00800           0
     32620 TIP3     1328     TIP3     H2       HT       0.417000       1.00800           0
     32621 TIP3     1329     TIP3     OH2      OT      -0.834000       15.9994           0
     32622 TIP3     1329     TIP3     H1       HT       0.417000       1.00800           0
     32623 TIP3     1329     TIP3     H2       HT       0.417000       1.00800           0
     32624 TIP3     1330     TIP3     OH2      OT      -0.834000       15.9994           0
     32625 TIP3     1330     TIP3     H1       HT       0.417000       1.00800           0
     32626 TIP3     1330     TIP3     H2       HT       0.417000       1.00800           0
     32627 TIP3     1331     TIP3     OH2      OT      -0.834000       15.9994           0
     32628 TIP3     1331     TIP3     H1       HT       0.417000       1.00800           0
     32629 TIP3     1331     TIP3     H2       HT       0.417000       1.00800           0
     32630 TIP3     1332     TIP3     OH2      OT      -0.834000       15.9994           0
     32631 TIP3     1332     TIP3     H1       HT       0.417000       1.00800           0
     32632 TIP3     1332     TIP3     H2       HT       0.417000       1.00800           0
     32633 TIP3     1333     TIP3     OH2      OT      -0.834000       15.9994           0
     32634 TIP3     1333     TIP3     H1       HT       0.417000       1.00800           0
     32635 TIP3     1333     TIP3     H2       HT       0.417000       1.00800           0
     32636 TIP3     1334     TIP3     OH2      OT      -0.834000       15.9994           0
     32637 TIP3     1334     TIP3     H1       HT       0.417000       1.00800           0
     32638 TIP3     1334     TIP3     H2       HT       0.417000       1.00800           0
     32639 TIP3     1335     TIP3     OH2      OT      -0.834000       15.9994           0
     32640 TIP3     1335     TIP3     H1       HT       0.417000       1.00800           0
     32641 TIP3     1335     TIP3     H2       HT       0.417000       1.00800           0
     32642 TIP3     1336     TIP3     OH2      OT      -0.834000       15.9994           0
     32643 TIP3     1336     TIP3     H1       HT       0.417000       1.00800           0
     32644 TIP3     1336     TIP3     H2       HT       0.417000       1.00800           0
     32645 TIP3     1337     TIP3     OH2      OT      -0.834000       15.9994           0
     32646 TIP3     1337     TIP3     H1       HT       0.417000       1.00800           0
     32647 TIP3     1337     TIP3     H2       HT       0.417000       1.00800           0
     32648 TIP3     1338     TIP3     OH2      OT      -0.834000       15.9994           0
     32649 TIP3     1338     TIP3     H1       HT       0.417000       1.00800           0
     32650 TIP3     1338     TIP3     H2       HT       0.417000       1.00800           0
     32651 TIP3     1339     TIP3     OH2      OT      -0.834000       15.9994           0
     32652 TIP3     1339     TIP3     H1       HT       0.417000       1.00800           0
     32653 TIP3     1339     TIP3     H2       HT       0.417000       1.00800           0
     32654 TIP3     1340     TIP3     OH2      OT      -0.834000       15.9994           0
     32655 TIP3     1340     TIP3     H1       HT       0.417000       1.00800           0
     32656 TIP3     1340     TIP3     H2       HT       0.417000       1.00800           0
     32657 TIP3     1341     TIP3     OH2      OT      -0.834000       15.9994           0
     32658 TIP3     1341     TIP3     H1       HT       0.417000       1.00800           0
     32659 TIP3     1341     TIP3     H2       HT       0.417000       1.00800           0
     32660 TIP3     1342     TIP3     OH2      OT      -0.834000       15.9994           0
     32661 TIP3     1342     TIP3     H1       HT       0.417000       1.00800           0
     32662 TIP3     1342     TIP3     H2       HT       0.417000       1.00800           0
     32663 TIP3     1343     TIP3     OH2      OT      -0.834000       15.9994           0
     32664 TIP3     1343     TIP3     H1       HT       0.417000       1.00800           0
     32665 TIP3     1343     TIP3     H2       HT       0.417000       1.00800           0
     32666 TIP3     1344     TIP3     OH2      OT      -0.834000       15.9994           0
     32667 TIP3     1344     TIP3     H1       HT       0.417000       1.00800           0
     32668 TIP3     1344     TIP3     H2       HT       0.417000       1.00800           0
     32669 TIP3     1345     TIP3     OH2      OT      -0.834000       15.9994           0
     32670 TIP3     1345     TIP3     H1       HT       0.417000       1.00800           0
     32671 TIP3     1345     TIP3     H2       HT       0.417000       1.00800           0
     32672 TIP3     1346     TIP3     OH2      OT      -0.834000       15.9994           0
     32673 TIP3     1346     TIP3     H1       HT       0.417000       1.00800           0
     32674 TIP3     1346     TIP3     H2       HT       0.417000       1.00800           0
     32675 TIP3     1347     TIP3     OH2      OT      -0.834000       15.9994           0
     32676 TIP3     1347     TIP3     H1       HT       0.417000       1.00800           0
     32677 TIP3     1347     TIP3     H2       HT       0.417000       1.00800           0
     32678 TIP3     1348     TIP3     OH2      OT      -0.834000       15.9994           0
     32679 TIP3     1348     TIP3     H1       HT       0.417000       1.00800           0
     32680 TIP3     1348     TIP3     H2       HT       0.417000       1.00800           0
     32681 TIP3     1349     TIP3     OH2      OT      -0.834000       15.9994           0
     32682 TIP3     1349     TIP3     H1       HT       0.417000       1.00800           0
     32683 TIP3     1349     TIP3     H2       HT       0.417000       1.00800           0
     32684 TIP3     1350     TIP3     OH2      OT      -0.834000       15.9994           0
     32685 TIP3     1350     TIP3     H1       HT       0.417000       1.00800           0
     32686 TIP3     1350     TIP3     H2       HT       0.417000       1.00800           0
     32687 TIP3     1351     TIP3     OH2      OT      -0.834000       15.9994           0
     32688 TIP3     1351     TIP3     H1       HT       0.417000       1.00800           0
     32689 TIP3     1351     TIP3     H2       HT       0.417000       1.00800           0
     32690 TIP3     1352     TIP3     OH2      OT      -0.834000       15.9994           0
     32691 TIP3     1352     TIP3     H1       HT       0.417000       1.00800           0
     32692 TIP3     1352     TIP3     H2       HT       0.417000       1.00800           0
     32693 TIP3     1353     TIP3     OH2      OT      -0.834000       15.9994           0
     32694 TIP3     1353     TIP3     H1       HT       0.417000       1.00800           0
     32695 TIP3     1353     TIP3     H2       HT       0.417000       1.00800           0
     32696 TIP3     1354     TIP3     OH2      OT      -0.834000       15.9994           0
     32697 TIP3     1354     TIP3     H1       HT       0.417000       1.00800           0
     32698 TIP3     1354     TIP3     H2       HT       0.417000       1.00800           0
     32699 TIP3     1355     TIP3     OH2      OT      -0.834000       15.9994           0
     32700 TIP3     1355     TIP3     H1       HT       0.417000       1.00800           0
     32701 TIP3     1355     TIP3     H2       HT       0.417000       1.00800           0
     32702 TIP3     1356     TIP3     OH2      OT      -0.834000       15.9994           0
     32703 TIP3     1356     TIP3     H1       HT       0.417000       1.00800           0
     32704 TIP3     1356     TIP3     H2       HT       0.417000       1.00800           0
     32705 TIP3     1357     TIP3     OH2      OT      -0.834000       15.9994           0
     32706 TIP3     1357     TIP3     H1       HT       0.417000       1.00800           0
     32707 TIP3     1357     TIP3     H2       HT       0.417000       1.00800           0
     32708 TIP3     1358     TIP3     OH2      OT      -0.834000       15.9994           0
     32709 TIP3     1358     TIP3     H1       HT       0.417000       1.00800           0
     32710 TIP3     1358     TIP3     H2       HT       0.417000       1.00800           0
     32711 TIP3     1359     TIP3     OH2      OT      -0.834000       15.9994           0
     32712 TIP3     1359     TIP3     H1       HT       0.417000       1.00800           0
     32713 TIP3     1359     TIP3     H2       HT       0.417000       1.00800           0
     32714 TIP3     1360     TIP3     OH2      OT      -0.834000       15.9994           0
     32715 TIP3     1360     TIP3     H1       HT       0.417000       1.00800           0
     32716 TIP3     1360     TIP3     H2       HT       0.417000       1.00800           0
     32717 TIP3     1361     TIP3     OH2      OT      -0.834000       15.9994           0
     32718 TIP3     1361     TIP3     H1       HT       0.417000       1.00800           0
     32719 TIP3     1361     TIP3     H2       HT       0.417000       1.00800           0
     32720 TIP3     1362     TIP3     OH2      OT      -0.834000       15.9994           0
     32721 TIP3     1362     TIP3     H1       HT       0.417000       1.00800           0
     32722 TIP3     1362     TIP3     H2       HT       0.417000       1.00800           0
     32723 TIP3     1363     TIP3     OH2      OT      -0.834000       15.9994           0
     32724 TIP3     1363     TIP3     H1       HT       0.417000       1.00800           0
     32725 TIP3     1363     TIP3     H2       HT       0.417000       1.00800           0
     32726 TIP3     1364     TIP3     OH2      OT      -0.834000       15.9994           0
     32727 TIP3     1364     TIP3     H1       HT       0.417000       1.00800           0
     32728 TIP3     1364     TIP3     H2       HT       0.417000       1.00800           0
     32729 TIP3     1365     TIP3     OH2      OT      -0.834000       15.9994           0
     32730 TIP3     1365     TIP3     H1       HT       0.417000       1.00800           0
     32731 TIP3     1365     TIP3     H2       HT       0.417000       1.00800           0
     32732 TIP3     1366     TIP3     OH2      OT      -0.834000       15.9994           0
     32733 TIP3     1366     TIP3     H1       HT       0.417000       1.00800           0
     32734 TIP3     1366     TIP3     H2       HT       0.417000       1.00800           0
     32735 TIP3     1367     TIP3     OH2      OT      -0.834000       15.9994           0
     32736 TIP3     1367     TIP3     H1       HT       0.417000       1.00800           0
     32737 TIP3     1367     TIP3     H2       HT       0.417000       1.00800           0
     32738 TIP3     1368     TIP3     OH2      OT      -0.834000       15.9994           0
     32739 TIP3     1368     TIP3     H1       HT       0.417000       1.00800           0
     32740 TIP3     1368     TIP3     H2       HT       0.417000       1.00800           0
     32741 TIP3     1369     TIP3     OH2      OT      -0.834000       15.9994           0
     32742 TIP3     1369     TIP3     H1       HT       0.417000       1.00800           0
     32743 TIP3     1369     TIP3     H2       HT       0.417000       1.00800           0
     32744 TIP3     1370     TIP3     OH2      OT      -0.834000       15.9994           0
     32745 TIP3     1370     TIP3     H1       HT       0.417000       1.00800           0
     32746 TIP3     1370     TIP3     H2       HT       0.417000       1.00800           0
     32747 TIP3     1371     TIP3     OH2      OT      -0.834000       15.9994           0
     32748 TIP3     1371     TIP3     H1       HT       0.417000       1.00800           0
     32749 TIP3     1371     TIP3     H2       HT       0.417000       1.00800           0
     32750 TIP3     1372     TIP3     OH2      OT      -0.834000       15.9994           0
     32751 TIP3     1372     TIP3     H1       HT       0.417000       1.00800           0
     32752 TIP3     1372     TIP3     H2       HT       0.417000       1.00800           0
     32753 TIP3     1373     TIP3     OH2      OT      -0.834000       15.9994           0
     32754 TIP3     1373     TIP3     H1       HT       0.417000       1.00800           0
     32755 TIP3     1373     TIP3     H2       HT       0.417000       1.00800           0
     32756 TIP3     1374     TIP3     OH2      OT      -0.834000       15.9994           0
     32757 TIP3     1374     TIP3     H1       HT       0.417000       1.00800           0
     32758 TIP3     1374     TIP3     H2       HT       0.417000       1.00800           0
     32759 TIP3     1375     TIP3     OH2      OT      -0.834000       15.9994           0
     32760 TIP3     1375     TIP3     H1       HT       0.417000       1.00800           0
     32761 TIP3     1375     TIP3     H2       HT       0.417000       1.00800           0
     32762 TIP3     1376     TIP3     OH2      OT      -0.834000       15.9994           0
     32763 TIP3     1376     TIP3     H1       HT       0.417000       1.00800           0
     32764 TIP3     1376     TIP3     H2       HT       0.417000       1.00800           0
     32765 TIP3     1377     TIP3     OH2      OT      -0.834000       15.9994           0
     32766 TIP3     1377     TIP3     H1       HT       0.417000       1.00800           0
     32767 TIP3     1377     TIP3     H2       HT       0.417000       1.00800           0
     32768 TIP3     1378     TIP3     OH2      OT      -0.834000       15.9994           0
     32769 TIP3     1378     TIP3     H1       HT       0.417000       1.00800           0
     32770 TIP3     1378     TIP3     H2       HT       0.417000       1.00800           0
     32771 TIP3     1379     TIP3     OH2      OT      -0.834000       15.9994           0
     32772 TIP3     1379     TIP3     H1       HT       0.417000       1.00800           0
     32773 TIP3     1379     TIP3     H2       HT       0.417000       1.00800           0
     32774 TIP3     1380     TIP3     OH2      OT      -0.834000       15.9994           0
     32775 TIP3     1380     TIP3     H1       HT       0.417000       1.00800           0
     32776 TIP3     1380     TIP3     H2       HT       0.417000       1.00800           0
     32777 TIP3     1381     TIP3     OH2      OT      -0.834000       15.9994           0
     32778 TIP3     1381     TIP3     H1       HT       0.417000       1.00800           0
     32779 TIP3     1381     TIP3     H2       HT       0.417000       1.00800           0
     32780 TIP3     1382     TIP3     OH2      OT      -0.834000       15.9994           0
     32781 TIP3     1382     TIP3     H1       HT       0.417000       1.00800           0
     32782 TIP3     1382     TIP3     H2       HT       0.417000       1.00800           0
     32783 TIP3     1383     TIP3     OH2      OT      -0.834000       15.9994           0
     32784 TIP3     1383     TIP3     H1       HT       0.417000       1.00800           0
     32785 TIP3     1383     TIP3     H2       HT       0.417000       1.00800           0
     32786 TIP3     1384     TIP3     OH2      OT      -0.834000       15.9994           0
     32787 TIP3     1384     TIP3     H1       HT       0.417000       1.00800           0
     32788 TIP3     1384     TIP3     H2       HT       0.417000       1.00800           0
     32789 TIP3     1385     TIP3     OH2      OT      -0.834000       15.9994           0
     32790 TIP3     1385     TIP3     H1       HT       0.417000       1.00800           0
     32791 TIP3     1385     TIP3     H2       HT       0.417000       1.00800           0
     32792 TIP3     1386     TIP3     OH2      OT      -0.834000       15.9994           0
     32793 TIP3     1386     TIP3     H1       HT       0.417000       1.00800           0
     32794 TIP3     1386     TIP3     H2       HT       0.417000       1.00800           0
     32795 TIP3     1387     TIP3     OH2      OT      -0.834000       15.9994           0
     32796 TIP3     1387     TIP3     H1       HT       0.417000       1.00800           0
     32797 TIP3     1387     TIP3     H2       HT       0.417000       1.00800           0
     32798 TIP3     1388     TIP3     OH2      OT      -0.834000       15.9994           0
     32799 TIP3     1388     TIP3     H1       HT       0.417000       1.00800           0
     32800 TIP3     1388     TIP3     H2       HT       0.417000       1.00800           0
     32801 TIP3     1389     TIP3     OH2      OT      -0.834000       15.9994           0
     32802 TIP3     1389     TIP3     H1       HT       0.417000       1.00800           0
     32803 TIP3     1389     TIP3     H2       HT       0.417000       1.00800           0
     32804 TIP3     1390     TIP3     OH2      OT      -0.834000       15.9994           0
     32805 TIP3     1390     TIP3     H1       HT       0.417000       1.00800           0
     32806 TIP3     1390     TIP3     H2       HT       0.417000       1.00800           0
     32807 TIP3     1391     TIP3     OH2      OT      -0.834000       15.9994           0
     32808 TIP3     1391     TIP3     H1       HT       0.417000       1.00800           0
     32809 TIP3     1391     TIP3     H2       HT       0.417000       1.00800           0
     32810 TIP3     1392     TIP3     OH2      OT      -0.834000       15.9994           0
     32811 TIP3     1392     TIP3     H1       HT       0.417000       1.00800           0
     32812 TIP3     1392     TIP3     H2       HT       0.417000       1.00800           0
     32813 TIP3     1393     TIP3     OH2      OT      -0.834000       15.9994           0
     32814 TIP3     1393     TIP3     H1       HT       0.417000       1.00800           0
     32815 TIP3     1393     TIP3     H2       HT       0.417000       1.00800           0
     32816 TIP3     1394     TIP3     OH2      OT      -0.834000       15.9994           0
     32817 TIP3     1394     TIP3     H1       HT       0.417000       1.00800           0
     32818 TIP3     1394     TIP3     H2       HT       0.417000       1.00800           0
     32819 TIP3     1395     TIP3     OH2      OT      -0.834000       15.9994           0
     32820 TIP3     1395     TIP3     H1       HT       0.417000       1.00800           0
     32821 TIP3     1395     TIP3     H2       HT       0.417000       1.00800           0
     32822 TIP3     1396     TIP3     OH2      OT      -0.834000       15.9994           0
     32823 TIP3     1396     TIP3     H1       HT       0.417000       1.00800           0
     32824 TIP3     1396     TIP3     H2       HT       0.417000       1.00800           0
     32825 TIP3     1397     TIP3     OH2      OT      -0.834000       15.9994           0
     32826 TIP3     1397     TIP3     H1       HT       0.417000       1.00800           0
     32827 TIP3     1397     TIP3     H2       HT       0.417000       1.00800           0
     32828 TIP3     1398     TIP3     OH2      OT      -0.834000       15.9994           0
     32829 TIP3     1398     TIP3     H1       HT       0.417000       1.00800           0
     32830 TIP3     1398     TIP3     H2       HT       0.417000       1.00800           0
     32831 TIP3     1399     TIP3     OH2      OT      -0.834000       15.9994           0
     32832 TIP3     1399     TIP3     H1       HT       0.417000       1.00800           0
     32833 TIP3     1399     TIP3     H2       HT       0.417000       1.00800           0
     32834 TIP3     1400     TIP3     OH2      OT      -0.834000       15.9994           0
     32835 TIP3     1400     TIP3     H1       HT       0.417000       1.00800           0
     32836 TIP3     1400     TIP3     H2       HT       0.417000       1.00800           0
     32837 TIP3     1401     TIP3     OH2      OT      -0.834000       15.9994           0
     32838 TIP3     1401     TIP3     H1       HT       0.417000       1.00800           0
     32839 TIP3     1401     TIP3     H2       HT       0.417000       1.00800           0
     32840 TIP3     1402     TIP3     OH2      OT      -0.834000       15.9994           0
     32841 TIP3     1402     TIP3     H1       HT       0.417000       1.00800           0
     32842 TIP3     1402     TIP3     H2       HT       0.417000       1.00800           0
     32843 TIP3     1403     TIP3     OH2      OT      -0.834000       15.9994           0
     32844 TIP3     1403     TIP3     H1       HT       0.417000       1.00800           0
     32845 TIP3     1403     TIP3     H2       HT       0.417000       1.00800           0
     32846 TIP3     1404     TIP3     OH2      OT      -0.834000       15.9994           0
     32847 TIP3     1404     TIP3     H1       HT       0.417000       1.00800           0
     32848 TIP3     1404     TIP3     H2       HT       0.417000       1.00800           0
     32849 TIP3     1405     TIP3     OH2      OT      -0.834000       15.9994           0
     32850 TIP3     1405     TIP3     H1       HT       0.417000       1.00800           0
     32851 TIP3     1405     TIP3     H2       HT       0.417000       1.00800           0
     32852 TIP3     1406     TIP3     OH2      OT      -0.834000       15.9994           0
     32853 TIP3     1406     TIP3     H1       HT       0.417000       1.00800           0
     32854 TIP3     1406     TIP3     H2       HT       0.417000       1.00800           0
     32855 TIP3     1407     TIP3     OH2      OT      -0.834000       15.9994           0
     32856 TIP3     1407     TIP3     H1       HT       0.417000       1.00800           0
     32857 TIP3     1407     TIP3     H2       HT       0.417000       1.00800           0
     32858 TIP3     1408     TIP3     OH2      OT      -0.834000       15.9994           0
     32859 TIP3     1408     TIP3     H1       HT       0.417000       1.00800           0
     32860 TIP3     1408     TIP3     H2       HT       0.417000       1.00800           0
     32861 TIP3     1409     TIP3     OH2      OT      -0.834000       15.9994           0
     32862 TIP3     1409     TIP3     H1       HT       0.417000       1.00800           0
     32863 TIP3     1409     TIP3     H2       HT       0.417000       1.00800           0
     32864 TIP3     1410     TIP3     OH2      OT      -0.834000       15.9994           0
     32865 TIP3     1410     TIP3     H1       HT       0.417000       1.00800           0
     32866 TIP3     1410     TIP3     H2       HT       0.417000       1.00800           0
     32867 TIP3     1411     TIP3     OH2      OT      -0.834000       15.9994           0
     32868 TIP3     1411     TIP3     H1       HT       0.417000       1.00800           0
     32869 TIP3     1411     TIP3     H2       HT       0.417000       1.00800           0
     32870 TIP3     1412     TIP3     OH2      OT      -0.834000       15.9994           0
     32871 TIP3     1412     TIP3     H1       HT       0.417000       1.00800           0
     32872 TIP3     1412     TIP3     H2       HT       0.417000       1.00800           0
     32873 TIP3     1413     TIP3     OH2      OT      -0.834000       15.9994           0
     32874 TIP3     1413     TIP3     H1       HT       0.417000       1.00800           0
     32875 TIP3     1413     TIP3     H2       HT       0.417000       1.00800           0
     32876 TIP3     1414     TIP3     OH2      OT      -0.834000       15.9994           0
     32877 TIP3     1414     TIP3     H1       HT       0.417000       1.00800           0
     32878 TIP3     1414     TIP3     H2       HT       0.417000       1.00800           0
     32879 TIP3     1415     TIP3     OH2      OT      -0.834000       15.9994           0
     32880 TIP3     1415     TIP3     H1       HT       0.417000       1.00800           0
     32881 TIP3     1415     TIP3     H2       HT       0.417000       1.00800           0
     32882 TIP3     1416     TIP3     OH2      OT      -0.834000       15.9994           0
     32883 TIP3     1416     TIP3     H1       HT       0.417000       1.00800           0
     32884 TIP3     1416     TIP3     H2       HT       0.417000       1.00800           0
     32885 TIP3     1417     TIP3     OH2      OT      -0.834000       15.9994           0
     32886 TIP3     1417     TIP3     H1       HT       0.417000       1.00800           0
     32887 TIP3     1417     TIP3     H2       HT       0.417000       1.00800           0
     32888 TIP3     1418     TIP3     OH2      OT      -0.834000       15.9994           0
     32889 TIP3     1418     TIP3     H1       HT       0.417000       1.00800           0
     32890 TIP3     1418     TIP3     H2       HT       0.417000       1.00800           0
     32891 TIP3     1419     TIP3     OH2      OT      -0.834000       15.9994           0
     32892 TIP3     1419     TIP3     H1       HT       0.417000       1.00800           0
     32893 TIP3     1419     TIP3     H2       HT       0.417000       1.00800           0
     32894 TIP3     1420     TIP3     OH2      OT      -0.834000       15.9994           0
     32895 TIP3     1420     TIP3     H1       HT       0.417000       1.00800           0
     32896 TIP3     1420     TIP3     H2       HT       0.417000       1.00800           0
     32897 TIP3     1421     TIP3     OH2      OT      -0.834000       15.9994           0
     32898 TIP3     1421     TIP3     H1       HT       0.417000       1.00800           0
     32899 TIP3     1421     TIP3     H2       HT       0.417000       1.00800           0
     32900 TIP3     1422     TIP3     OH2      OT      -0.834000       15.9994           0
     32901 TIP3     1422     TIP3     H1       HT       0.417000       1.00800           0
     32902 TIP3     1422     TIP3     H2       HT       0.417000       1.00800           0
     32903 TIP3     1423     TIP3     OH2      OT      -0.834000       15.9994           0
     32904 TIP3     1423     TIP3     H1       HT       0.417000       1.00800           0
     32905 TIP3     1423     TIP3     H2       HT       0.417000       1.00800           0
     32906 TIP3     1424     TIP3     OH2      OT      -0.834000       15.9994           0
     32907 TIP3     1424     TIP3     H1       HT       0.417000       1.00800           0
     32908 TIP3     1424     TIP3     H2       HT       0.417000       1.00800           0
     32909 TIP3     1425     TIP3     OH2      OT      -0.834000       15.9994           0
     32910 TIP3     1425     TIP3     H1       HT       0.417000       1.00800           0
     32911 TIP3     1425     TIP3     H2       HT       0.417000       1.00800           0
     32912 TIP3     1426     TIP3     OH2      OT      -0.834000       15.9994           0
     32913 TIP3     1426     TIP3     H1       HT       0.417000       1.00800           0
     32914 TIP3     1426     TIP3     H2       HT       0.417000       1.00800           0
     32915 TIP3     1427     TIP3     OH2      OT      -0.834000       15.9994           0
     32916 TIP3     1427     TIP3     H1       HT       0.417000       1.00800           0
     32917 TIP3     1427     TIP3     H2       HT       0.417000       1.00800           0
     32918 TIP3     1428     TIP3     OH2      OT      -0.834000       15.9994           0
     32919 TIP3     1428     TIP3     H1       HT       0.417000       1.00800           0
     32920 TIP3     1428     TIP3     H2       HT       0.417000       1.00800           0
     32921 TIP3     1429     TIP3     OH2      OT      -0.834000       15.9994           0
     32922 TIP3     1429     TIP3     H1       HT       0.417000       1.00800           0
     32923 TIP3     1429     TIP3     H2       HT       0.417000       1.00800           0
     32924 TIP3     1430     TIP3     OH2      OT      -0.834000       15.9994           0
     32925 TIP3     1430     TIP3     H1       HT       0.417000       1.00800           0
     32926 TIP3     1430     TIP3     H2       HT       0.417000       1.00800           0
     32927 TIP3     1431     TIP3     OH2      OT      -0.834000       15.9994           0
     32928 TIP3     1431     TIP3     H1       HT       0.417000       1.00800           0
     32929 TIP3     1431     TIP3     H2       HT       0.417000       1.00800           0
     32930 TIP3     1432     TIP3     OH2      OT      -0.834000       15.9994           0
     32931 TIP3     1432     TIP3     H1       HT       0.417000       1.00800           0
     32932 TIP3     1432     TIP3     H2       HT       0.417000       1.00800           0
     32933 TIP3     1433     TIP3     OH2      OT      -0.834000       15.9994           0
     32934 TIP3     1433     TIP3     H1       HT       0.417000       1.00800           0
     32935 TIP3     1433     TIP3     H2       HT       0.417000       1.00800           0
     32936 TIP3     1434     TIP3     OH2      OT      -0.834000       15.9994           0
     32937 TIP3     1434     TIP3     H1       HT       0.417000       1.00800           0
     32938 TIP3     1434     TIP3     H2       HT       0.417000       1.00800           0
     32939 TIP3     1435     TIP3     OH2      OT      -0.834000       15.9994           0
     32940 TIP3     1435     TIP3     H1       HT       0.417000       1.00800           0
     32941 TIP3     1435     TIP3     H2       HT       0.417000       1.00800           0
     32942 TIP3     1436     TIP3     OH2      OT      -0.834000       15.9994           0
     32943 TIP3     1436     TIP3     H1       HT       0.417000       1.00800           0
     32944 TIP3     1436     TIP3     H2       HT       0.417000       1.00800           0
     32945 TIP3     1437     TIP3     OH2      OT      -0.834000       15.9994           0
     32946 TIP3     1437     TIP3     H1       HT       0.417000       1.00800           0
     32947 TIP3     1437     TIP3     H2       HT       0.417000       1.00800           0
     32948 TIP3     1438     TIP3     OH2      OT      -0.834000       15.9994           0
     32949 TIP3     1438     TIP3     H1       HT       0.417000       1.00800           0
     32950 TIP3     1438     TIP3     H2       HT       0.417000       1.00800           0
     32951 TIP3     1439     TIP3     OH2      OT      -0.834000       15.9994           0
     32952 TIP3     1439     TIP3     H1       HT       0.417000       1.00800           0
     32953 TIP3     1439     TIP3     H2       HT       0.417000       1.00800           0
     32954 TIP3     1440     TIP3     OH2      OT      -0.834000       15.9994           0
     32955 TIP3     1440     TIP3     H1       HT       0.417000       1.00800           0
     32956 TIP3     1440     TIP3     H2       HT       0.417000       1.00800           0
     32957 TIP3     1441     TIP3     OH2      OT      -0.834000       15.9994           0
     32958 TIP3     1441     TIP3     H1       HT       0.417000       1.00800           0
     32959 TIP3     1441     TIP3     H2       HT       0.417000       1.00800           0
     32960 TIP3     1442     TIP3     OH2      OT      -0.834000       15.9994           0
     32961 TIP3     1442     TIP3     H1       HT       0.417000       1.00800           0
     32962 TIP3     1442     TIP3     H2       HT       0.417000       1.00800           0
     32963 TIP3     1443     TIP3     OH2      OT      -0.834000       15.9994           0
     32964 TIP3     1443     TIP3     H1       HT       0.417000       1.00800           0
     32965 TIP3     1443     TIP3     H2       HT       0.417000       1.00800           0
     32966 TIP3     1444     TIP3     OH2      OT      -0.834000       15.9994           0
     32967 TIP3     1444     TIP3     H1       HT       0.417000       1.00800           0
     32968 TIP3     1444     TIP3     H2       HT       0.417000       1.00800           0
     32969 TIP3     1445     TIP3     OH2      OT      -0.834000       15.9994           0
     32970 TIP3     1445     TIP3     H1       HT       0.417000       1.00800           0
     32971 TIP3     1445     TIP3     H2       HT       0.417000       1.00800           0
     32972 TIP3     1446     TIP3     OH2      OT      -0.834000       15.9994           0
     32973 TIP3     1446     TIP3     H1       HT       0.417000       1.00800           0
     32974 TIP3     1446     TIP3     H2       HT       0.417000       1.00800           0
     32975 TIP3     1447     TIP3     OH2      OT      -0.834000       15.9994           0
     32976 TIP3     1447     TIP3     H1       HT       0.417000       1.00800           0
     32977 TIP3     1447     TIP3     H2       HT       0.417000       1.00800           0
     32978 TIP3     1448     TIP3     OH2      OT      -0.834000       15.9994           0
     32979 TIP3     1448     TIP3     H1       HT       0.417000       1.00800           0
     32980 TIP3     1448     TIP3     H2       HT       0.417000       1.00800           0
     32981 TIP3     1449     TIP3     OH2      OT      -0.834000       15.9994           0
     32982 TIP3     1449     TIP3     H1       HT       0.417000       1.00800           0
     32983 TIP3     1449     TIP3     H2       HT       0.417000       1.00800           0
     32984 TIP3     1450     TIP3     OH2      OT      -0.834000       15.9994           0
     32985 TIP3     1450     TIP3     H1       HT       0.417000       1.00800           0
     32986 TIP3     1450     TIP3     H2       HT       0.417000       1.00800           0
     32987 TIP3     1451     TIP3     OH2      OT      -0.834000       15.9994           0
     32988 TIP3     1451     TIP3     H1       HT       0.417000       1.00800           0
     32989 TIP3     1451     TIP3     H2       HT       0.417000       1.00800           0
     32990 TIP3     1452     TIP3     OH2      OT      -0.834000       15.9994           0
     32991 TIP3     1452     TIP3     H1       HT       0.417000       1.00800           0
     32992 TIP3     1452     TIP3     H2       HT       0.417000       1.00800           0
     32993 TIP3     1453     TIP3     OH2      OT      -0.834000       15.9994           0
     32994 TIP3     1453     TIP3     H1       HT       0.417000       1.00800           0
     32995 TIP3     1453     TIP3     H2       HT       0.417000       1.00800           0
     32996 TIP3     1454     TIP3     OH2      OT      -0.834000       15.9994           0
     32997 TIP3     1454     TIP3     H1       HT       0.417000       1.00800           0
     32998 TIP3     1454     TIP3     H2       HT       0.417000       1.00800           0
     32999 TIP3     1455     TIP3     OH2      OT      -0.834000       15.9994           0
     33000 TIP3     1455     TIP3     H1       HT       0.417000       1.00800           0
     33001 TIP3     1455     TIP3     H2       HT       0.417000       1.00800           0
     33002 TIP3     1456     TIP3     OH2      OT      -0.834000       15.9994           0
     33003 TIP3     1456     TIP3     H1       HT       0.417000       1.00800           0
     33004 TIP3     1456     TIP3     H2       HT       0.417000       1.00800           0
     33005 TIP3     1457     TIP3     OH2      OT      -0.834000       15.9994           0
     33006 TIP3     1457     TIP3     H1       HT       0.417000       1.00800           0
     33007 TIP3     1457     TIP3     H2       HT       0.417000       1.00800           0
     33008 TIP3     1458     TIP3     OH2      OT      -0.834000       15.9994           0
     33009 TIP3     1458     TIP3     H1       HT       0.417000       1.00800           0
     33010 TIP3     1458     TIP3     H2       HT       0.417000       1.00800           0
     33011 TIP3     1459     TIP3     OH2      OT      -0.834000       15.9994           0
     33012 TIP3     1459     TIP3     H1       HT       0.417000       1.00800           0
     33013 TIP3     1459     TIP3     H2       HT       0.417000       1.00800           0
     33014 TIP3     1460     TIP3     OH2      OT      -0.834000       15.9994           0
     33015 TIP3     1460     TIP3     H1       HT       0.417000       1.00800           0
     33016 TIP3     1460     TIP3     H2       HT       0.417000       1.00800           0
     33017 TIP3     1461     TIP3     OH2      OT      -0.834000       15.9994           0
     33018 TIP3     1461     TIP3     H1       HT       0.417000       1.00800           0
     33019 TIP3     1461     TIP3     H2       HT       0.417000       1.00800           0
     33020 TIP3     1462     TIP3     OH2      OT      -0.834000       15.9994           0
     33021 TIP3     1462     TIP3     H1       HT       0.417000       1.00800           0
     33022 TIP3     1462     TIP3     H2       HT       0.417000       1.00800           0
     33023 TIP3     1463     TIP3     OH2      OT      -0.834000       15.9994           0
     33024 TIP3     1463     TIP3     H1       HT       0.417000       1.00800           0
     33025 TIP3     1463     TIP3     H2       HT       0.417000       1.00800           0
     33026 TIP3     1464     TIP3     OH2      OT      -0.834000       15.9994           0
     33027 TIP3     1464     TIP3     H1       HT       0.417000       1.00800           0
     33028 TIP3     1464     TIP3     H2       HT       0.417000       1.00800           0
     33029 TIP3     1465     TIP3     OH2      OT      -0.834000       15.9994           0
     33030 TIP3     1465     TIP3     H1       HT       0.417000       1.00800           0
     33031 TIP3     1465     TIP3     H2       HT       0.417000       1.00800           0
     33032 TIP3     1466     TIP3     OH2      OT      -0.834000       15.9994           0
     33033 TIP3     1466     TIP3     H1       HT       0.417000       1.00800           0
     33034 TIP3     1466     TIP3     H2       HT       0.417000       1.00800           0
     33035 TIP3     1467     TIP3     OH2      OT      -0.834000       15.9994           0
     33036 TIP3     1467     TIP3     H1       HT       0.417000       1.00800           0
     33037 TIP3     1467     TIP3     H2       HT       0.417000       1.00800           0
     33038 TIP3     1468     TIP3     OH2      OT      -0.834000       15.9994           0
     33039 TIP3     1468     TIP3     H1       HT       0.417000       1.00800           0
     33040 TIP3     1468     TIP3     H2       HT       0.417000       1.00800           0
     33041 TIP3     1469     TIP3     OH2      OT      -0.834000       15.9994           0
     33042 TIP3     1469     TIP3     H1       HT       0.417000       1.00800           0
     33043 TIP3     1469     TIP3     H2       HT       0.417000       1.00800           0
     33044 TIP3     1470     TIP3     OH2      OT      -0.834000       15.9994           0
     33045 TIP3     1470     TIP3     H1       HT       0.417000       1.00800           0
     33046 TIP3     1470     TIP3     H2       HT       0.417000       1.00800           0
     33047 TIP3     1471     TIP3     OH2      OT      -0.834000       15.9994           0
     33048 TIP3     1471     TIP3     H1       HT       0.417000       1.00800           0
     33049 TIP3     1471     TIP3     H2       HT       0.417000       1.00800           0
     33050 TIP3     1472     TIP3     OH2      OT      -0.834000       15.9994           0
     33051 TIP3     1472     TIP3     H1       HT       0.417000       1.00800           0
     33052 TIP3     1472     TIP3     H2       HT       0.417000       1.00800           0
     33053 TIP3     1473     TIP3     OH2      OT      -0.834000       15.9994           0
     33054 TIP3     1473     TIP3     H1       HT       0.417000       1.00800           0
     33055 TIP3     1473     TIP3     H2       HT       0.417000       1.00800           0
     33056 TIP3     1474     TIP3     OH2      OT      -0.834000       15.9994           0
     33057 TIP3     1474     TIP3     H1       HT       0.417000       1.00800           0
     33058 TIP3     1474     TIP3     H2       HT       0.417000       1.00800           0
     33059 TIP3     1475     TIP3     OH2      OT      -0.834000       15.9994           0
     33060 TIP3     1475     TIP3     H1       HT       0.417000       1.00800           0
     33061 TIP3     1475     TIP3     H2       HT       0.417000       1.00800           0
     33062 TIP3     1476     TIP3     OH2      OT      -0.834000       15.9994           0
     33063 TIP3     1476     TIP3     H1       HT       0.417000       1.00800           0
     33064 TIP3     1476     TIP3     H2       HT       0.417000       1.00800           0
     33065 TIP3     1477     TIP3     OH2      OT      -0.834000       15.9994           0
     33066 TIP3     1477     TIP3     H1       HT       0.417000       1.00800           0
     33067 TIP3     1477     TIP3     H2       HT       0.417000       1.00800           0
     33068 TIP3     1478     TIP3     OH2      OT      -0.834000       15.9994           0
     33069 TIP3     1478     TIP3     H1       HT       0.417000       1.00800           0
     33070 TIP3     1478     TIP3     H2       HT       0.417000       1.00800           0
     33071 TIP3     1479     TIP3     OH2      OT      -0.834000       15.9994           0
     33072 TIP3     1479     TIP3     H1       HT       0.417000       1.00800           0
     33073 TIP3     1479     TIP3     H2       HT       0.417000       1.00800           0
     33074 TIP3     1480     TIP3     OH2      OT      -0.834000       15.9994           0
     33075 TIP3     1480     TIP3     H1       HT       0.417000       1.00800           0
     33076 TIP3     1480     TIP3     H2       HT       0.417000       1.00800           0
     33077 TIP3     1481     TIP3     OH2      OT      -0.834000       15.9994           0
     33078 TIP3     1481     TIP3     H1       HT       0.417000       1.00800           0
     33079 TIP3     1481     TIP3     H2       HT       0.417000       1.00800           0
     33080 TIP3     1482     TIP3     OH2      OT      -0.834000       15.9994           0
     33081 TIP3     1482     TIP3     H1       HT       0.417000       1.00800           0
     33082 TIP3     1482     TIP3     H2       HT       0.417000       1.00800           0
     33083 TIP3     1483     TIP3     OH2      OT      -0.834000       15.9994           0
     33084 TIP3     1483     TIP3     H1       HT       0.417000       1.00800           0
     33085 TIP3     1483     TIP3     H2       HT       0.417000       1.00800           0
     33086 TIP3     1484     TIP3     OH2      OT      -0.834000       15.9994           0
     33087 TIP3     1484     TIP3     H1       HT       0.417000       1.00800           0
     33088 TIP3     1484     TIP3     H2       HT       0.417000       1.00800           0
     33089 TIP3     1485     TIP3     OH2      OT      -0.834000       15.9994           0
     33090 TIP3     1485     TIP3     H1       HT       0.417000       1.00800           0
     33091 TIP3     1485     TIP3     H2       HT       0.417000       1.00800           0
     33092 TIP3     1486     TIP3     OH2      OT      -0.834000       15.9994           0
     33093 TIP3     1486     TIP3     H1       HT       0.417000       1.00800           0
     33094 TIP3     1486     TIP3     H2       HT       0.417000       1.00800           0
     33095 TIP3     1487     TIP3     OH2      OT      -0.834000       15.9994           0
     33096 TIP3     1487     TIP3     H1       HT       0.417000       1.00800           0
     33097 TIP3     1487     TIP3     H2       HT       0.417000       1.00800           0
     33098 TIP3     1488     TIP3     OH2      OT      -0.834000       15.9994           0
     33099 TIP3     1488     TIP3     H1       HT       0.417000       1.00800           0
     33100 TIP3     1488     TIP3     H2       HT       0.417000       1.00800           0
     33101 TIP3     1489     TIP3     OH2      OT      -0.834000       15.9994           0
     33102 TIP3     1489     TIP3     H1       HT       0.417000       1.00800           0
     33103 TIP3     1489     TIP3     H2       HT       0.417000       1.00800           0
     33104 TIP3     1490     TIP3     OH2      OT      -0.834000       15.9994           0
     33105 TIP3     1490     TIP3     H1       HT       0.417000       1.00800           0
     33106 TIP3     1490     TIP3     H2       HT       0.417000       1.00800           0
     33107 TIP3     1491     TIP3     OH2      OT      -0.834000       15.9994           0
     33108 TIP3     1491     TIP3     H1       HT       0.417000       1.00800           0
     33109 TIP3     1491     TIP3     H2       HT       0.417000       1.00800           0
     33110 TIP3     1492     TIP3     OH2      OT      -0.834000       15.9994           0
     33111 TIP3     1492     TIP3     H1       HT       0.417000       1.00800           0
     33112 TIP3     1492     TIP3     H2       HT       0.417000       1.00800           0
     33113 TIP3     1493     TIP3     OH2      OT      -0.834000       15.9994           0
     33114 TIP3     1493     TIP3     H1       HT       0.417000       1.00800           0
     33115 TIP3     1493     TIP3     H2       HT       0.417000       1.00800           0
     33116 TIP3     1494     TIP3     OH2      OT      -0.834000       15.9994           0
     33117 TIP3     1494     TIP3     H1       HT       0.417000       1.00800           0
     33118 TIP3     1494     TIP3     H2       HT       0.417000       1.00800           0
     33119 TIP3     1495     TIP3     OH2      OT      -0.834000       15.9994           0
     33120 TIP3     1495     TIP3     H1       HT       0.417000       1.00800           0
     33121 TIP3     1495     TIP3     H2       HT       0.417000       1.00800           0
     33122 TIP3     1496     TIP3     OH2      OT      -0.834000       15.9994           0
     33123 TIP3     1496     TIP3     H1       HT       0.417000       1.00800           0
     33124 TIP3     1496     TIP3     H2       HT       0.417000       1.00800           0
     33125 TIP3     1497     TIP3     OH2      OT      -0.834000       15.9994           0
     33126 TIP3     1497     TIP3     H1       HT       0.417000       1.00800           0
     33127 TIP3     1497     TIP3     H2       HT       0.417000       1.00800           0
     33128 TIP3     1498     TIP3     OH2      OT      -0.834000       15.9994           0
     33129 TIP3     1498     TIP3     H1       HT       0.417000       1.00800           0
     33130 TIP3     1498     TIP3     H2       HT       0.417000       1.00800           0
     33131 TIP3     1499     TIP3     OH2      OT      -0.834000       15.9994           0
     33132 TIP3     1499     TIP3     H1       HT       0.417000       1.00800           0
     33133 TIP3     1499     TIP3     H2       HT       0.417000       1.00800           0
     33134 TIP3     1500     TIP3     OH2      OT      -0.834000       15.9994           0
     33135 TIP3     1500     TIP3     H1       HT       0.417000       1.00800           0
     33136 TIP3     1500     TIP3     H2       HT       0.417000       1.00800           0
     33137 TIP3     1501     TIP3     OH2      OT      -0.834000       15.9994           0
     33138 TIP3     1501     TIP3     H1       HT       0.417000       1.00800           0
     33139 TIP3     1501     TIP3     H2       HT       0.417000       1.00800           0
     33140 TIP3     1502     TIP3     OH2      OT      -0.834000       15.9994           0
     33141 TIP3     1502     TIP3     H1       HT       0.417000       1.00800           0
     33142 TIP3     1502     TIP3     H2       HT       0.417000       1.00800           0
     33143 TIP3     1503     TIP3     OH2      OT      -0.834000       15.9994           0
     33144 TIP3     1503     TIP3     H1       HT       0.417000       1.00800           0
     33145 TIP3     1503     TIP3     H2       HT       0.417000       1.00800           0
     33146 TIP3     1504     TIP3     OH2      OT      -0.834000       15.9994           0
     33147 TIP3     1504     TIP3     H1       HT       0.417000       1.00800           0
     33148 TIP3     1504     TIP3     H2       HT       0.417000       1.00800           0
     33149 TIP3     1505     TIP3     OH2      OT      -0.834000       15.9994           0
     33150 TIP3     1505     TIP3     H1       HT       0.417000       1.00800           0
     33151 TIP3     1505     TIP3     H2       HT       0.417000       1.00800           0
     33152 TIP3     1506     TIP3     OH2      OT      -0.834000       15.9994           0
     33153 TIP3     1506     TIP3     H1       HT       0.417000       1.00800           0
     33154 TIP3     1506     TIP3     H2       HT       0.417000       1.00800           0
     33155 TIP3     1507     TIP3     OH2      OT      -0.834000       15.9994           0
     33156 TIP3     1507     TIP3     H1       HT       0.417000       1.00800           0
     33157 TIP3     1507     TIP3     H2       HT       0.417000       1.00800           0
     33158 TIP3     1508     TIP3     OH2      OT      -0.834000       15.9994           0
     33159 TIP3     1508     TIP3     H1       HT       0.417000       1.00800           0
     33160 TIP3     1508     TIP3     H2       HT       0.417000       1.00800           0
     33161 TIP3     1509     TIP3     OH2      OT      -0.834000       15.9994           0
     33162 TIP3     1509     TIP3     H1       HT       0.417000       1.00800           0
     33163 TIP3     1509     TIP3     H2       HT       0.417000       1.00800           0
     33164 TIP3     1510     TIP3     OH2      OT      -0.834000       15.9994           0
     33165 TIP3     1510     TIP3     H1       HT       0.417000       1.00800           0
     33166 TIP3     1510     TIP3     H2       HT       0.417000       1.00800           0
     33167 TIP3     1511     TIP3     OH2      OT      -0.834000       15.9994           0
     33168 TIP3     1511     TIP3     H1       HT       0.417000       1.00800           0
     33169 TIP3     1511     TIP3     H2       HT       0.417000       1.00800           0
     33170 TIP3     1512     TIP3     OH2      OT      -0.834000       15.9994           0
     33171 TIP3     1512     TIP3     H1       HT       0.417000       1.00800           0
     33172 TIP3     1512     TIP3     H2       HT       0.417000       1.00800           0
     33173 TIP3     1513     TIP3     OH2      OT      -0.834000       15.9994           0
     33174 TIP3     1513     TIP3     H1       HT       0.417000       1.00800           0
     33175 TIP3     1513     TIP3     H2       HT       0.417000       1.00800           0
     33176 TIP3     1514     TIP3     OH2      OT      -0.834000       15.9994           0
     33177 TIP3     1514     TIP3     H1       HT       0.417000       1.00800           0
     33178 TIP3     1514     TIP3     H2       HT       0.417000       1.00800           0
     33179 TIP3     1515     TIP3     OH2      OT      -0.834000       15.9994           0
     33180 TIP3     1515     TIP3     H1       HT       0.417000       1.00800           0
     33181 TIP3     1515     TIP3     H2       HT       0.417000       1.00800           0
     33182 TIP3     1516     TIP3     OH2      OT      -0.834000       15.9994           0
     33183 TIP3     1516     TIP3     H1       HT       0.417000       1.00800           0
     33184 TIP3     1516     TIP3     H2       HT       0.417000       1.00800           0
     33185 TIP3     1517     TIP3     OH2      OT      -0.834000       15.9994           0
     33186 TIP3     1517     TIP3     H1       HT       0.417000       1.00800           0
     33187 TIP3     1517     TIP3     H2       HT       0.417000       1.00800           0
     33188 TIP3     1518     TIP3     OH2      OT      -0.834000       15.9994           0
     33189 TIP3     1518     TIP3     H1       HT       0.417000       1.00800           0
     33190 TIP3     1518     TIP3     H2       HT       0.417000       1.00800           0
     33191 TIP3     1519     TIP3     OH2      OT      -0.834000       15.9994           0
     33192 TIP3     1519     TIP3     H1       HT       0.417000       1.00800           0
     33193 TIP3     1519     TIP3     H2       HT       0.417000       1.00800           0
     33194 TIP3     1520     TIP3     OH2      OT      -0.834000       15.9994           0
     33195 TIP3     1520     TIP3     H1       HT       0.417000       1.00800           0
     33196 TIP3     1520     TIP3     H2       HT       0.417000       1.00800           0
     33197 TIP3     1521     TIP3     OH2      OT      -0.834000       15.9994           0
     33198 TIP3     1521     TIP3     H1       HT       0.417000       1.00800           0
     33199 TIP3     1521     TIP3     H2       HT       0.417000       1.00800           0
     33200 TIP3     1522     TIP3     OH2      OT      -0.834000       15.9994           0
     33201 TIP3     1522     TIP3     H1       HT       0.417000       1.00800           0
     33202 TIP3     1522     TIP3     H2       HT       0.417000       1.00800           0
     33203 TIP3     1523     TIP3     OH2      OT      -0.834000       15.9994           0
     33204 TIP3     1523     TIP3     H1       HT       0.417000       1.00800           0
     33205 TIP3     1523     TIP3     H2       HT       0.417000       1.00800           0
     33206 TIP3     1524     TIP3     OH2      OT      -0.834000       15.9994           0
     33207 TIP3     1524     TIP3     H1       HT       0.417000       1.00800           0
     33208 TIP3     1524     TIP3     H2       HT       0.417000       1.00800           0
     33209 TIP3     1525     TIP3     OH2      OT      -0.834000       15.9994           0
     33210 TIP3     1525     TIP3     H1       HT       0.417000       1.00800           0
     33211 TIP3     1525     TIP3     H2       HT       0.417000       1.00800           0
     33212 TIP3     1526     TIP3     OH2      OT      -0.834000       15.9994           0
     33213 TIP3     1526     TIP3     H1       HT       0.417000       1.00800           0
     33214 TIP3     1526     TIP3     H2       HT       0.417000       1.00800           0
     33215 TIP3     1527     TIP3     OH2      OT      -0.834000       15.9994           0
     33216 TIP3     1527     TIP3     H1       HT       0.417000       1.00800           0
     33217 TIP3     1527     TIP3     H2       HT       0.417000       1.00800           0
     33218 TIP3     1528     TIP3     OH2      OT      -0.834000       15.9994           0
     33219 TIP3     1528     TIP3     H1       HT       0.417000       1.00800           0
     33220 TIP3     1528     TIP3     H2       HT       0.417000       1.00800           0
     33221 TIP3     1529     TIP3     OH2      OT      -0.834000       15.9994           0
     33222 TIP3     1529     TIP3     H1       HT       0.417000       1.00800           0
     33223 TIP3     1529     TIP3     H2       HT       0.417000       1.00800           0
     33224 TIP3     1530     TIP3     OH2      OT      -0.834000       15.9994           0
     33225 TIP3     1530     TIP3     H1       HT       0.417000       1.00800           0
     33226 TIP3     1530     TIP3     H2       HT       0.417000       1.00800           0
     33227 TIP3     1531     TIP3     OH2      OT      -0.834000       15.9994           0
     33228 TIP3     1531     TIP3     H1       HT       0.417000       1.00800           0
     33229 TIP3     1531     TIP3     H2       HT       0.417000       1.00800           0
     33230 TIP3     1532     TIP3     OH2      OT      -0.834000       15.9994           0
     33231 TIP3     1532     TIP3     H1       HT       0.417000       1.00800           0
     33232 TIP3     1532     TIP3     H2       HT       0.417000       1.00800           0
     33233 TIP3     1533     TIP3     OH2      OT      -0.834000       15.9994           0
     33234 TIP3     1533     TIP3     H1       HT       0.417000       1.00800           0
     33235 TIP3     1533     TIP3     H2       HT       0.417000       1.00800           0
     33236 TIP3     1534     TIP3     OH2      OT      -0.834000       15.9994           0
     33237 TIP3     1534     TIP3     H1       HT       0.417000       1.00800           0
     33238 TIP3     1534     TIP3     H2       HT       0.417000       1.00800           0
     33239 TIP3     1535     TIP3     OH2      OT      -0.834000       15.9994           0
     33240 TIP3     1535     TIP3     H1       HT       0.417000       1.00800           0
     33241 TIP3     1535     TIP3     H2       HT       0.417000       1.00800           0
     33242 TIP3     1536     TIP3     OH2      OT      -0.834000       15.9994           0
     33243 TIP3     1536     TIP3     H1       HT       0.417000       1.00800           0
     33244 TIP3     1536     TIP3     H2       HT       0.417000       1.00800           0
     33245 TIP3     1537     TIP3     OH2      OT      -0.834000       15.9994           0
     33246 TIP3     1537     TIP3     H1       HT       0.417000       1.00800           0
     33247 TIP3     1537     TIP3     H2       HT       0.417000       1.00800           0
     33248 TIP3     1538     TIP3     OH2      OT      -0.834000       15.9994           0
     33249 TIP3     1538     TIP3     H1       HT       0.417000       1.00800           0
     33250 TIP3     1538     TIP3     H2       HT       0.417000       1.00800           0
     33251 TIP3     1539     TIP3     OH2      OT      -0.834000       15.9994           0
     33252 TIP3     1539     TIP3     H1       HT       0.417000       1.00800           0
     33253 TIP3     1539     TIP3     H2       HT       0.417000       1.00800           0
     33254 TIP3     1540     TIP3     OH2      OT      -0.834000       15.9994           0
     33255 TIP3     1540     TIP3     H1       HT       0.417000       1.00800           0
     33256 TIP3     1540     TIP3     H2       HT       0.417000       1.00800           0
     33257 TIP3     1541     TIP3     OH2      OT      -0.834000       15.9994           0
     33258 TIP3     1541     TIP3     H1       HT       0.417000       1.00800           0
     33259 TIP3     1541     TIP3     H2       HT       0.417000       1.00800           0
     33260 TIP3     1542     TIP3     OH2      OT      -0.834000       15.9994           0
     33261 TIP3     1542     TIP3     H1       HT       0.417000       1.00800           0
     33262 TIP3     1542     TIP3     H2       HT       0.417000       1.00800           0
     33263 TIP3     1543     TIP3     OH2      OT      -0.834000       15.9994           0
     33264 TIP3     1543     TIP3     H1       HT       0.417000       1.00800           0
     33265 TIP3     1543     TIP3     H2       HT       0.417000       1.00800           0
     33266 TIP3     1544     TIP3     OH2      OT      -0.834000       15.9994           0
     33267 TIP3     1544     TIP3     H1       HT       0.417000       1.00800           0
     33268 TIP3     1544     TIP3     H2       HT       0.417000       1.00800           0
     33269 TIP3     1545     TIP3     OH2      OT      -0.834000       15.9994           0
     33270 TIP3     1545     TIP3     H1       HT       0.417000       1.00800           0
     33271 TIP3     1545     TIP3     H2       HT       0.417000       1.00800           0
     33272 TIP3     1546     TIP3     OH2      OT      -0.834000       15.9994           0
     33273 TIP3     1546     TIP3     H1       HT       0.417000       1.00800           0
     33274 TIP3     1546     TIP3     H2       HT       0.417000       1.00800           0
     33275 TIP3     1547     TIP3     OH2      OT      -0.834000       15.9994           0
     33276 TIP3     1547     TIP3     H1       HT       0.417000       1.00800           0
     33277 TIP3     1547     TIP3     H2       HT       0.417000       1.00800           0
     33278 TIP3     1548     TIP3     OH2      OT      -0.834000       15.9994           0
     33279 TIP3     1548     TIP3     H1       HT       0.417000       1.00800           0
     33280 TIP3     1548     TIP3     H2       HT       0.417000       1.00800           0
     33281 TIP3     1549     TIP3     OH2      OT      -0.834000       15.9994           0
     33282 TIP3     1549     TIP3     H1       HT       0.417000       1.00800           0
     33283 TIP3     1549     TIP3     H2       HT       0.417000       1.00800           0
     33284 TIP3     1550     TIP3     OH2      OT      -0.834000       15.9994           0
     33285 TIP3     1550     TIP3     H1       HT       0.417000       1.00800           0
     33286 TIP3     1550     TIP3     H2       HT       0.417000       1.00800           0
     33287 TIP3     1551     TIP3     OH2      OT      -0.834000       15.9994           0
     33288 TIP3     1551     TIP3     H1       HT       0.417000       1.00800           0
     33289 TIP3     1551     TIP3     H2       HT       0.417000       1.00800           0
     33290 TIP3     1552     TIP3     OH2      OT      -0.834000       15.9994           0
     33291 TIP3     1552     TIP3     H1       HT       0.417000       1.00800           0
     33292 TIP3     1552     TIP3     H2       HT       0.417000       1.00800           0
     33293 TIP3     1553     TIP3     OH2      OT      -0.834000       15.9994           0
     33294 TIP3     1553     TIP3     H1       HT       0.417000       1.00800           0
     33295 TIP3     1553     TIP3     H2       HT       0.417000       1.00800           0
     33296 TIP3     1554     TIP3     OH2      OT      -0.834000       15.9994           0
     33297 TIP3     1554     TIP3     H1       HT       0.417000       1.00800           0
     33298 TIP3     1554     TIP3     H2       HT       0.417000       1.00800           0
     33299 TIP3     1555     TIP3     OH2      OT      -0.834000       15.9994           0
     33300 TIP3     1555     TIP3     H1       HT       0.417000       1.00800           0
     33301 TIP3     1555     TIP3     H2       HT       0.417000       1.00800           0
     33302 TIP3     1556     TIP3     OH2      OT      -0.834000       15.9994           0
     33303 TIP3     1556     TIP3     H1       HT       0.417000       1.00800           0
     33304 TIP3     1556     TIP3     H2       HT       0.417000       1.00800           0
     33305 TIP3     1557     TIP3     OH2      OT      -0.834000       15.9994           0
     33306 TIP3     1557     TIP3     H1       HT       0.417000       1.00800           0
     33307 TIP3     1557     TIP3     H2       HT       0.417000       1.00800           0
     33308 TIP3     1558     TIP3     OH2      OT      -0.834000       15.9994           0
     33309 TIP3     1558     TIP3     H1       HT       0.417000       1.00800           0
     33310 TIP3     1558     TIP3     H2       HT       0.417000       1.00800           0
     33311 TIP3     1559     TIP3     OH2      OT      -0.834000       15.9994           0
     33312 TIP3     1559     TIP3     H1       HT       0.417000       1.00800           0
     33313 TIP3     1559     TIP3     H2       HT       0.417000       1.00800           0
     33314 TIP3     1560     TIP3     OH2      OT      -0.834000       15.9994           0
     33315 TIP3     1560     TIP3     H1       HT       0.417000       1.00800           0
     33316 TIP3     1560     TIP3     H2       HT       0.417000       1.00800           0
     33317 TIP3     1561     TIP3     OH2      OT      -0.834000       15.9994           0
     33318 TIP3     1561     TIP3     H1       HT       0.417000       1.00800           0
     33319 TIP3     1561     TIP3     H2       HT       0.417000       1.00800           0
     33320 TIP3     1562     TIP3     OH2      OT      -0.834000       15.9994           0
     33321 TIP3     1562     TIP3     H1       HT       0.417000       1.00800           0
     33322 TIP3     1562     TIP3     H2       HT       0.417000       1.00800           0
     33323 TIP3     1563     TIP3     OH2      OT      -0.834000       15.9994           0
     33324 TIP3     1563     TIP3     H1       HT       0.417000       1.00800           0
     33325 TIP3     1563     TIP3     H2       HT       0.417000       1.00800           0
     33326 TIP3     1564     TIP3     OH2      OT      -0.834000       15.9994           0
     33327 TIP3     1564     TIP3     H1       HT       0.417000       1.00800           0
     33328 TIP3     1564     TIP3     H2       HT       0.417000       1.00800           0
     33329 TIP3     1565     TIP3     OH2      OT      -0.834000       15.9994           0
     33330 TIP3     1565     TIP3     H1       HT       0.417000       1.00800           0
     33331 TIP3     1565     TIP3     H2       HT       0.417000       1.00800           0
     33332 TIP3     1566     TIP3     OH2      OT      -0.834000       15.9994           0
     33333 TIP3     1566     TIP3     H1       HT       0.417000       1.00800           0
     33334 TIP3     1566     TIP3     H2       HT       0.417000       1.00800           0
     33335 TIP3     1567     TIP3     OH2      OT      -0.834000       15.9994           0
     33336 TIP3     1567     TIP3     H1       HT       0.417000       1.00800           0
     33337 TIP3     1567     TIP3     H2       HT       0.417000       1.00800           0
     33338 TIP3     1568     TIP3     OH2      OT      -0.834000       15.9994           0
     33339 TIP3     1568     TIP3     H1       HT       0.417000       1.00800           0
     33340 TIP3     1568     TIP3     H2       HT       0.417000       1.00800           0
     33341 TIP3     1569     TIP3     OH2      OT      -0.834000       15.9994           0
     33342 TIP3     1569     TIP3     H1       HT       0.417000       1.00800           0
     33343 TIP3     1569     TIP3     H2       HT       0.417000       1.00800           0
     33344 TIP3     1570     TIP3     OH2      OT      -0.834000       15.9994           0
     33345 TIP3     1570     TIP3     H1       HT       0.417000       1.00800           0
     33346 TIP3     1570     TIP3     H2       HT       0.417000       1.00800           0
     33347 TIP3     1571     TIP3     OH2      OT      -0.834000       15.9994           0
     33348 TIP3     1571     TIP3     H1       HT       0.417000       1.00800           0
     33349 TIP3     1571     TIP3     H2       HT       0.417000       1.00800           0
     33350 TIP3     1572     TIP3     OH2      OT      -0.834000       15.9994           0
     33351 TIP3     1572     TIP3     H1       HT       0.417000       1.00800           0
     33352 TIP3     1572     TIP3     H2       HT       0.417000       1.00800           0
     33353 TIP3     1573     TIP3     OH2      OT      -0.834000       15.9994           0
     33354 TIP3     1573     TIP3     H1       HT       0.417000       1.00800           0
     33355 TIP3     1573     TIP3     H2       HT       0.417000       1.00800           0
     33356 TIP3     1574     TIP3     OH2      OT      -0.834000       15.9994           0
     33357 TIP3     1574     TIP3     H1       HT       0.417000       1.00800           0
     33358 TIP3     1574     TIP3     H2       HT       0.417000       1.00800           0
     33359 TIP3     1575     TIP3     OH2      OT      -0.834000       15.9994           0
     33360 TIP3     1575     TIP3     H1       HT       0.417000       1.00800           0
     33361 TIP3     1575     TIP3     H2       HT       0.417000       1.00800           0
     33362 TIP3     1576     TIP3     OH2      OT      -0.834000       15.9994           0
     33363 TIP3     1576     TIP3     H1       HT       0.417000       1.00800           0
     33364 TIP3     1576     TIP3     H2       HT       0.417000       1.00800           0
     33365 TIP3     1577     TIP3     OH2      OT      -0.834000       15.9994           0
     33366 TIP3     1577     TIP3     H1       HT       0.417000       1.00800           0
     33367 TIP3     1577     TIP3     H2       HT       0.417000       1.00800           0
     33368 TIP3     1578     TIP3     OH2      OT      -0.834000       15.9994           0
     33369 TIP3     1578     TIP3     H1       HT       0.417000       1.00800           0
     33370 TIP3     1578     TIP3     H2       HT       0.417000       1.00800           0
     33371 TIP3     1579     TIP3     OH2      OT      -0.834000       15.9994           0
     33372 TIP3     1579     TIP3     H1       HT       0.417000       1.00800           0
     33373 TIP3     1579     TIP3     H2       HT       0.417000       1.00800           0
     33374 TIP3     1580     TIP3     OH2      OT      -0.834000       15.9994           0
     33375 TIP3     1580     TIP3     H1       HT       0.417000       1.00800           0
     33376 TIP3     1580     TIP3     H2       HT       0.417000       1.00800           0
     33377 TIP3     1581     TIP3     OH2      OT      -0.834000       15.9994           0
     33378 TIP3     1581     TIP3     H1       HT       0.417000       1.00800           0
     33379 TIP3     1581     TIP3     H2       HT       0.417000       1.00800           0
     33380 TIP3     1582     TIP3     OH2      OT      -0.834000       15.9994           0
     33381 TIP3     1582     TIP3     H1       HT       0.417000       1.00800           0
     33382 TIP3     1582     TIP3     H2       HT       0.417000       1.00800           0
     33383 TIP3     1583     TIP3     OH2      OT      -0.834000       15.9994           0
     33384 TIP3     1583     TIP3     H1       HT       0.417000       1.00800           0
     33385 TIP3     1583     TIP3     H2       HT       0.417000       1.00800           0
     33386 TIP3     1584     TIP3     OH2      OT      -0.834000       15.9994           0
     33387 TIP3     1584     TIP3     H1       HT       0.417000       1.00800           0
     33388 TIP3     1584     TIP3     H2       HT       0.417000       1.00800           0
     33389 TIP3     1585     TIP3     OH2      OT      -0.834000       15.9994           0
     33390 TIP3     1585     TIP3     H1       HT       0.417000       1.00800           0
     33391 TIP3     1585     TIP3     H2       HT       0.417000       1.00800           0
     33392 TIP3     1586     TIP3     OH2      OT      -0.834000       15.9994           0
     33393 TIP3     1586     TIP3     H1       HT       0.417000       1.00800           0
     33394 TIP3     1586     TIP3     H2       HT       0.417000       1.00800           0
     33395 TIP3     1587     TIP3     OH2      OT      -0.834000       15.9994           0
     33396 TIP3     1587     TIP3     H1       HT       0.417000       1.00800           0
     33397 TIP3     1587     TIP3     H2       HT       0.417000       1.00800           0
     33398 TIP3     1588     TIP3     OH2      OT      -0.834000       15.9994           0
     33399 TIP3     1588     TIP3     H1       HT       0.417000       1.00800           0
     33400 TIP3     1588     TIP3     H2       HT       0.417000       1.00800           0
     33401 TIP3     1589     TIP3     OH2      OT      -0.834000       15.9994           0
     33402 TIP3     1589     TIP3     H1       HT       0.417000       1.00800           0
     33403 TIP3     1589     TIP3     H2       HT       0.417000       1.00800           0
     33404 TIP3     1590     TIP3     OH2      OT      -0.834000       15.9994           0
     33405 TIP3     1590     TIP3     H1       HT       0.417000       1.00800           0
     33406 TIP3     1590     TIP3     H2       HT       0.417000       1.00800           0
     33407 TIP3     1591     TIP3     OH2      OT      -0.834000       15.9994           0
     33408 TIP3     1591     TIP3     H1       HT       0.417000       1.00800           0
     33409 TIP3     1591     TIP3     H2       HT       0.417000       1.00800           0
     33410 TIP3     1592     TIP3     OH2      OT      -0.834000       15.9994           0
     33411 TIP3     1592     TIP3     H1       HT       0.417000       1.00800           0
     33412 TIP3     1592     TIP3     H2       HT       0.417000       1.00800           0
     33413 TIP3     1593     TIP3     OH2      OT      -0.834000       15.9994           0
     33414 TIP3     1593     TIP3     H1       HT       0.417000       1.00800           0
     33415 TIP3     1593     TIP3     H2       HT       0.417000       1.00800           0
     33416 TIP3     1594     TIP3     OH2      OT      -0.834000       15.9994           0
     33417 TIP3     1594     TIP3     H1       HT       0.417000       1.00800           0
     33418 TIP3     1594     TIP3     H2       HT       0.417000       1.00800           0
     33419 TIP3     1595     TIP3     OH2      OT      -0.834000       15.9994           0
     33420 TIP3     1595     TIP3     H1       HT       0.417000       1.00800           0
     33421 TIP3     1595     TIP3     H2       HT       0.417000       1.00800           0
     33422 TIP3     1596     TIP3     OH2      OT      -0.834000       15.9994           0
     33423 TIP3     1596     TIP3     H1       HT       0.417000       1.00800           0
     33424 TIP3     1596     TIP3     H2       HT       0.417000       1.00800           0
     33425 TIP3     1597     TIP3     OH2      OT      -0.834000       15.9994           0
     33426 TIP3     1597     TIP3     H1       HT       0.417000       1.00800           0
     33427 TIP3     1597     TIP3     H2       HT       0.417000       1.00800           0
     33428 TIP3     1598     TIP3     OH2      OT      -0.834000       15.9994           0
     33429 TIP3     1598     TIP3     H1       HT       0.417000       1.00800           0
     33430 TIP3     1598     TIP3     H2       HT       0.417000       1.00800           0
     33431 TIP3     1599     TIP3     OH2      OT      -0.834000       15.9994           0
     33432 TIP3     1599     TIP3     H1       HT       0.417000       1.00800           0
     33433 TIP3     1599     TIP3     H2       HT       0.417000       1.00800           0
     33434 TIP3     1600     TIP3     OH2      OT      -0.834000       15.9994           0
     33435 TIP3     1600     TIP3     H1       HT       0.417000       1.00800           0
     33436 TIP3     1600     TIP3     H2       HT       0.417000       1.00800           0
     33437 TIP3     1601     TIP3     OH2      OT      -0.834000       15.9994           0
     33438 TIP3     1601     TIP3     H1       HT       0.417000       1.00800           0
     33439 TIP3     1601     TIP3     H2       HT       0.417000       1.00800           0
     33440 TIP3     1602     TIP3     OH2      OT      -0.834000       15.9994           0
     33441 TIP3     1602     TIP3     H1       HT       0.417000       1.00800           0
     33442 TIP3     1602     TIP3     H2       HT       0.417000       1.00800           0
     33443 TIP3     1603     TIP3     OH2      OT      -0.834000       15.9994           0
     33444 TIP3     1603     TIP3     H1       HT       0.417000       1.00800           0
     33445 TIP3     1603     TIP3     H2       HT       0.417000       1.00800           0
     33446 TIP3     1604     TIP3     OH2      OT      -0.834000       15.9994           0
     33447 TIP3     1604     TIP3     H1       HT       0.417000       1.00800           0
     33448 TIP3     1604     TIP3     H2       HT       0.417000       1.00800           0
     33449 TIP3     1605     TIP3     OH2      OT      -0.834000       15.9994           0
     33450 TIP3     1605     TIP3     H1       HT       0.417000       1.00800           0
     33451 TIP3     1605     TIP3     H2       HT       0.417000       1.00800           0
     33452 TIP3     1606     TIP3     OH2      OT      -0.834000       15.9994           0
     33453 TIP3     1606     TIP3     H1       HT       0.417000       1.00800           0
     33454 TIP3     1606     TIP3     H2       HT       0.417000       1.00800           0
     33455 TIP3     1607     TIP3     OH2      OT      -0.834000       15.9994           0
     33456 TIP3     1607     TIP3     H1       HT       0.417000       1.00800           0
     33457 TIP3     1607     TIP3     H2       HT       0.417000       1.00800           0
     33458 TIP3     1608     TIP3     OH2      OT      -0.834000       15.9994           0
     33459 TIP3     1608     TIP3     H1       HT       0.417000       1.00800           0
     33460 TIP3     1608     TIP3     H2       HT       0.417000       1.00800           0
     33461 TIP3     1609     TIP3     OH2      OT      -0.834000       15.9994           0
     33462 TIP3     1609     TIP3     H1       HT       0.417000       1.00800           0
     33463 TIP3     1609     TIP3     H2       HT       0.417000       1.00800           0
     33464 TIP3     1610     TIP3     OH2      OT      -0.834000       15.9994           0
     33465 TIP3     1610     TIP3     H1       HT       0.417000       1.00800           0
     33466 TIP3     1610     TIP3     H2       HT       0.417000       1.00800           0
     33467 TIP3     1611     TIP3     OH2      OT      -0.834000       15.9994           0
     33468 TIP3     1611     TIP3     H1       HT       0.417000       1.00800           0
     33469 TIP3     1611     TIP3     H2       HT       0.417000       1.00800           0
     33470 TIP3     1612     TIP3     OH2      OT      -0.834000       15.9994           0
     33471 TIP3     1612     TIP3     H1       HT       0.417000       1.00800           0
     33472 TIP3     1612     TIP3     H2       HT       0.417000       1.00800           0
     33473 TIP3     1613     TIP3     OH2      OT      -0.834000       15.9994           0
     33474 TIP3     1613     TIP3     H1       HT       0.417000       1.00800           0
     33475 TIP3     1613     TIP3     H2       HT       0.417000       1.00800           0
     33476 TIP3     1614     TIP3     OH2      OT      -0.834000       15.9994           0
     33477 TIP3     1614     TIP3     H1       HT       0.417000       1.00800           0
     33478 TIP3     1614     TIP3     H2       HT       0.417000       1.00800           0
     33479 TIP3     1615     TIP3     OH2      OT      -0.834000       15.9994           0
     33480 TIP3     1615     TIP3     H1       HT       0.417000       1.00800           0
     33481 TIP3     1615     TIP3     H2       HT       0.417000       1.00800           0
     33482 TIP3     1616     TIP3     OH2      OT      -0.834000       15.9994           0
     33483 TIP3     1616     TIP3     H1       HT       0.417000       1.00800           0
     33484 TIP3     1616     TIP3     H2       HT       0.417000       1.00800           0
     33485 TIP3     1617     TIP3     OH2      OT      -0.834000       15.9994           0
     33486 TIP3     1617     TIP3     H1       HT       0.417000       1.00800           0
     33487 TIP3     1617     TIP3     H2       HT       0.417000       1.00800           0
     33488 TIP3     1618     TIP3     OH2      OT      -0.834000       15.9994           0
     33489 TIP3     1618     TIP3     H1       HT       0.417000       1.00800           0
     33490 TIP3     1618     TIP3     H2       HT       0.417000       1.00800           0
     33491 TIP3     1619     TIP3     OH2      OT      -0.834000       15.9994           0
     33492 TIP3     1619     TIP3     H1       HT       0.417000       1.00800           0
     33493 TIP3     1619     TIP3     H2       HT       0.417000       1.00800           0
     33494 TIP3     1620     TIP3     OH2      OT      -0.834000       15.9994           0
     33495 TIP3     1620     TIP3     H1       HT       0.417000       1.00800           0
     33496 TIP3     1620     TIP3     H2       HT       0.417000       1.00800           0
     33497 TIP3     1621     TIP3     OH2      OT      -0.834000       15.9994           0
     33498 TIP3     1621     TIP3     H1       HT       0.417000       1.00800           0
     33499 TIP3     1621     TIP3     H2       HT       0.417000       1.00800           0
     33500 TIP3     1622     TIP3     OH2      OT      -0.834000       15.9994           0
     33501 TIP3     1622     TIP3     H1       HT       0.417000       1.00800           0
     33502 TIP3     1622     TIP3     H2       HT       0.417000       1.00800           0
     33503 TIP3     1623     TIP3     OH2      OT      -0.834000       15.9994           0
     33504 TIP3     1623     TIP3     H1       HT       0.417000       1.00800           0
     33505 TIP3     1623     TIP3     H2       HT       0.417000       1.00800           0
     33506 TIP3     1624     TIP3     OH2      OT      -0.834000       15.9994           0
     33507 TIP3     1624     TIP3     H1       HT       0.417000       1.00800           0
     33508 TIP3     1624     TIP3     H2       HT       0.417000       1.00800           0
     33509 TIP3     1625     TIP3     OH2      OT      -0.834000       15.9994           0
     33510 TIP3     1625     TIP3     H1       HT       0.417000       1.00800           0
     33511 TIP3     1625     TIP3     H2       HT       0.417000       1.00800           0
     33512 TIP3     1626     TIP3     OH2      OT      -0.834000       15.9994           0
     33513 TIP3     1626     TIP3     H1       HT       0.417000       1.00800           0
     33514 TIP3     1626     TIP3     H2       HT       0.417000       1.00800           0
     33515 TIP3     1627     TIP3     OH2      OT      -0.834000       15.9994           0
     33516 TIP3     1627     TIP3     H1       HT       0.417000       1.00800           0
     33517 TIP3     1627     TIP3     H2       HT       0.417000       1.00800           0
     33518 TIP3     1628     TIP3     OH2      OT      -0.834000       15.9994           0
     33519 TIP3     1628     TIP3     H1       HT       0.417000       1.00800           0
     33520 TIP3     1628     TIP3     H2       HT       0.417000       1.00800           0
     33521 TIP3     1629     TIP3     OH2      OT      -0.834000       15.9994           0
     33522 TIP3     1629     TIP3     H1       HT       0.417000       1.00800           0
     33523 TIP3     1629     TIP3     H2       HT       0.417000       1.00800           0
     33524 TIP3     1630     TIP3     OH2      OT      -0.834000       15.9994           0
     33525 TIP3     1630     TIP3     H1       HT       0.417000       1.00800           0
     33526 TIP3     1630     TIP3     H2       HT       0.417000       1.00800           0
     33527 TIP3     1631     TIP3     OH2      OT      -0.834000       15.9994           0
     33528 TIP3     1631     TIP3     H1       HT       0.417000       1.00800           0
     33529 TIP3     1631     TIP3     H2       HT       0.417000       1.00800           0
     33530 TIP3     1632     TIP3     OH2      OT      -0.834000       15.9994           0
     33531 TIP3     1632     TIP3     H1       HT       0.417000       1.00800           0
     33532 TIP3     1632     TIP3     H2       HT       0.417000       1.00800           0
     33533 TIP3     1633     TIP3     OH2      OT      -0.834000       15.9994           0
     33534 TIP3     1633     TIP3     H1       HT       0.417000       1.00800           0
     33535 TIP3     1633     TIP3     H2       HT       0.417000       1.00800           0
     33536 TIP3     1634     TIP3     OH2      OT      -0.834000       15.9994           0
     33537 TIP3     1634     TIP3     H1       HT       0.417000       1.00800           0
     33538 TIP3     1634     TIP3     H2       HT       0.417000       1.00800           0
     33539 TIP3     1635     TIP3     OH2      OT      -0.834000       15.9994           0
     33540 TIP3     1635     TIP3     H1       HT       0.417000       1.00800           0
     33541 TIP3     1635     TIP3     H2       HT       0.417000       1.00800           0
     33542 TIP3     1636     TIP3     OH2      OT      -0.834000       15.9994           0
     33543 TIP3     1636     TIP3     H1       HT       0.417000       1.00800           0
     33544 TIP3     1636     TIP3     H2       HT       0.417000       1.00800           0
     33545 TIP3     1637     TIP3     OH2      OT      -0.834000       15.9994           0
     33546 TIP3     1637     TIP3     H1       HT       0.417000       1.00800           0
     33547 TIP3     1637     TIP3     H2       HT       0.417000       1.00800           0
     33548 TIP3     1638     TIP3     OH2      OT      -0.834000       15.9994           0
     33549 TIP3     1638     TIP3     H1       HT       0.417000       1.00800           0
     33550 TIP3     1638     TIP3     H2       HT       0.417000       1.00800           0
     33551 TIP3     1639     TIP3     OH2      OT      -0.834000       15.9994           0
     33552 TIP3     1639     TIP3     H1       HT       0.417000       1.00800           0
     33553 TIP3     1639     TIP3     H2       HT       0.417000       1.00800           0
     33554 TIP3     1640     TIP3     OH2      OT      -0.834000       15.9994           0
     33555 TIP3     1640     TIP3     H1       HT       0.417000       1.00800           0
     33556 TIP3     1640     TIP3     H2       HT       0.417000       1.00800           0
     33557 TIP3     1641     TIP3     OH2      OT      -0.834000       15.9994           0
     33558 TIP3     1641     TIP3     H1       HT       0.417000       1.00800           0
     33559 TIP3     1641     TIP3     H2       HT       0.417000       1.00800           0
     33560 TIP3     1642     TIP3     OH2      OT      -0.834000       15.9994           0
     33561 TIP3     1642     TIP3     H1       HT       0.417000       1.00800           0
     33562 TIP3     1642     TIP3     H2       HT       0.417000       1.00800           0
     33563 TIP3     1643     TIP3     OH2      OT      -0.834000       15.9994           0
     33564 TIP3     1643     TIP3     H1       HT       0.417000       1.00800           0
     33565 TIP3     1643     TIP3     H2       HT       0.417000       1.00800           0
     33566 TIP3     1644     TIP3     OH2      OT      -0.834000       15.9994           0
     33567 TIP3     1644     TIP3     H1       HT       0.417000       1.00800           0
     33568 TIP3     1644     TIP3     H2       HT       0.417000       1.00800           0
     33569 TIP3     1645     TIP3     OH2      OT      -0.834000       15.9994           0
     33570 TIP3     1645     TIP3     H1       HT       0.417000       1.00800           0
     33571 TIP3     1645     TIP3     H2       HT       0.417000       1.00800           0
     33572 TIP3     1646     TIP3     OH2      OT      -0.834000       15.9994           0
     33573 TIP3     1646     TIP3     H1       HT       0.417000       1.00800           0
     33574 TIP3     1646     TIP3     H2       HT       0.417000       1.00800           0
     33575 TIP3     1647     TIP3     OH2      OT      -0.834000       15.9994           0
     33576 TIP3     1647     TIP3     H1       HT       0.417000       1.00800           0
     33577 TIP3     1647     TIP3     H2       HT       0.417000       1.00800           0
     33578 TIP3     1648     TIP3     OH2      OT      -0.834000       15.9994           0
     33579 TIP3     1648     TIP3     H1       HT       0.417000       1.00800           0
     33580 TIP3     1648     TIP3     H2       HT       0.417000       1.00800           0
     33581 TIP3     1649     TIP3     OH2      OT      -0.834000       15.9994           0
     33582 TIP3     1649     TIP3     H1       HT       0.417000       1.00800           0
     33583 TIP3     1649     TIP3     H2       HT       0.417000       1.00800           0
     33584 TIP3     1650     TIP3     OH2      OT      -0.834000       15.9994           0
     33585 TIP3     1650     TIP3     H1       HT       0.417000       1.00800           0
     33586 TIP3     1650     TIP3     H2       HT       0.417000       1.00800           0
     33587 TIP3     1651     TIP3     OH2      OT      -0.834000       15.9994           0
     33588 TIP3     1651     TIP3     H1       HT       0.417000       1.00800           0
     33589 TIP3     1651     TIP3     H2       HT       0.417000       1.00800           0
     33590 TIP3     1652     TIP3     OH2      OT      -0.834000       15.9994           0
     33591 TIP3     1652     TIP3     H1       HT       0.417000       1.00800           0
     33592 TIP3     1652     TIP3     H2       HT       0.417000       1.00800           0
     33593 TIP3     1653     TIP3     OH2      OT      -0.834000       15.9994           0
     33594 TIP3     1653     TIP3     H1       HT       0.417000       1.00800           0
     33595 TIP3     1653     TIP3     H2       HT       0.417000       1.00800           0
     33596 TIP3     1654     TIP3     OH2      OT      -0.834000       15.9994           0
     33597 TIP3     1654     TIP3     H1       HT       0.417000       1.00800           0
     33598 TIP3     1654     TIP3     H2       HT       0.417000       1.00800           0
     33599 TIP3     1655     TIP3     OH2      OT      -0.834000       15.9994           0
     33600 TIP3     1655     TIP3     H1       HT       0.417000       1.00800           0
     33601 TIP3     1655     TIP3     H2       HT       0.417000       1.00800           0
     33602 TIP3     1656     TIP3     OH2      OT      -0.834000       15.9994           0
     33603 TIP3     1656     TIP3     H1       HT       0.417000       1.00800           0
     33604 TIP3     1656     TIP3     H2       HT       0.417000       1.00800           0
     33605 TIP3     1657     TIP3     OH2      OT      -0.834000       15.9994           0
     33606 TIP3     1657     TIP3     H1       HT       0.417000       1.00800           0
     33607 TIP3     1657     TIP3     H2       HT       0.417000       1.00800           0
     33608 TIP3     1658     TIP3     OH2      OT      -0.834000       15.9994           0
     33609 TIP3     1658     TIP3     H1       HT       0.417000       1.00800           0
     33610 TIP3     1658     TIP3     H2       HT       0.417000       1.00800           0
     33611 TIP3     1659     TIP3     OH2      OT      -0.834000       15.9994           0
     33612 TIP3     1659     TIP3     H1       HT       0.417000       1.00800           0
     33613 TIP3     1659     TIP3     H2       HT       0.417000       1.00800           0
     33614 TIP3     1660     TIP3     OH2      OT      -0.834000       15.9994           0
     33615 TIP3     1660     TIP3     H1       HT       0.417000       1.00800           0
     33616 TIP3     1660     TIP3     H2       HT       0.417000       1.00800           0
     33617 TIP3     1661     TIP3     OH2      OT      -0.834000       15.9994           0
     33618 TIP3     1661     TIP3     H1       HT       0.417000       1.00800           0
     33619 TIP3     1661     TIP3     H2       HT       0.417000       1.00800           0
     33620 TIP3     1662     TIP3     OH2      OT      -0.834000       15.9994           0
     33621 TIP3     1662     TIP3     H1       HT       0.417000       1.00800           0
     33622 TIP3     1662     TIP3     H2       HT       0.417000       1.00800           0
     33623 TIP3     1663     TIP3     OH2      OT      -0.834000       15.9994           0
     33624 TIP3     1663     TIP3     H1       HT       0.417000       1.00800           0
     33625 TIP3     1663     TIP3     H2       HT       0.417000       1.00800           0
     33626 TIP3     1664     TIP3     OH2      OT      -0.834000       15.9994           0
     33627 TIP3     1664     TIP3     H1       HT       0.417000       1.00800           0
     33628 TIP3     1664     TIP3     H2       HT       0.417000       1.00800           0
     33629 TIP3     1665     TIP3     OH2      OT      -0.834000       15.9994           0
     33630 TIP3     1665     TIP3     H1       HT       0.417000       1.00800           0
     33631 TIP3     1665     TIP3     H2       HT       0.417000       1.00800           0
     33632 TIP3     1666     TIP3     OH2      OT      -0.834000       15.9994           0
     33633 TIP3     1666     TIP3     H1       HT       0.417000       1.00800           0
     33634 TIP3     1666     TIP3     H2       HT       0.417000       1.00800           0
     33635 TIP3     1667     TIP3     OH2      OT      -0.834000       15.9994           0
     33636 TIP3     1667     TIP3     H1       HT       0.417000       1.00800           0
     33637 TIP3     1667     TIP3     H2       HT       0.417000       1.00800           0
     33638 TIP3     1668     TIP3     OH2      OT      -0.834000       15.9994           0
     33639 TIP3     1668     TIP3     H1       HT       0.417000       1.00800           0
     33640 TIP3     1668     TIP3     H2       HT       0.417000       1.00800           0
     33641 TIP3     1669     TIP3     OH2      OT      -0.834000       15.9994           0
     33642 TIP3     1669     TIP3     H1       HT       0.417000       1.00800           0
     33643 TIP3     1669     TIP3     H2       HT       0.417000       1.00800           0
     33644 TIP3     1670     TIP3     OH2      OT      -0.834000       15.9994           0
     33645 TIP3     1670     TIP3     H1       HT       0.417000       1.00800           0
     33646 TIP3     1670     TIP3     H2       HT       0.417000       1.00800           0
     33647 TIP3     1671     TIP3     OH2      OT      -0.834000       15.9994           0
     33648 TIP3     1671     TIP3     H1       HT       0.417000       1.00800           0
     33649 TIP3     1671     TIP3     H2       HT       0.417000       1.00800           0
     33650 TIP3     1672     TIP3     OH2      OT      -0.834000       15.9994           0
     33651 TIP3     1672     TIP3     H1       HT       0.417000       1.00800           0
     33652 TIP3     1672     TIP3     H2       HT       0.417000       1.00800           0
     33653 TIP3     1673     TIP3     OH2      OT      -0.834000       15.9994           0
     33654 TIP3     1673     TIP3     H1       HT       0.417000       1.00800           0
     33655 TIP3     1673     TIP3     H2       HT       0.417000       1.00800           0
     33656 TIP3     1674     TIP3     OH2      OT      -0.834000       15.9994           0
     33657 TIP3     1674     TIP3     H1       HT       0.417000       1.00800           0
     33658 TIP3     1674     TIP3     H2       HT       0.417000       1.00800           0
     33659 TIP3     1675     TIP3     OH2      OT      -0.834000       15.9994           0
     33660 TIP3     1675     TIP3     H1       HT       0.417000       1.00800           0
     33661 TIP3     1675     TIP3     H2       HT       0.417000       1.00800           0
     33662 TIP3     1676     TIP3     OH2      OT      -0.834000       15.9994           0
     33663 TIP3     1676     TIP3     H1       HT       0.417000       1.00800           0
     33664 TIP3     1676     TIP3     H2       HT       0.417000       1.00800           0
     33665 TIP3     1677     TIP3     OH2      OT      -0.834000       15.9994           0
     33666 TIP3     1677     TIP3     H1       HT       0.417000       1.00800           0
     33667 TIP3     1677     TIP3     H2       HT       0.417000       1.00800           0
     33668 TIP3     1678     TIP3     OH2      OT      -0.834000       15.9994           0
     33669 TIP3     1678     TIP3     H1       HT       0.417000       1.00800           0
     33670 TIP3     1678     TIP3     H2       HT       0.417000       1.00800           0
     33671 TIP3     1679     TIP3     OH2      OT      -0.834000       15.9994           0
     33672 TIP3     1679     TIP3     H1       HT       0.417000       1.00800           0
     33673 TIP3     1679     TIP3     H2       HT       0.417000       1.00800           0
     33674 TIP3     1680     TIP3     OH2      OT      -0.834000       15.9994           0
     33675 TIP3     1680     TIP3     H1       HT       0.417000       1.00800           0
     33676 TIP3     1680     TIP3     H2       HT       0.417000       1.00800           0
     33677 TIP3     1681     TIP3     OH2      OT      -0.834000       15.9994           0
     33678 TIP3     1681     TIP3     H1       HT       0.417000       1.00800           0
     33679 TIP3     1681     TIP3     H2       HT       0.417000       1.00800           0
     33680 TIP3     1682     TIP3     OH2      OT      -0.834000       15.9994           0
     33681 TIP3     1682     TIP3     H1       HT       0.417000       1.00800           0
     33682 TIP3     1682     TIP3     H2       HT       0.417000       1.00800           0
     33683 TIP3     1683     TIP3     OH2      OT      -0.834000       15.9994           0
     33684 TIP3     1683     TIP3     H1       HT       0.417000       1.00800           0
     33685 TIP3     1683     TIP3     H2       HT       0.417000       1.00800           0
     33686 TIP3     1684     TIP3     OH2      OT      -0.834000       15.9994           0
     33687 TIP3     1684     TIP3     H1       HT       0.417000       1.00800           0
     33688 TIP3     1684     TIP3     H2       HT       0.417000       1.00800           0
     33689 TIP3     1685     TIP3     OH2      OT      -0.834000       15.9994           0
     33690 TIP3     1685     TIP3     H1       HT       0.417000       1.00800           0
     33691 TIP3     1685     TIP3     H2       HT       0.417000       1.00800           0
     33692 TIP3     1686     TIP3     OH2      OT      -0.834000       15.9994           0
     33693 TIP3     1686     TIP3     H1       HT       0.417000       1.00800           0
     33694 TIP3     1686     TIP3     H2       HT       0.417000       1.00800           0
     33695 TIP3     1687     TIP3     OH2      OT      -0.834000       15.9994           0
     33696 TIP3     1687     TIP3     H1       HT       0.417000       1.00800           0
     33697 TIP3     1687     TIP3     H2       HT       0.417000       1.00800           0
     33698 TIP3     1688     TIP3     OH2      OT      -0.834000       15.9994           0
     33699 TIP3     1688     TIP3     H1       HT       0.417000       1.00800           0
     33700 TIP3     1688     TIP3     H2       HT       0.417000       1.00800           0
     33701 TIP3     1689     TIP3     OH2      OT      -0.834000       15.9994           0
     33702 TIP3     1689     TIP3     H1       HT       0.417000       1.00800           0
     33703 TIP3     1689     TIP3     H2       HT       0.417000       1.00800           0
     33704 TIP3     1690     TIP3     OH2      OT      -0.834000       15.9994           0
     33705 TIP3     1690     TIP3     H1       HT       0.417000       1.00800           0
     33706 TIP3     1690     TIP3     H2       HT       0.417000       1.00800           0
     33707 TIP3     1691     TIP3     OH2      OT      -0.834000       15.9994           0
     33708 TIP3     1691     TIP3     H1       HT       0.417000       1.00800           0
     33709 TIP3     1691     TIP3     H2       HT       0.417000       1.00800           0
     33710 TIP3     1692     TIP3     OH2      OT      -0.834000       15.9994           0
     33711 TIP3     1692     TIP3     H1       HT       0.417000       1.00800           0
     33712 TIP3     1692     TIP3     H2       HT       0.417000       1.00800           0
     33713 TIP3     1693     TIP3     OH2      OT      -0.834000       15.9994           0
     33714 TIP3     1693     TIP3     H1       HT       0.417000       1.00800           0
     33715 TIP3     1693     TIP3     H2       HT       0.417000       1.00800           0
     33716 TIP3     1694     TIP3     OH2      OT      -0.834000       15.9994           0
     33717 TIP3     1694     TIP3     H1       HT       0.417000       1.00800           0
     33718 TIP3     1694     TIP3     H2       HT       0.417000       1.00800           0
     33719 TIP3     1695     TIP3     OH2      OT      -0.834000       15.9994           0
     33720 TIP3     1695     TIP3     H1       HT       0.417000       1.00800           0
     33721 TIP3     1695     TIP3     H2       HT       0.417000       1.00800           0
     33722 TIP3     1696     TIP3     OH2      OT      -0.834000       15.9994           0
     33723 TIP3     1696     TIP3     H1       HT       0.417000       1.00800           0
     33724 TIP3     1696     TIP3     H2       HT       0.417000       1.00800           0
     33725 TIP3     1697     TIP3     OH2      OT      -0.834000       15.9994           0
     33726 TIP3     1697     TIP3     H1       HT       0.417000       1.00800           0
     33727 TIP3     1697     TIP3     H2       HT       0.417000       1.00800           0
     33728 TIP3     1698     TIP3     OH2      OT      -0.834000       15.9994           0
     33729 TIP3     1698     TIP3     H1       HT       0.417000       1.00800           0
     33730 TIP3     1698     TIP3     H2       HT       0.417000       1.00800           0
     33731 TIP3     1699     TIP3     OH2      OT      -0.834000       15.9994           0
     33732 TIP3     1699     TIP3     H1       HT       0.417000       1.00800           0
     33733 TIP3     1699     TIP3     H2       HT       0.417000       1.00800           0
     33734 TIP3     1700     TIP3     OH2      OT      -0.834000       15.9994           0
     33735 TIP3     1700     TIP3     H1       HT       0.417000       1.00800           0
     33736 TIP3     1700     TIP3     H2       HT       0.417000       1.00800           0
     33737 TIP3     1701     TIP3     OH2      OT      -0.834000       15.9994           0
     33738 TIP3     1701     TIP3     H1       HT       0.417000       1.00800           0
     33739 TIP3     1701     TIP3     H2       HT       0.417000       1.00800           0
     33740 TIP3     1702     TIP3     OH2      OT      -0.834000       15.9994           0
     33741 TIP3     1702     TIP3     H1       HT       0.417000       1.00800           0
     33742 TIP3     1702     TIP3     H2       HT       0.417000       1.00800           0
     33743 TIP3     1703     TIP3     OH2      OT      -0.834000       15.9994           0
     33744 TIP3     1703     TIP3     H1       HT       0.417000       1.00800           0
     33745 TIP3     1703     TIP3     H2       HT       0.417000       1.00800           0
     33746 TIP3     1704     TIP3     OH2      OT      -0.834000       15.9994           0
     33747 TIP3     1704     TIP3     H1       HT       0.417000       1.00800           0
     33748 TIP3     1704     TIP3     H2       HT       0.417000       1.00800           0
     33749 TIP3     1705     TIP3     OH2      OT      -0.834000       15.9994           0
     33750 TIP3     1705     TIP3     H1       HT       0.417000       1.00800           0
     33751 TIP3     1705     TIP3     H2       HT       0.417000       1.00800           0
     33752 TIP3     1706     TIP3     OH2      OT      -0.834000       15.9994           0
     33753 TIP3     1706     TIP3     H1       HT       0.417000       1.00800           0
     33754 TIP3     1706     TIP3     H2       HT       0.417000       1.00800           0
     33755 TIP3     1707     TIP3     OH2      OT      -0.834000       15.9994           0
     33756 TIP3     1707     TIP3     H1       HT       0.417000       1.00800           0
     33757 TIP3     1707     TIP3     H2       HT       0.417000       1.00800           0
     33758 TIP3     1708     TIP3     OH2      OT      -0.834000       15.9994           0
     33759 TIP3     1708     TIP3     H1       HT       0.417000       1.00800           0
     33760 TIP3     1708     TIP3     H2       HT       0.417000       1.00800           0
     33761 TIP3     1709     TIP3     OH2      OT      -0.834000       15.9994           0
     33762 TIP3     1709     TIP3     H1       HT       0.417000       1.00800           0
     33763 TIP3     1709     TIP3     H2       HT       0.417000       1.00800           0
     33764 TIP3     1710     TIP3     OH2      OT      -0.834000       15.9994           0
     33765 TIP3     1710     TIP3     H1       HT       0.417000       1.00800           0
     33766 TIP3     1710     TIP3     H2       HT       0.417000       1.00800           0
     33767 TIP3     1711     TIP3     OH2      OT      -0.834000       15.9994           0
     33768 TIP3     1711     TIP3     H1       HT       0.417000       1.00800           0
     33769 TIP3     1711     TIP3     H2       HT       0.417000       1.00800           0
     33770 TIP3     1712     TIP3     OH2      OT      -0.834000       15.9994           0
     33771 TIP3     1712     TIP3     H1       HT       0.417000       1.00800           0
     33772 TIP3     1712     TIP3     H2       HT       0.417000       1.00800           0
     33773 TIP3     1713     TIP3     OH2      OT      -0.834000       15.9994           0
     33774 TIP3     1713     TIP3     H1       HT       0.417000       1.00800           0
     33775 TIP3     1713     TIP3     H2       HT       0.417000       1.00800           0
     33776 TIP3     1714     TIP3     OH2      OT      -0.834000       15.9994           0
     33777 TIP3     1714     TIP3     H1       HT       0.417000       1.00800           0
     33778 TIP3     1714     TIP3     H2       HT       0.417000       1.00800           0
     33779 TIP3     1715     TIP3     OH2      OT      -0.834000       15.9994           0
     33780 TIP3     1715     TIP3     H1       HT       0.417000       1.00800           0
     33781 TIP3     1715     TIP3     H2       HT       0.417000       1.00800           0
     33782 TIP3     1716     TIP3     OH2      OT      -0.834000       15.9994           0
     33783 TIP3     1716     TIP3     H1       HT       0.417000       1.00800           0
     33784 TIP3     1716     TIP3     H2       HT       0.417000       1.00800           0
     33785 TIP3     1717     TIP3     OH2      OT      -0.834000       15.9994           0
     33786 TIP3     1717     TIP3     H1       HT       0.417000       1.00800           0
     33787 TIP3     1717     TIP3     H2       HT       0.417000       1.00800           0
     33788 TIP3     1718     TIP3     OH2      OT      -0.834000       15.9994           0
     33789 TIP3     1718     TIP3     H1       HT       0.417000       1.00800           0
     33790 TIP3     1718     TIP3     H2       HT       0.417000       1.00800           0
     33791 TIP3     1719     TIP3     OH2      OT      -0.834000       15.9994           0
     33792 TIP3     1719     TIP3     H1       HT       0.417000       1.00800           0
     33793 TIP3     1719     TIP3     H2       HT       0.417000       1.00800           0
     33794 TIP3     1720     TIP3     OH2      OT      -0.834000       15.9994           0
     33795 TIP3     1720     TIP3     H1       HT       0.417000       1.00800           0
     33796 TIP3     1720     TIP3     H2       HT       0.417000       1.00800           0
     33797 TIP3     1721     TIP3     OH2      OT      -0.834000       15.9994           0
     33798 TIP3     1721     TIP3     H1       HT       0.417000       1.00800           0
     33799 TIP3     1721     TIP3     H2       HT       0.417000       1.00800           0
     33800 TIP3     1722     TIP3     OH2      OT      -0.834000       15.9994           0
     33801 TIP3     1722     TIP3     H1       HT       0.417000       1.00800           0
     33802 TIP3     1722     TIP3     H2       HT       0.417000       1.00800           0
     33803 TIP3     1723     TIP3     OH2      OT      -0.834000       15.9994           0
     33804 TIP3     1723     TIP3     H1       HT       0.417000       1.00800           0
     33805 TIP3     1723     TIP3     H2       HT       0.417000       1.00800           0
     33806 TIP3     1724     TIP3     OH2      OT      -0.834000       15.9994           0
     33807 TIP3     1724     TIP3     H1       HT       0.417000       1.00800           0
     33808 TIP3     1724     TIP3     H2       HT       0.417000       1.00800           0
     33809 TIP3     1725     TIP3     OH2      OT      -0.834000       15.9994           0
     33810 TIP3     1725     TIP3     H1       HT       0.417000       1.00800           0
     33811 TIP3     1725     TIP3     H2       HT       0.417000       1.00800           0
     33812 TIP3     1726     TIP3     OH2      OT      -0.834000       15.9994           0
     33813 TIP3     1726     TIP3     H1       HT       0.417000       1.00800           0
     33814 TIP3     1726     TIP3     H2       HT       0.417000       1.00800           0
     33815 TIP3     1727     TIP3     OH2      OT      -0.834000       15.9994           0
     33816 TIP3     1727     TIP3     H1       HT       0.417000       1.00800           0
     33817 TIP3     1727     TIP3     H2       HT       0.417000       1.00800           0
     33818 TIP3     1728     TIP3     OH2      OT      -0.834000       15.9994           0
     33819 TIP3     1728     TIP3     H1       HT       0.417000       1.00800           0
     33820 TIP3     1728     TIP3     H2       HT       0.417000       1.00800           0
     33821 TIP3     1729     TIP3     OH2      OT      -0.834000       15.9994           0
     33822 TIP3     1729     TIP3     H1       HT       0.417000       1.00800           0
     33823 TIP3     1729     TIP3     H2       HT       0.417000       1.00800           0
     33824 TIP3     1730     TIP3     OH2      OT      -0.834000       15.9994           0
     33825 TIP3     1730     TIP3     H1       HT       0.417000       1.00800           0
     33826 TIP3     1730     TIP3     H2       HT       0.417000       1.00800           0
     33827 TIP3     1731     TIP3     OH2      OT      -0.834000       15.9994           0
     33828 TIP3     1731     TIP3     H1       HT       0.417000       1.00800           0
     33829 TIP3     1731     TIP3     H2       HT       0.417000       1.00800           0
     33830 TIP3     1732     TIP3     OH2      OT      -0.834000       15.9994           0
     33831 TIP3     1732     TIP3     H1       HT       0.417000       1.00800           0
     33832 TIP3     1732     TIP3     H2       HT       0.417000       1.00800           0
     33833 TIP3     1733     TIP3     OH2      OT      -0.834000       15.9994           0
     33834 TIP3     1733     TIP3     H1       HT       0.417000       1.00800           0
     33835 TIP3     1733     TIP3     H2       HT       0.417000       1.00800           0
     33836 TIP3     1734     TIP3     OH2      OT      -0.834000       15.9994           0
     33837 TIP3     1734     TIP3     H1       HT       0.417000       1.00800           0
     33838 TIP3     1734     TIP3     H2       HT       0.417000       1.00800           0
     33839 TIP3     1735     TIP3     OH2      OT      -0.834000       15.9994           0
     33840 TIP3     1735     TIP3     H1       HT       0.417000       1.00800           0
     33841 TIP3     1735     TIP3     H2       HT       0.417000       1.00800           0
     33842 TIP3     1736     TIP3     OH2      OT      -0.834000       15.9994           0
     33843 TIP3     1736     TIP3     H1       HT       0.417000       1.00800           0
     33844 TIP3     1736     TIP3     H2       HT       0.417000       1.00800           0
     33845 TIP3     1737     TIP3     OH2      OT      -0.834000       15.9994           0
     33846 TIP3     1737     TIP3     H1       HT       0.417000       1.00800           0
     33847 TIP3     1737     TIP3     H2       HT       0.417000       1.00800           0
     33848 TIP3     1738     TIP3     OH2      OT      -0.834000       15.9994           0
     33849 TIP3     1738     TIP3     H1       HT       0.417000       1.00800           0
     33850 TIP3     1738     TIP3     H2       HT       0.417000       1.00800           0
     33851 TIP3     1739     TIP3     OH2      OT      -0.834000       15.9994           0
     33852 TIP3     1739     TIP3     H1       HT       0.417000       1.00800           0
     33853 TIP3     1739     TIP3     H2       HT       0.417000       1.00800           0
     33854 TIP3     1740     TIP3     OH2      OT      -0.834000       15.9994           0
     33855 TIP3     1740     TIP3     H1       HT       0.417000       1.00800           0
     33856 TIP3     1740     TIP3     H2       HT       0.417000       1.00800           0
     33857 TIP3     1741     TIP3     OH2      OT      -0.834000       15.9994           0
     33858 TIP3     1741     TIP3     H1       HT       0.417000       1.00800           0
     33859 TIP3     1741     TIP3     H2       HT       0.417000       1.00800           0
     33860 TIP3     1742     TIP3     OH2      OT      -0.834000       15.9994           0
     33861 TIP3     1742     TIP3     H1       HT       0.417000       1.00800           0
     33862 TIP3     1742     TIP3     H2       HT       0.417000       1.00800           0
     33863 TIP3     1743     TIP3     OH2      OT      -0.834000       15.9994           0
     33864 TIP3     1743     TIP3     H1       HT       0.417000       1.00800           0
     33865 TIP3     1743     TIP3     H2       HT       0.417000       1.00800           0
     33866 TIP3     1744     TIP3     OH2      OT      -0.834000       15.9994           0
     33867 TIP3     1744     TIP3     H1       HT       0.417000       1.00800           0
     33868 TIP3     1744     TIP3     H2       HT       0.417000       1.00800           0
     33869 TIP3     1745     TIP3     OH2      OT      -0.834000       15.9994           0
     33870 TIP3     1745     TIP3     H1       HT       0.417000       1.00800           0
     33871 TIP3     1745     TIP3     H2       HT       0.417000       1.00800           0
     33872 TIP3     1746     TIP3     OH2      OT      -0.834000       15.9994           0
     33873 TIP3     1746     TIP3     H1       HT       0.417000       1.00800           0
     33874 TIP3     1746     TIP3     H2       HT       0.417000       1.00800           0
     33875 TIP3     1747     TIP3     OH2      OT      -0.834000       15.9994           0
     33876 TIP3     1747     TIP3     H1       HT       0.417000       1.00800           0
     33877 TIP3     1747     TIP3     H2       HT       0.417000       1.00800           0
     33878 TIP3     1748     TIP3     OH2      OT      -0.834000       15.9994           0
     33879 TIP3     1748     TIP3     H1       HT       0.417000       1.00800           0
     33880 TIP3     1748     TIP3     H2       HT       0.417000       1.00800           0
     33881 TIP3     1749     TIP3     OH2      OT      -0.834000       15.9994           0
     33882 TIP3     1749     TIP3     H1       HT       0.417000       1.00800           0
     33883 TIP3     1749     TIP3     H2       HT       0.417000       1.00800           0
     33884 TIP3     1750     TIP3     OH2      OT      -0.834000       15.9994           0
     33885 TIP3     1750     TIP3     H1       HT       0.417000       1.00800           0
     33886 TIP3     1750     TIP3     H2       HT       0.417000       1.00800           0
     33887 TIP3     1751     TIP3     OH2      OT      -0.834000       15.9994           0
     33888 TIP3     1751     TIP3     H1       HT       0.417000       1.00800           0
     33889 TIP3     1751     TIP3     H2       HT       0.417000       1.00800           0
     33890 TIP3     1752     TIP3     OH2      OT      -0.834000       15.9994           0
     33891 TIP3     1752     TIP3     H1       HT       0.417000       1.00800           0
     33892 TIP3     1752     TIP3     H2       HT       0.417000       1.00800           0
     33893 TIP3     1753     TIP3     OH2      OT      -0.834000       15.9994           0
     33894 TIP3     1753     TIP3     H1       HT       0.417000       1.00800           0
     33895 TIP3     1753     TIP3     H2       HT       0.417000       1.00800           0
     33896 TIP3     1754     TIP3     OH2      OT      -0.834000       15.9994           0
     33897 TIP3     1754     TIP3     H1       HT       0.417000       1.00800           0
     33898 TIP3     1754     TIP3     H2       HT       0.417000       1.00800           0
     33899 TIP3     1755     TIP3     OH2      OT      -0.834000       15.9994           0
     33900 TIP3     1755     TIP3     H1       HT       0.417000       1.00800           0
     33901 TIP3     1755     TIP3     H2       HT       0.417000       1.00800           0
     33902 TIP3     1756     TIP3     OH2      OT      -0.834000       15.9994           0
     33903 TIP3     1756     TIP3     H1       HT       0.417000       1.00800           0
     33904 TIP3     1756     TIP3     H2       HT       0.417000       1.00800           0
     33905 TIP3     1757     TIP3     OH2      OT      -0.834000       15.9994           0
     33906 TIP3     1757     TIP3     H1       HT       0.417000       1.00800           0
     33907 TIP3     1757     TIP3     H2       HT       0.417000       1.00800           0
     33908 TIP3     1758     TIP3     OH2      OT      -0.834000       15.9994           0
     33909 TIP3     1758     TIP3     H1       HT       0.417000       1.00800           0
     33910 TIP3     1758     TIP3     H2       HT       0.417000       1.00800           0
     33911 TIP3     1759     TIP3     OH2      OT      -0.834000       15.9994           0
     33912 TIP3     1759     TIP3     H1       HT       0.417000       1.00800           0
     33913 TIP3     1759     TIP3     H2       HT       0.417000       1.00800           0
     33914 TIP3     1760     TIP3     OH2      OT      -0.834000       15.9994           0
     33915 TIP3     1760     TIP3     H1       HT       0.417000       1.00800           0
     33916 TIP3     1760     TIP3     H2       HT       0.417000       1.00800           0
     33917 TIP3     1761     TIP3     OH2      OT      -0.834000       15.9994           0
     33918 TIP3     1761     TIP3     H1       HT       0.417000       1.00800           0
     33919 TIP3     1761     TIP3     H2       HT       0.417000       1.00800           0
     33920 TIP3     1762     TIP3     OH2      OT      -0.834000       15.9994           0
     33921 TIP3     1762     TIP3     H1       HT       0.417000       1.00800           0
     33922 TIP3     1762     TIP3     H2       HT       0.417000       1.00800           0
     33923 TIP3     1763     TIP3     OH2      OT      -0.834000       15.9994           0
     33924 TIP3     1763     TIP3     H1       HT       0.417000       1.00800           0
     33925 TIP3     1763     TIP3     H2       HT       0.417000       1.00800           0
     33926 TIP3     1764     TIP3     OH2      OT      -0.834000       15.9994           0
     33927 TIP3     1764     TIP3     H1       HT       0.417000       1.00800           0
     33928 TIP3     1764     TIP3     H2       HT       0.417000       1.00800           0
     33929 TIP3     1765     TIP3     OH2      OT      -0.834000       15.9994           0
     33930 TIP3     1765     TIP3     H1       HT       0.417000       1.00800           0
     33931 TIP3     1765     TIP3     H2       HT       0.417000       1.00800           0
     33932 TIP3     1766     TIP3     OH2      OT      -0.834000       15.9994           0
     33933 TIP3     1766     TIP3     H1       HT       0.417000       1.00800           0
     33934 TIP3     1766     TIP3     H2       HT       0.417000       1.00800           0
     33935 TIP3     1767     TIP3     OH2      OT      -0.834000       15.9994           0
     33936 TIP3     1767     TIP3     H1       HT       0.417000       1.00800           0
     33937 TIP3     1767     TIP3     H2       HT       0.417000       1.00800           0
     33938 TIP3     1768     TIP3     OH2      OT      -0.834000       15.9994           0
     33939 TIP3     1768     TIP3     H1       HT       0.417000       1.00800           0
     33940 TIP3     1768     TIP3     H2       HT       0.417000       1.00800           0
     33941 TIP3     1769     TIP3     OH2      OT      -0.834000       15.9994           0
     33942 TIP3     1769     TIP3     H1       HT       0.417000       1.00800           0
     33943 TIP3     1769     TIP3     H2       HT       0.417000       1.00800           0
     33944 TIP3     1770     TIP3     OH2      OT      -0.834000       15.9994           0
     33945 TIP3     1770     TIP3     H1       HT       0.417000       1.00800           0
     33946 TIP3     1770     TIP3     H2       HT       0.417000       1.00800           0
     33947 TIP3     1771     TIP3     OH2      OT      -0.834000       15.9994           0
     33948 TIP3     1771     TIP3     H1       HT       0.417000       1.00800           0
     33949 TIP3     1771     TIP3     H2       HT       0.417000       1.00800           0
     33950 TIP3     1772     TIP3     OH2      OT      -0.834000       15.9994           0
     33951 TIP3     1772     TIP3     H1       HT       0.417000       1.00800           0
     33952 TIP3     1772     TIP3     H2       HT       0.417000       1.00800           0
     33953 TIP3     1773     TIP3     OH2      OT      -0.834000       15.9994           0
     33954 TIP3     1773     TIP3     H1       HT       0.417000       1.00800           0
     33955 TIP3     1773     TIP3     H2       HT       0.417000       1.00800           0
     33956 TIP3     1774     TIP3     OH2      OT      -0.834000       15.9994           0
     33957 TIP3     1774     TIP3     H1       HT       0.417000       1.00800           0
     33958 TIP3     1774     TIP3     H2       HT       0.417000       1.00800           0
     33959 TIP3     1775     TIP3     OH2      OT      -0.834000       15.9994           0
     33960 TIP3     1775     TIP3     H1       HT       0.417000       1.00800           0
     33961 TIP3     1775     TIP3     H2       HT       0.417000       1.00800           0
     33962 TIP3     1776     TIP3     OH2      OT      -0.834000       15.9994           0
     33963 TIP3     1776     TIP3     H1       HT       0.417000       1.00800           0
     33964 TIP3     1776     TIP3     H2       HT       0.417000       1.00800           0
     33965 TIP3     1777     TIP3     OH2      OT      -0.834000       15.9994           0
     33966 TIP3     1777     TIP3     H1       HT       0.417000       1.00800           0
     33967 TIP3     1777     TIP3     H2       HT       0.417000       1.00800           0
     33968 TIP3     1778     TIP3     OH2      OT      -0.834000       15.9994           0
     33969 TIP3     1778     TIP3     H1       HT       0.417000       1.00800           0
     33970 TIP3     1778     TIP3     H2       HT       0.417000       1.00800           0
     33971 TIP3     1779     TIP3     OH2      OT      -0.834000       15.9994           0
     33972 TIP3     1779     TIP3     H1       HT       0.417000       1.00800           0
     33973 TIP3     1779     TIP3     H2       HT       0.417000       1.00800           0
     33974 TIP3     1780     TIP3     OH2      OT      -0.834000       15.9994           0
     33975 TIP3     1780     TIP3     H1       HT       0.417000       1.00800           0
     33976 TIP3     1780     TIP3     H2       HT       0.417000       1.00800           0
     33977 TIP3     1781     TIP3     OH2      OT      -0.834000       15.9994           0
     33978 TIP3     1781     TIP3     H1       HT       0.417000       1.00800           0
     33979 TIP3     1781     TIP3     H2       HT       0.417000       1.00800           0
     33980 TIP3     1782     TIP3     OH2      OT      -0.834000       15.9994           0
     33981 TIP3     1782     TIP3     H1       HT       0.417000       1.00800           0
     33982 TIP3     1782     TIP3     H2       HT       0.417000       1.00800           0
     33983 TIP3     1783     TIP3     OH2      OT      -0.834000       15.9994           0
     33984 TIP3     1783     TIP3     H1       HT       0.417000       1.00800           0
     33985 TIP3     1783     TIP3     H2       HT       0.417000       1.00800           0
     33986 TIP3     1784     TIP3     OH2      OT      -0.834000       15.9994           0
     33987 TIP3     1784     TIP3     H1       HT       0.417000       1.00800           0
     33988 TIP3     1784     TIP3     H2       HT       0.417000       1.00800           0
     33989 TIP3     1785     TIP3     OH2      OT      -0.834000       15.9994           0
     33990 TIP3     1785     TIP3     H1       HT       0.417000       1.00800           0
     33991 TIP3     1785     TIP3     H2       HT       0.417000       1.00800           0
     33992 TIP3     1786     TIP3     OH2      OT      -0.834000       15.9994           0
     33993 TIP3     1786     TIP3     H1       HT       0.417000       1.00800           0
     33994 TIP3     1786     TIP3     H2       HT       0.417000       1.00800           0
     33995 TIP3     1787     TIP3     OH2      OT      -0.834000       15.9994           0
     33996 TIP3     1787     TIP3     H1       HT       0.417000       1.00800           0
     33997 TIP3     1787     TIP3     H2       HT       0.417000       1.00800           0
     33998 TIP3     1788     TIP3     OH2      OT      -0.834000       15.9994           0
     33999 TIP3     1788     TIP3     H1       HT       0.417000       1.00800           0
     34000 TIP3     1788     TIP3     H2       HT       0.417000       1.00800           0
     34001 TIP3     1789     TIP3     OH2      OT      -0.834000       15.9994           0
     34002 TIP3     1789     TIP3     H1       HT       0.417000       1.00800           0
     34003 TIP3     1789     TIP3     H2       HT       0.417000       1.00800           0
     34004 TIP3     1790     TIP3     OH2      OT      -0.834000       15.9994           0
     34005 TIP3     1790     TIP3     H1       HT       0.417000       1.00800           0
     34006 TIP3     1790     TIP3     H2       HT       0.417000       1.00800           0
     34007 TIP3     1791     TIP3     OH2      OT      -0.834000       15.9994           0
     34008 TIP3     1791     TIP3     H1       HT       0.417000       1.00800           0
     34009 TIP3     1791     TIP3     H2       HT       0.417000       1.00800           0
     34010 TIP3     1792     TIP3     OH2      OT      -0.834000       15.9994           0
     34011 TIP3     1792     TIP3     H1       HT       0.417000       1.00800           0
     34012 TIP3     1792     TIP3     H2       HT       0.417000       1.00800           0
     34013 TIP3     1793     TIP3     OH2      OT      -0.834000       15.9994           0
     34014 TIP3     1793     TIP3     H1       HT       0.417000       1.00800           0
     34015 TIP3     1793     TIP3     H2       HT       0.417000       1.00800           0
     34016 TIP3     1794     TIP3     OH2      OT      -0.834000       15.9994           0
     34017 TIP3     1794     TIP3     H1       HT       0.417000       1.00800           0
     34018 TIP3     1794     TIP3     H2       HT       0.417000       1.00800           0
     34019 TIP3     1795     TIP3     OH2      OT      -0.834000       15.9994           0
     34020 TIP3     1795     TIP3     H1       HT       0.417000       1.00800           0
     34021 TIP3     1795     TIP3     H2       HT       0.417000       1.00800           0
     34022 TIP3     1796     TIP3     OH2      OT      -0.834000       15.9994           0
     34023 TIP3     1796     TIP3     H1       HT       0.417000       1.00800           0
     34024 TIP3     1796     TIP3     H2       HT       0.417000       1.00800           0
     34025 TIP3     1797     TIP3     OH2      OT      -0.834000       15.9994           0
     34026 TIP3     1797     TIP3     H1       HT       0.417000       1.00800           0
     34027 TIP3     1797     TIP3     H2       HT       0.417000       1.00800           0
     34028 TIP3     1798     TIP3     OH2      OT      -0.834000       15.9994           0
     34029 TIP3     1798     TIP3     H1       HT       0.417000       1.00800           0
     34030 TIP3     1798     TIP3     H2       HT       0.417000       1.00800           0
     34031 TIP3     1799     TIP3     OH2      OT      -0.834000       15.9994           0
     34032 TIP3     1799     TIP3     H1       HT       0.417000       1.00800           0
     34033 TIP3     1799     TIP3     H2       HT       0.417000       1.00800           0
     34034 TIP3     1800     TIP3     OH2      OT      -0.834000       15.9994           0
     34035 TIP3     1800     TIP3     H1       HT       0.417000       1.00800           0
     34036 TIP3     1800     TIP3     H2       HT       0.417000       1.00800           0
     34037 TIP3     1801     TIP3     OH2      OT      -0.834000       15.9994           0
     34038 TIP3     1801     TIP3     H1       HT       0.417000       1.00800           0
     34039 TIP3     1801     TIP3     H2       HT       0.417000       1.00800           0
     34040 TIP3     1802     TIP3     OH2      OT      -0.834000       15.9994           0
     34041 TIP3     1802     TIP3     H1       HT       0.417000       1.00800           0
     34042 TIP3     1802     TIP3     H2       HT       0.417000       1.00800           0
     34043 TIP3     1803     TIP3     OH2      OT      -0.834000       15.9994           0
     34044 TIP3     1803     TIP3     H1       HT       0.417000       1.00800           0
     34045 TIP3     1803     TIP3     H2       HT       0.417000       1.00800           0
     34046 TIP3     1804     TIP3     OH2      OT      -0.834000       15.9994           0
     34047 TIP3     1804     TIP3     H1       HT       0.417000       1.00800           0
     34048 TIP3     1804     TIP3     H2       HT       0.417000       1.00800           0
     34049 TIP3     1805     TIP3     OH2      OT      -0.834000       15.9994           0
     34050 TIP3     1805     TIP3     H1       HT       0.417000       1.00800           0
     34051 TIP3     1805     TIP3     H2       HT       0.417000       1.00800           0
     34052 TIP3     1806     TIP3     OH2      OT      -0.834000       15.9994           0
     34053 TIP3     1806     TIP3     H1       HT       0.417000       1.00800           0
     34054 TIP3     1806     TIP3     H2       HT       0.417000       1.00800           0
     34055 TIP3     1807     TIP3     OH2      OT      -0.834000       15.9994           0
     34056 TIP3     1807     TIP3     H1       HT       0.417000       1.00800           0
     34057 TIP3     1807     TIP3     H2       HT       0.417000       1.00800           0
     34058 TIP3     1808     TIP3     OH2      OT      -0.834000       15.9994           0
     34059 TIP3     1808     TIP3     H1       HT       0.417000       1.00800           0
     34060 TIP3     1808     TIP3     H2       HT       0.417000       1.00800           0
     34061 TIP3     1809     TIP3     OH2      OT      -0.834000       15.9994           0
     34062 TIP3     1809     TIP3     H1       HT       0.417000       1.00800           0
     34063 TIP3     1809     TIP3     H2       HT       0.417000       1.00800           0
     34064 TIP3     1810     TIP3     OH2      OT      -0.834000       15.9994           0
     34065 TIP3     1810     TIP3     H1       HT       0.417000       1.00800           0
     34066 TIP3     1810     TIP3     H2       HT       0.417000       1.00800           0
     34067 TIP3     1811     TIP3     OH2      OT      -0.834000       15.9994           0
     34068 TIP3     1811     TIP3     H1       HT       0.417000       1.00800           0
     34069 TIP3     1811     TIP3     H2       HT       0.417000       1.00800           0
     34070 TIP3     1812     TIP3     OH2      OT      -0.834000       15.9994           0
     34071 TIP3     1812     TIP3     H1       HT       0.417000       1.00800           0
     34072 TIP3     1812     TIP3     H2       HT       0.417000       1.00800           0
     34073 TIP3     1813     TIP3     OH2      OT      -0.834000       15.9994           0
     34074 TIP3     1813     TIP3     H1       HT       0.417000       1.00800           0
     34075 TIP3     1813     TIP3     H2       HT       0.417000       1.00800           0
     34076 TIP3     1814     TIP3     OH2      OT      -0.834000       15.9994           0
     34077 TIP3     1814     TIP3     H1       HT       0.417000       1.00800           0
     34078 TIP3     1814     TIP3     H2       HT       0.417000       1.00800           0
     34079 TIP3     1815     TIP3     OH2      OT      -0.834000       15.9994           0
     34080 TIP3     1815     TIP3     H1       HT       0.417000       1.00800           0
     34081 TIP3     1815     TIP3     H2       HT       0.417000       1.00800           0
     34082 TIP3     1816     TIP3     OH2      OT      -0.834000       15.9994           0
     34083 TIP3     1816     TIP3     H1       HT       0.417000       1.00800           0
     34084 TIP3     1816     TIP3     H2       HT       0.417000       1.00800           0
     34085 TIP3     1817     TIP3     OH2      OT      -0.834000       15.9994           0
     34086 TIP3     1817     TIP3     H1       HT       0.417000       1.00800           0
     34087 TIP3     1817     TIP3     H2       HT       0.417000       1.00800           0
     34088 TIP3     1818     TIP3     OH2      OT      -0.834000       15.9994           0
     34089 TIP3     1818     TIP3     H1       HT       0.417000       1.00800           0
     34090 TIP3     1818     TIP3     H2       HT       0.417000       1.00800           0
     34091 TIP3     1819     TIP3     OH2      OT      -0.834000       15.9994           0
     34092 TIP3     1819     TIP3     H1       HT       0.417000       1.00800           0
     34093 TIP3     1819     TIP3     H2       HT       0.417000       1.00800           0
     34094 TIP3     1820     TIP3     OH2      OT      -0.834000       15.9994           0
     34095 TIP3     1820     TIP3     H1       HT       0.417000       1.00800           0
     34096 TIP3     1820     TIP3     H2       HT       0.417000       1.00800           0
     34097 TIP3     1821     TIP3     OH2      OT      -0.834000       15.9994           0
     34098 TIP3     1821     TIP3     H1       HT       0.417000       1.00800           0
     34099 TIP3     1821     TIP3     H2       HT       0.417000       1.00800           0
     34100 TIP3     1822     TIP3     OH2      OT      -0.834000       15.9994           0
     34101 TIP3     1822     TIP3     H1       HT       0.417000       1.00800           0
     34102 TIP3     1822     TIP3     H2       HT       0.417000       1.00800           0
     34103 TIP3     1823     TIP3     OH2      OT      -0.834000       15.9994           0
     34104 TIP3     1823     TIP3     H1       HT       0.417000       1.00800           0
     34105 TIP3     1823     TIP3     H2       HT       0.417000       1.00800           0
     34106 TIP3     1824     TIP3     OH2      OT      -0.834000       15.9994           0
     34107 TIP3     1824     TIP3     H1       HT       0.417000       1.00800           0
     34108 TIP3     1824     TIP3     H2       HT       0.417000       1.00800           0
     34109 TIP3     1825     TIP3     OH2      OT      -0.834000       15.9994           0
     34110 TIP3     1825     TIP3     H1       HT       0.417000       1.00800           0
     34111 TIP3     1825     TIP3     H2       HT       0.417000       1.00800           0
     34112 TIP3     1826     TIP3     OH2      OT      -0.834000       15.9994           0
     34113 TIP3     1826     TIP3     H1       HT       0.417000       1.00800           0
     34114 TIP3     1826     TIP3     H2       HT       0.417000       1.00800           0
     34115 TIP3     1827     TIP3     OH2      OT      -0.834000       15.9994           0
     34116 TIP3     1827     TIP3     H1       HT       0.417000       1.00800           0
     34117 TIP3     1827     TIP3     H2       HT       0.417000       1.00800           0
     34118 TIP3     1828     TIP3     OH2      OT      -0.834000       15.9994           0
     34119 TIP3     1828     TIP3     H1       HT       0.417000       1.00800           0
     34120 TIP3     1828     TIP3     H2       HT       0.417000       1.00800           0
     34121 TIP3     1829     TIP3     OH2      OT      -0.834000       15.9994           0
     34122 TIP3     1829     TIP3     H1       HT       0.417000       1.00800           0
     34123 TIP3     1829     TIP3     H2       HT       0.417000       1.00800           0
     34124 TIP3     1830     TIP3     OH2      OT      -0.834000       15.9994           0
     34125 TIP3     1830     TIP3     H1       HT       0.417000       1.00800           0
     34126 TIP3     1830     TIP3     H2       HT       0.417000       1.00800           0
     34127 TIP3     1831     TIP3     OH2      OT      -0.834000       15.9994           0
     34128 TIP3     1831     TIP3     H1       HT       0.417000       1.00800           0
     34129 TIP3     1831     TIP3     H2       HT       0.417000       1.00800           0
     34130 TIP3     1832     TIP3     OH2      OT      -0.834000       15.9994           0
     34131 TIP3     1832     TIP3     H1       HT       0.417000       1.00800           0
     34132 TIP3     1832     TIP3     H2       HT       0.417000       1.00800           0
     34133 TIP3     1833     TIP3     OH2      OT      -0.834000       15.9994           0
     34134 TIP3     1833     TIP3     H1       HT       0.417000       1.00800           0
     34135 TIP3     1833     TIP3     H2       HT       0.417000       1.00800           0
     34136 TIP3     1834     TIP3     OH2      OT      -0.834000       15.9994           0
     34137 TIP3     1834     TIP3     H1       HT       0.417000       1.00800           0
     34138 TIP3     1834     TIP3     H2       HT       0.417000       1.00800           0
     34139 TIP3     1835     TIP3     OH2      OT      -0.834000       15.9994           0
     34140 TIP3     1835     TIP3     H1       HT       0.417000       1.00800           0
     34141 TIP3     1835     TIP3     H2       HT       0.417000       1.00800           0
     34142 TIP3     1836     TIP3     OH2      OT      -0.834000       15.9994           0
     34143 TIP3     1836     TIP3     H1       HT       0.417000       1.00800           0
     34144 TIP3     1836     TIP3     H2       HT       0.417000       1.00800           0
     34145 TIP3     1837     TIP3     OH2      OT      -0.834000       15.9994           0
     34146 TIP3     1837     TIP3     H1       HT       0.417000       1.00800           0
     34147 TIP3     1837     TIP3     H2       HT       0.417000       1.00800           0
     34148 TIP3     1838     TIP3     OH2      OT      -0.834000       15.9994           0
     34149 TIP3     1838     TIP3     H1       HT       0.417000       1.00800           0
     34150 TIP3     1838     TIP3     H2       HT       0.417000       1.00800           0
     34151 TIP3     1839     TIP3     OH2      OT      -0.834000       15.9994           0
     34152 TIP3     1839     TIP3     H1       HT       0.417000       1.00800           0
     34153 TIP3     1839     TIP3     H2       HT       0.417000       1.00800           0
     34154 TIP3     1840     TIP3     OH2      OT      -0.834000       15.9994           0
     34155 TIP3     1840     TIP3     H1       HT       0.417000       1.00800           0
     34156 TIP3     1840     TIP3     H2       HT       0.417000       1.00800           0
     34157 TIP3     1841     TIP3     OH2      OT      -0.834000       15.9994           0
     34158 TIP3     1841     TIP3     H1       HT       0.417000       1.00800           0
     34159 TIP3     1841     TIP3     H2       HT       0.417000       1.00800           0
     34160 TIP3     1842     TIP3     OH2      OT      -0.834000       15.9994           0
     34161 TIP3     1842     TIP3     H1       HT       0.417000       1.00800           0
     34162 TIP3     1842     TIP3     H2       HT       0.417000       1.00800           0
     34163 TIP3     1843     TIP3     OH2      OT      -0.834000       15.9994           0
     34164 TIP3     1843     TIP3     H1       HT       0.417000       1.00800           0
     34165 TIP3     1843     TIP3     H2       HT       0.417000       1.00800           0
     34166 TIP3     1844     TIP3     OH2      OT      -0.834000       15.9994           0
     34167 TIP3     1844     TIP3     H1       HT       0.417000       1.00800           0
     34168 TIP3     1844     TIP3     H2       HT       0.417000       1.00800           0
     34169 TIP3     1845     TIP3     OH2      OT      -0.834000       15.9994           0
     34170 TIP3     1845     TIP3     H1       HT       0.417000       1.00800           0
     34171 TIP3     1845     TIP3     H2       HT       0.417000       1.00800           0
     34172 TIP3     1846     TIP3     OH2      OT      -0.834000       15.9994           0
     34173 TIP3     1846     TIP3     H1       HT       0.417000       1.00800           0
     34174 TIP3     1846     TIP3     H2       HT       0.417000       1.00800           0
     34175 TIP3     1847     TIP3     OH2      OT      -0.834000       15.9994           0
     34176 TIP3     1847     TIP3     H1       HT       0.417000       1.00800           0
     34177 TIP3     1847     TIP3     H2       HT       0.417000       1.00800           0
     34178 TIP3     1848     TIP3     OH2      OT      -0.834000       15.9994           0
     34179 TIP3     1848     TIP3     H1       HT       0.417000       1.00800           0
     34180 TIP3     1848     TIP3     H2       HT       0.417000       1.00800           0
     34181 TIP3     1849     TIP3     OH2      OT      -0.834000       15.9994           0
     34182 TIP3     1849     TIP3     H1       HT       0.417000       1.00800           0
     34183 TIP3     1849     TIP3     H2       HT       0.417000       1.00800           0
     34184 TIP3     1850     TIP3     OH2      OT      -0.834000       15.9994           0
     34185 TIP3     1850     TIP3     H1       HT       0.417000       1.00800           0
     34186 TIP3     1850     TIP3     H2       HT       0.417000       1.00800           0
     34187 TIP3     1851     TIP3     OH2      OT      -0.834000       15.9994           0
     34188 TIP3     1851     TIP3     H1       HT       0.417000       1.00800           0
     34189 TIP3     1851     TIP3     H2       HT       0.417000       1.00800           0
     34190 TIP3     1852     TIP3     OH2      OT      -0.834000       15.9994           0
     34191 TIP3     1852     TIP3     H1       HT       0.417000       1.00800           0
     34192 TIP3     1852     TIP3     H2       HT       0.417000       1.00800           0
     34193 TIP3     1853     TIP3     OH2      OT      -0.834000       15.9994           0
     34194 TIP3     1853     TIP3     H1       HT       0.417000       1.00800           0
     34195 TIP3     1853     TIP3     H2       HT       0.417000       1.00800           0
     34196 TIP3     1854     TIP3     OH2      OT      -0.834000       15.9994           0
     34197 TIP3     1854     TIP3     H1       HT       0.417000       1.00800           0
     34198 TIP3     1854     TIP3     H2       HT       0.417000       1.00800           0
     34199 TIP3     1855     TIP3     OH2      OT      -0.834000       15.9994           0
     34200 TIP3     1855     TIP3     H1       HT       0.417000       1.00800           0
     34201 TIP3     1855     TIP3     H2       HT       0.417000       1.00800           0
     34202 TIP3     1856     TIP3     OH2      OT      -0.834000       15.9994           0
     34203 TIP3     1856     TIP3     H1       HT       0.417000       1.00800           0
     34204 TIP3     1856     TIP3     H2       HT       0.417000       1.00800           0
     34205 TIP3     1857     TIP3     OH2      OT      -0.834000       15.9994           0
     34206 TIP3     1857     TIP3     H1       HT       0.417000       1.00800           0
     34207 TIP3     1857     TIP3     H2       HT       0.417000       1.00800           0
     34208 TIP3     1858     TIP3     OH2      OT      -0.834000       15.9994           0
     34209 TIP3     1858     TIP3     H1       HT       0.417000       1.00800           0
     34210 TIP3     1858     TIP3     H2       HT       0.417000       1.00800           0
     34211 TIP3     1859     TIP3     OH2      OT      -0.834000       15.9994           0
     34212 TIP3     1859     TIP3     H1       HT       0.417000       1.00800           0
     34213 TIP3     1859     TIP3     H2       HT       0.417000       1.00800           0
     34214 TIP3     1860     TIP3     OH2      OT      -0.834000       15.9994           0
     34215 TIP3     1860     TIP3     H1       HT       0.417000       1.00800           0
     34216 TIP3     1860     TIP3     H2       HT       0.417000       1.00800           0
     34217 TIP3     1861     TIP3     OH2      OT      -0.834000       15.9994           0
     34218 TIP3     1861     TIP3     H1       HT       0.417000       1.00800           0
     34219 TIP3     1861     TIP3     H2       HT       0.417000       1.00800           0
     34220 TIP3     1862     TIP3     OH2      OT      -0.834000       15.9994           0
     34221 TIP3     1862     TIP3     H1       HT       0.417000       1.00800           0
     34222 TIP3     1862     TIP3     H2       HT       0.417000       1.00800           0
     34223 TIP3     1863     TIP3     OH2      OT      -0.834000       15.9994           0
     34224 TIP3     1863     TIP3     H1       HT       0.417000       1.00800           0
     34225 TIP3     1863     TIP3     H2       HT       0.417000       1.00800           0
     34226 TIP3     1864     TIP3     OH2      OT      -0.834000       15.9994           0
     34227 TIP3     1864     TIP3     H1       HT       0.417000       1.00800           0
     34228 TIP3     1864     TIP3     H2       HT       0.417000       1.00800           0
     34229 TIP3     1865     TIP3     OH2      OT      -0.834000       15.9994           0
     34230 TIP3     1865     TIP3     H1       HT       0.417000       1.00800           0
     34231 TIP3     1865     TIP3     H2       HT       0.417000       1.00800           0
     34232 TIP3     1866     TIP3     OH2      OT      -0.834000       15.9994           0
     34233 TIP3     1866     TIP3     H1       HT       0.417000       1.00800           0
     34234 TIP3     1866     TIP3     H2       HT       0.417000       1.00800           0
     34235 TIP3     1867     TIP3     OH2      OT      -0.834000       15.9994           0
     34236 TIP3     1867     TIP3     H1       HT       0.417000       1.00800           0
     34237 TIP3     1867     TIP3     H2       HT       0.417000       1.00800           0
     34238 TIP3     1868     TIP3     OH2      OT      -0.834000       15.9994           0
     34239 TIP3     1868     TIP3     H1       HT       0.417000       1.00800           0
     34240 TIP3     1868     TIP3     H2       HT       0.417000       1.00800           0
     34241 TIP3     1869     TIP3     OH2      OT      -0.834000       15.9994           0
     34242 TIP3     1869     TIP3     H1       HT       0.417000       1.00800           0
     34243 TIP3     1869     TIP3     H2       HT       0.417000       1.00800           0
     34244 TIP3     1870     TIP3     OH2      OT      -0.834000       15.9994           0
     34245 TIP3     1870     TIP3     H1       HT       0.417000       1.00800           0
     34246 TIP3     1870     TIP3     H2       HT       0.417000       1.00800           0
     34247 TIP3     1871     TIP3     OH2      OT      -0.834000       15.9994           0
     34248 TIP3     1871     TIP3     H1       HT       0.417000       1.00800           0
     34249 TIP3     1871     TIP3     H2       HT       0.417000       1.00800           0
     34250 TIP3     1872     TIP3     OH2      OT      -0.834000       15.9994           0
     34251 TIP3     1872     TIP3     H1       HT       0.417000       1.00800           0
     34252 TIP3     1872     TIP3     H2       HT       0.417000       1.00800           0
     34253 TIP3     1873     TIP3     OH2      OT      -0.834000       15.9994           0
     34254 TIP3     1873     TIP3     H1       HT       0.417000       1.00800           0
     34255 TIP3     1873     TIP3     H2       HT       0.417000       1.00800           0
     34256 TIP3     1874     TIP3     OH2      OT      -0.834000       15.9994           0
     34257 TIP3     1874     TIP3     H1       HT       0.417000       1.00800           0
     34258 TIP3     1874     TIP3     H2       HT       0.417000       1.00800           0
     34259 TIP3     1875     TIP3     OH2      OT      -0.834000       15.9994           0
     34260 TIP3     1875     TIP3     H1       HT       0.417000       1.00800           0
     34261 TIP3     1875     TIP3     H2       HT       0.417000       1.00800           0
     34262 TIP3     1876     TIP3     OH2      OT      -0.834000       15.9994           0
     34263 TIP3     1876     TIP3     H1       HT       0.417000       1.00800           0
     34264 TIP3     1876     TIP3     H2       HT       0.417000       1.00800           0
     34265 TIP3     1877     TIP3     OH2      OT      -0.834000       15.9994           0
     34266 TIP3     1877     TIP3     H1       HT       0.417000       1.00800           0
     34267 TIP3     1877     TIP3     H2       HT       0.417000       1.00800           0
     34268 TIP3     1878     TIP3     OH2      OT      -0.834000       15.9994           0
     34269 TIP3     1878     TIP3     H1       HT       0.417000       1.00800           0
     34270 TIP3     1878     TIP3     H2       HT       0.417000       1.00800           0
     34271 TIP3     1879     TIP3     OH2      OT      -0.834000       15.9994           0
     34272 TIP3     1879     TIP3     H1       HT       0.417000       1.00800           0
     34273 TIP3     1879     TIP3     H2       HT       0.417000       1.00800           0
     34274 TIP3     1880     TIP3     OH2      OT      -0.834000       15.9994           0
     34275 TIP3     1880     TIP3     H1       HT       0.417000       1.00800           0
     34276 TIP3     1880     TIP3     H2       HT       0.417000       1.00800           0
     34277 TIP3     1881     TIP3     OH2      OT      -0.834000       15.9994           0
     34278 TIP3     1881     TIP3     H1       HT       0.417000       1.00800           0
     34279 TIP3     1881     TIP3     H2       HT       0.417000       1.00800           0
     34280 TIP3     1882     TIP3     OH2      OT      -0.834000       15.9994           0
     34281 TIP3     1882     TIP3     H1       HT       0.417000       1.00800           0
     34282 TIP3     1882     TIP3     H2       HT       0.417000       1.00800           0
     34283 TIP3     1883     TIP3     OH2      OT      -0.834000       15.9994           0
     34284 TIP3     1883     TIP3     H1       HT       0.417000       1.00800           0
     34285 TIP3     1883     TIP3     H2       HT       0.417000       1.00800           0
     34286 TIP3     1884     TIP3     OH2      OT      -0.834000       15.9994           0
     34287 TIP3     1884     TIP3     H1       HT       0.417000       1.00800           0
     34288 TIP3     1884     TIP3     H2       HT       0.417000       1.00800           0
     34289 TIP3     1885     TIP3     OH2      OT      -0.834000       15.9994           0
     34290 TIP3     1885     TIP3     H1       HT       0.417000       1.00800           0
     34291 TIP3     1885     TIP3     H2       HT       0.417000       1.00800           0
     34292 TIP3     1886     TIP3     OH2      OT      -0.834000       15.9994           0
     34293 TIP3     1886     TIP3     H1       HT       0.417000       1.00800           0
     34294 TIP3     1886     TIP3     H2       HT       0.417000       1.00800           0
     34295 TIP3     1887     TIP3     OH2      OT      -0.834000       15.9994           0
     34296 TIP3     1887     TIP3     H1       HT       0.417000       1.00800           0
     34297 TIP3     1887     TIP3     H2       HT       0.417000       1.00800           0
     34298 TIP3     1888     TIP3     OH2      OT      -0.834000       15.9994           0
     34299 TIP3     1888     TIP3     H1       HT       0.417000       1.00800           0
     34300 TIP3     1888     TIP3     H2       HT       0.417000       1.00800           0
     34301 TIP3     1889     TIP3     OH2      OT      -0.834000       15.9994           0
     34302 TIP3     1889     TIP3     H1       HT       0.417000       1.00800           0
     34303 TIP3     1889     TIP3     H2       HT       0.417000       1.00800           0
     34304 TIP3     1890     TIP3     OH2      OT      -0.834000       15.9994           0
     34305 TIP3     1890     TIP3     H1       HT       0.417000       1.00800           0
     34306 TIP3     1890     TIP3     H2       HT       0.417000       1.00800           0
     34307 TIP3     1891     TIP3     OH2      OT      -0.834000       15.9994           0
     34308 TIP3     1891     TIP3     H1       HT       0.417000       1.00800           0
     34309 TIP3     1891     TIP3     H2       HT       0.417000       1.00800           0
     34310 TIP3     1892     TIP3     OH2      OT      -0.834000       15.9994           0
     34311 TIP3     1892     TIP3     H1       HT       0.417000       1.00800           0
     34312 TIP3     1892     TIP3     H2       HT       0.417000       1.00800           0
     34313 TIP3     1893     TIP3     OH2      OT      -0.834000       15.9994           0
     34314 TIP3     1893     TIP3     H1       HT       0.417000       1.00800           0
     34315 TIP3     1893     TIP3     H2       HT       0.417000       1.00800           0
     34316 TIP3     1894     TIP3     OH2      OT      -0.834000       15.9994           0
     34317 TIP3     1894     TIP3     H1       HT       0.417000       1.00800           0
     34318 TIP3     1894     TIP3     H2       HT       0.417000       1.00800           0
     34319 TIP3     1895     TIP3     OH2      OT      -0.834000       15.9994           0
     34320 TIP3     1895     TIP3     H1       HT       0.417000       1.00800           0
     34321 TIP3     1895     TIP3     H2       HT       0.417000       1.00800           0
     34322 TIP3     1896     TIP3     OH2      OT      -0.834000       15.9994           0
     34323 TIP3     1896     TIP3     H1       HT       0.417000       1.00800           0
     34324 TIP3     1896     TIP3     H2       HT       0.417000       1.00800           0
     34325 TIP3     1897     TIP3     OH2      OT      -0.834000       15.9994           0
     34326 TIP3     1897     TIP3     H1       HT       0.417000       1.00800           0
     34327 TIP3     1897     TIP3     H2       HT       0.417000       1.00800           0
     34328 TIP3     1898     TIP3     OH2      OT      -0.834000       15.9994           0
     34329 TIP3     1898     TIP3     H1       HT       0.417000       1.00800           0
     34330 TIP3     1898     TIP3     H2       HT       0.417000       1.00800           0
     34331 TIP3     1899     TIP3     OH2      OT      -0.834000       15.9994           0
     34332 TIP3     1899     TIP3     H1       HT       0.417000       1.00800           0
     34333 TIP3     1899     TIP3     H2       HT       0.417000       1.00800           0
     34334 TIP3     1900     TIP3     OH2      OT      -0.834000       15.9994           0
     34335 TIP3     1900     TIP3     H1       HT       0.417000       1.00800           0
     34336 TIP3     1900     TIP3     H2       HT       0.417000       1.00800           0
     34337 TIP3     1901     TIP3     OH2      OT      -0.834000       15.9994           0
     34338 TIP3     1901     TIP3     H1       HT       0.417000       1.00800           0
     34339 TIP3     1901     TIP3     H2       HT       0.417000       1.00800           0
     34340 TIP3     1902     TIP3     OH2      OT      -0.834000       15.9994           0
     34341 TIP3     1902     TIP3     H1       HT       0.417000       1.00800           0
     34342 TIP3     1902     TIP3     H2       HT       0.417000       1.00800           0
     34343 TIP3     1903     TIP3     OH2      OT      -0.834000       15.9994           0
     34344 TIP3     1903     TIP3     H1       HT       0.417000       1.00800           0
     34345 TIP3     1903     TIP3     H2       HT       0.417000       1.00800           0
     34346 TIP3     1904     TIP3     OH2      OT      -0.834000       15.9994           0
     34347 TIP3     1904     TIP3     H1       HT       0.417000       1.00800           0
     34348 TIP3     1904     TIP3     H2       HT       0.417000       1.00800           0
     34349 TIP3     1905     TIP3     OH2      OT      -0.834000       15.9994           0
     34350 TIP3     1905     TIP3     H1       HT       0.417000       1.00800           0
     34351 TIP3     1905     TIP3     H2       HT       0.417000       1.00800           0
     34352 TIP3     1906     TIP3     OH2      OT      -0.834000       15.9994           0
     34353 TIP3     1906     TIP3     H1       HT       0.417000       1.00800           0
     34354 TIP3     1906     TIP3     H2       HT       0.417000       1.00800           0
     34355 TIP3     1907     TIP3     OH2      OT      -0.834000       15.9994           0
     34356 TIP3     1907     TIP3     H1       HT       0.417000       1.00800           0
     34357 TIP3     1907     TIP3     H2       HT       0.417000       1.00800           0
     34358 TIP3     1908     TIP3     OH2      OT      -0.834000       15.9994           0
     34359 TIP3     1908     TIP3     H1       HT       0.417000       1.00800           0
     34360 TIP3     1908     TIP3     H2       HT       0.417000       1.00800           0
     34361 TIP3     1909     TIP3     OH2      OT      -0.834000       15.9994           0
     34362 TIP3     1909     TIP3     H1       HT       0.417000       1.00800           0
     34363 TIP3     1909     TIP3     H2       HT       0.417000       1.00800           0
     34364 TIP3     1910     TIP3     OH2      OT      -0.834000       15.9994           0
     34365 TIP3     1910     TIP3     H1       HT       0.417000       1.00800           0
     34366 TIP3     1910     TIP3     H2       HT       0.417000       1.00800           0
     34367 TIP3     1911     TIP3     OH2      OT      -0.834000       15.9994           0
     34368 TIP3     1911     TIP3     H1       HT       0.417000       1.00800           0
     34369 TIP3     1911     TIP3     H2       HT       0.417000       1.00800           0
     34370 TIP3     1912     TIP3     OH2      OT      -0.834000       15.9994           0
     34371 TIP3     1912     TIP3     H1       HT       0.417000       1.00800           0
     34372 TIP3     1912     TIP3     H2       HT       0.417000       1.00800           0
     34373 TIP3     1913     TIP3     OH2      OT      -0.834000       15.9994           0
     34374 TIP3     1913     TIP3     H1       HT       0.417000       1.00800           0
     34375 TIP3     1913     TIP3     H2       HT       0.417000       1.00800           0
     34376 TIP3     1914     TIP3     OH2      OT      -0.834000       15.9994           0
     34377 TIP3     1914     TIP3     H1       HT       0.417000       1.00800           0
     34378 TIP3     1914     TIP3     H2       HT       0.417000       1.00800           0
     34379 TIP3     1915     TIP3     OH2      OT      -0.834000       15.9994           0
     34380 TIP3     1915     TIP3     H1       HT       0.417000       1.00800           0
     34381 TIP3     1915     TIP3     H2       HT       0.417000       1.00800           0
     34382 TIP3     1916     TIP3     OH2      OT      -0.834000       15.9994           0
     34383 TIP3     1916     TIP3     H1       HT       0.417000       1.00800           0
     34384 TIP3     1916     TIP3     H2       HT       0.417000       1.00800           0
     34385 TIP3     1917     TIP3     OH2      OT      -0.834000       15.9994           0
     34386 TIP3     1917     TIP3     H1       HT       0.417000       1.00800           0
     34387 TIP3     1917     TIP3     H2       HT       0.417000       1.00800           0
     34388 TIP3     1918     TIP3     OH2      OT      -0.834000       15.9994           0
     34389 TIP3     1918     TIP3     H1       HT       0.417000       1.00800           0
     34390 TIP3     1918     TIP3     H2       HT       0.417000       1.00800           0
     34391 TIP3     1919     TIP3     OH2      OT      -0.834000       15.9994           0
     34392 TIP3     1919     TIP3     H1       HT       0.417000       1.00800           0
     34393 TIP3     1919     TIP3     H2       HT       0.417000       1.00800           0
     34394 TIP3     1920     TIP3     OH2      OT      -0.834000       15.9994           0
     34395 TIP3     1920     TIP3     H1       HT       0.417000       1.00800           0
     34396 TIP3     1920     TIP3     H2       HT       0.417000       1.00800           0
     34397 TIP3     1921     TIP3     OH2      OT      -0.834000       15.9994           0
     34398 TIP3     1921     TIP3     H1       HT       0.417000       1.00800           0
     34399 TIP3     1921     TIP3     H2       HT       0.417000       1.00800           0
     34400 TIP3     1922     TIP3     OH2      OT      -0.834000       15.9994           0
     34401 TIP3     1922     TIP3     H1       HT       0.417000       1.00800           0
     34402 TIP3     1922     TIP3     H2       HT       0.417000       1.00800           0
     34403 TIP3     1923     TIP3     OH2      OT      -0.834000       15.9994           0
     34404 TIP3     1923     TIP3     H1       HT       0.417000       1.00800           0
     34405 TIP3     1923     TIP3     H2       HT       0.417000       1.00800           0
     34406 TIP3     1924     TIP3     OH2      OT      -0.834000       15.9994           0
     34407 TIP3     1924     TIP3     H1       HT       0.417000       1.00800           0
     34408 TIP3     1924     TIP3     H2       HT       0.417000       1.00800           0
     34409 TIP3     1925     TIP3     OH2      OT      -0.834000       15.9994           0
     34410 TIP3     1925     TIP3     H1       HT       0.417000       1.00800           0
     34411 TIP3     1925     TIP3     H2       HT       0.417000       1.00800           0
     34412 TIP3     1926     TIP3     OH2      OT      -0.834000       15.9994           0
     34413 TIP3     1926     TIP3     H1       HT       0.417000       1.00800           0
     34414 TIP3     1926     TIP3     H2       HT       0.417000       1.00800           0
     34415 TIP3     1927     TIP3     OH2      OT      -0.834000       15.9994           0
     34416 TIP3     1927     TIP3     H1       HT       0.417000       1.00800           0
     34417 TIP3     1927     TIP3     H2       HT       0.417000       1.00800           0
     34418 TIP3     1928     TIP3     OH2      OT      -0.834000       15.9994           0
     34419 TIP3     1928     TIP3     H1       HT       0.417000       1.00800           0
     34420 TIP3     1928     TIP3     H2       HT       0.417000       1.00800           0
     34421 TIP3     1929     TIP3     OH2      OT      -0.834000       15.9994           0
     34422 TIP3     1929     TIP3     H1       HT       0.417000       1.00800           0
     34423 TIP3     1929     TIP3     H2       HT       0.417000       1.00800           0
     34424 TIP3     1930     TIP3     OH2      OT      -0.834000       15.9994           0
     34425 TIP3     1930     TIP3     H1       HT       0.417000       1.00800           0
     34426 TIP3     1930     TIP3     H2       HT       0.417000       1.00800           0
     34427 TIP3     1931     TIP3     OH2      OT      -0.834000       15.9994           0
     34428 TIP3     1931     TIP3     H1       HT       0.417000       1.00800           0
     34429 TIP3     1931     TIP3     H2       HT       0.417000       1.00800           0
     34430 TIP3     1932     TIP3     OH2      OT      -0.834000       15.9994           0
     34431 TIP3     1932     TIP3     H1       HT       0.417000       1.00800           0
     34432 TIP3     1932     TIP3     H2       HT       0.417000       1.00800           0
     34433 TIP3     1933     TIP3     OH2      OT      -0.834000       15.9994           0
     34434 TIP3     1933     TIP3     H1       HT       0.417000       1.00800           0
     34435 TIP3     1933     TIP3     H2       HT       0.417000       1.00800           0
     34436 TIP3     1934     TIP3     OH2      OT      -0.834000       15.9994           0
     34437 TIP3     1934     TIP3     H1       HT       0.417000       1.00800           0
     34438 TIP3     1934     TIP3     H2       HT       0.417000       1.00800           0
     34439 TIP3     1935     TIP3     OH2      OT      -0.834000       15.9994           0
     34440 TIP3     1935     TIP3     H1       HT       0.417000       1.00800           0
     34441 TIP3     1935     TIP3     H2       HT       0.417000       1.00800           0
     34442 TIP3     1936     TIP3     OH2      OT      -0.834000       15.9994           0
     34443 TIP3     1936     TIP3     H1       HT       0.417000       1.00800           0
     34444 TIP3     1936     TIP3     H2       HT       0.417000       1.00800           0
     34445 TIP3     1937     TIP3     OH2      OT      -0.834000       15.9994           0
     34446 TIP3     1937     TIP3     H1       HT       0.417000       1.00800           0
     34447 TIP3     1937     TIP3     H2       HT       0.417000       1.00800           0
     34448 TIP3     1938     TIP3     OH2      OT      -0.834000       15.9994           0
     34449 TIP3     1938     TIP3     H1       HT       0.417000       1.00800           0
     34450 TIP3     1938     TIP3     H2       HT       0.417000       1.00800           0
     34451 TIP3     1939     TIP3     OH2      OT      -0.834000       15.9994           0
     34452 TIP3     1939     TIP3     H1       HT       0.417000       1.00800           0
     34453 TIP3     1939     TIP3     H2       HT       0.417000       1.00800           0
     34454 TIP3     1940     TIP3     OH2      OT      -0.834000       15.9994           0
     34455 TIP3     1940     TIP3     H1       HT       0.417000       1.00800           0
     34456 TIP3     1940     TIP3     H2       HT       0.417000       1.00800           0
     34457 TIP3     1941     TIP3     OH2      OT      -0.834000       15.9994           0
     34458 TIP3     1941     TIP3     H1       HT       0.417000       1.00800           0
     34459 TIP3     1941     TIP3     H2       HT       0.417000       1.00800           0
     34460 TIP3     1942     TIP3     OH2      OT      -0.834000       15.9994           0
     34461 TIP3     1942     TIP3     H1       HT       0.417000       1.00800           0
     34462 TIP3     1942     TIP3     H2       HT       0.417000       1.00800           0
     34463 TIP3     1943     TIP3     OH2      OT      -0.834000       15.9994           0
     34464 TIP3     1943     TIP3     H1       HT       0.417000       1.00800           0
     34465 TIP3     1943     TIP3     H2       HT       0.417000       1.00800           0
     34466 TIP3     1944     TIP3     OH2      OT      -0.834000       15.9994           0
     34467 TIP3     1944     TIP3     H1       HT       0.417000       1.00800           0
     34468 TIP3     1944     TIP3     H2       HT       0.417000       1.00800           0
     34469 TIP3     1945     TIP3     OH2      OT      -0.834000       15.9994           0
     34470 TIP3     1945     TIP3     H1       HT       0.417000       1.00800           0
     34471 TIP3     1945     TIP3     H2       HT       0.417000       1.00800           0
     34472 TIP3     1946     TIP3     OH2      OT      -0.834000       15.9994           0
     34473 TIP3     1946     TIP3     H1       HT       0.417000       1.00800           0
     34474 TIP3     1946     TIP3     H2       HT       0.417000       1.00800           0
     34475 TIP3     1947     TIP3     OH2      OT      -0.834000       15.9994           0
     34476 TIP3     1947     TIP3     H1       HT       0.417000       1.00800           0
     34477 TIP3     1947     TIP3     H2       HT       0.417000       1.00800           0
     34478 TIP3     1948     TIP3     OH2      OT      -0.834000       15.9994           0
     34479 TIP3     1948     TIP3     H1       HT       0.417000       1.00800           0
     34480 TIP3     1948     TIP3     H2       HT       0.417000       1.00800           0
     34481 TIP3     1949     TIP3     OH2      OT      -0.834000       15.9994           0
     34482 TIP3     1949     TIP3     H1       HT       0.417000       1.00800           0
     34483 TIP3     1949     TIP3     H2       HT       0.417000       1.00800           0
     34484 TIP3     1950     TIP3     OH2      OT      -0.834000       15.9994           0
     34485 TIP3     1950     TIP3     H1       HT       0.417000       1.00800           0
     34486 TIP3     1950     TIP3     H2       HT       0.417000       1.00800           0
     34487 TIP3     1951     TIP3     OH2      OT      -0.834000       15.9994           0
     34488 TIP3     1951     TIP3     H1       HT       0.417000       1.00800           0
     34489 TIP3     1951     TIP3     H2       HT       0.417000       1.00800           0
     34490 TIP3     1952     TIP3     OH2      OT      -0.834000       15.9994           0
     34491 TIP3     1952     TIP3     H1       HT       0.417000       1.00800           0
     34492 TIP3     1952     TIP3     H2       HT       0.417000       1.00800           0
     34493 TIP3     1953     TIP3     OH2      OT      -0.834000       15.9994           0
     34494 TIP3     1953     TIP3     H1       HT       0.417000       1.00800           0
     34495 TIP3     1953     TIP3     H2       HT       0.417000       1.00800           0
     34496 TIP3     1954     TIP3     OH2      OT      -0.834000       15.9994           0
     34497 TIP3     1954     TIP3     H1       HT       0.417000       1.00800           0
     34498 TIP3     1954     TIP3     H2       HT       0.417000       1.00800           0
     34499 TIP3     1955     TIP3     OH2      OT      -0.834000       15.9994           0
     34500 TIP3     1955     TIP3     H1       HT       0.417000       1.00800           0
     34501 TIP3     1955     TIP3     H2       HT       0.417000       1.00800           0
     34502 TIP3     1956     TIP3     OH2      OT      -0.834000       15.9994           0
     34503 TIP3     1956     TIP3     H1       HT       0.417000       1.00800           0
     34504 TIP3     1956     TIP3     H2       HT       0.417000       1.00800           0
     34505 TIP3     1957     TIP3     OH2      OT      -0.834000       15.9994           0
     34506 TIP3     1957     TIP3     H1       HT       0.417000       1.00800           0
     34507 TIP3     1957     TIP3     H2       HT       0.417000       1.00800           0
     34508 TIP3     1958     TIP3     OH2      OT      -0.834000       15.9994           0
     34509 TIP3     1958     TIP3     H1       HT       0.417000       1.00800           0
     34510 TIP3     1958     TIP3     H2       HT       0.417000       1.00800           0
     34511 TIP3     1959     TIP3     OH2      OT      -0.834000       15.9994           0
     34512 TIP3     1959     TIP3     H1       HT       0.417000       1.00800           0
     34513 TIP3     1959     TIP3     H2       HT       0.417000       1.00800           0
     34514 TIP3     1960     TIP3     OH2      OT      -0.834000       15.9994           0
     34515 TIP3     1960     TIP3     H1       HT       0.417000       1.00800           0
     34516 TIP3     1960     TIP3     H2       HT       0.417000       1.00800           0
     34517 TIP3     1961     TIP3     OH2      OT      -0.834000       15.9994           0
     34518 TIP3     1961     TIP3     H1       HT       0.417000       1.00800           0
     34519 TIP3     1961     TIP3     H2       HT       0.417000       1.00800           0
     34520 TIP3     1962     TIP3     OH2      OT      -0.834000       15.9994           0
     34521 TIP3     1962     TIP3     H1       HT       0.417000       1.00800           0
     34522 TIP3     1962     TIP3     H2       HT       0.417000       1.00800           0
     34523 TIP3     1963     TIP3     OH2      OT      -0.834000       15.9994           0
     34524 TIP3     1963     TIP3     H1       HT       0.417000       1.00800           0
     34525 TIP3     1963     TIP3     H2       HT       0.417000       1.00800           0
     34526 TIP3     1964     TIP3     OH2      OT      -0.834000       15.9994           0
     34527 TIP3     1964     TIP3     H1       HT       0.417000       1.00800           0
     34528 TIP3     1964     TIP3     H2       HT       0.417000       1.00800           0
     34529 TIP3     1965     TIP3     OH2      OT      -0.834000       15.9994           0
     34530 TIP3     1965     TIP3     H1       HT       0.417000       1.00800           0
     34531 TIP3     1965     TIP3     H2       HT       0.417000       1.00800           0
     34532 TIP3     1966     TIP3     OH2      OT      -0.834000       15.9994           0
     34533 TIP3     1966     TIP3     H1       HT       0.417000       1.00800           0
     34534 TIP3     1966     TIP3     H2       HT       0.417000       1.00800           0
     34535 TIP3     1967     TIP3     OH2      OT      -0.834000       15.9994           0
     34536 TIP3     1967     TIP3     H1       HT       0.417000       1.00800           0
     34537 TIP3     1967     TIP3     H2       HT       0.417000       1.00800           0
     34538 TIP3     1968     TIP3     OH2      OT      -0.834000       15.9994           0
     34539 TIP3     1968     TIP3     H1       HT       0.417000       1.00800           0
     34540 TIP3     1968     TIP3     H2       HT       0.417000       1.00800           0
     34541 TIP3     1969     TIP3     OH2      OT      -0.834000       15.9994           0
     34542 TIP3     1969     TIP3     H1       HT       0.417000       1.00800           0
     34543 TIP3     1969     TIP3     H2       HT       0.417000       1.00800           0
     34544 TIP3     1970     TIP3     OH2      OT      -0.834000       15.9994           0
     34545 TIP3     1970     TIP3     H1       HT       0.417000       1.00800           0
     34546 TIP3     1970     TIP3     H2       HT       0.417000       1.00800           0
     34547 TIP3     1971     TIP3     OH2      OT      -0.834000       15.9994           0
     34548 TIP3     1971     TIP3     H1       HT       0.417000       1.00800           0
     34549 TIP3     1971     TIP3     H2       HT       0.417000       1.00800           0
     34550 TIP3     1972     TIP3     OH2      OT      -0.834000       15.9994           0
     34551 TIP3     1972     TIP3     H1       HT       0.417000       1.00800           0
     34552 TIP3     1972     TIP3     H2       HT       0.417000       1.00800           0
     34553 TIP3     1973     TIP3     OH2      OT      -0.834000       15.9994           0
     34554 TIP3     1973     TIP3     H1       HT       0.417000       1.00800           0
     34555 TIP3     1973     TIP3     H2       HT       0.417000       1.00800           0
     34556 TIP3     1974     TIP3     OH2      OT      -0.834000       15.9994           0
     34557 TIP3     1974     TIP3     H1       HT       0.417000       1.00800           0
     34558 TIP3     1974     TIP3     H2       HT       0.417000       1.00800           0
     34559 TIP3     1975     TIP3     OH2      OT      -0.834000       15.9994           0
     34560 TIP3     1975     TIP3     H1       HT       0.417000       1.00800           0
     34561 TIP3     1975     TIP3     H2       HT       0.417000       1.00800           0
     34562 TIP3     1976     TIP3     OH2      OT      -0.834000       15.9994           0
     34563 TIP3     1976     TIP3     H1       HT       0.417000       1.00800           0
     34564 TIP3     1976     TIP3     H2       HT       0.417000       1.00800           0
     34565 TIP3     1977     TIP3     OH2      OT      -0.834000       15.9994           0
     34566 TIP3     1977     TIP3     H1       HT       0.417000       1.00800           0
     34567 TIP3     1977     TIP3     H2       HT       0.417000       1.00800           0
     34568 TIP3     1978     TIP3     OH2      OT      -0.834000       15.9994           0
     34569 TIP3     1978     TIP3     H1       HT       0.417000       1.00800           0
     34570 TIP3     1978     TIP3     H2       HT       0.417000       1.00800           0
     34571 TIP3     1979     TIP3     OH2      OT      -0.834000       15.9994           0
     34572 TIP3     1979     TIP3     H1       HT       0.417000       1.00800           0
     34573 TIP3     1979     TIP3     H2       HT       0.417000       1.00800           0
     34574 TIP3     1980     TIP3     OH2      OT      -0.834000       15.9994           0
     34575 TIP3     1980     TIP3     H1       HT       0.417000       1.00800           0
     34576 TIP3     1980     TIP3     H2       HT       0.417000       1.00800           0
     34577 TIP3     1981     TIP3     OH2      OT      -0.834000       15.9994           0
     34578 TIP3     1981     TIP3     H1       HT       0.417000       1.00800           0
     34579 TIP3     1981     TIP3     H2       HT       0.417000       1.00800           0
     34580 TIP3     1982     TIP3     OH2      OT      -0.834000       15.9994           0
     34581 TIP3     1982     TIP3     H1       HT       0.417000       1.00800           0
     34582 TIP3     1982     TIP3     H2       HT       0.417000       1.00800           0
     34583 TIP3     1983     TIP3     OH2      OT      -0.834000       15.9994           0
     34584 TIP3     1983     TIP3     H1       HT       0.417000       1.00800           0
     34585 TIP3     1983     TIP3     H2       HT       0.417000       1.00800           0
     34586 TIP3     1984     TIP3     OH2      OT      -0.834000       15.9994           0
     34587 TIP3     1984     TIP3     H1       HT       0.417000       1.00800           0
     34588 TIP3     1984     TIP3     H2       HT       0.417000       1.00800           0
     34589 TIP3     1985     TIP3     OH2      OT      -0.834000       15.9994           0
     34590 TIP3     1985     TIP3     H1       HT       0.417000       1.00800           0
     34591 TIP3     1985     TIP3     H2       HT       0.417000       1.00800           0
     34592 TIP3     1986     TIP3     OH2      OT      -0.834000       15.9994           0
     34593 TIP3     1986     TIP3     H1       HT       0.417000       1.00800           0
     34594 TIP3     1986     TIP3     H2       HT       0.417000       1.00800           0
     34595 TIP3     1987     TIP3     OH2      OT      -0.834000       15.9994           0
     34596 TIP3     1987     TIP3     H1       HT       0.417000       1.00800           0
     34597 TIP3     1987     TIP3     H2       HT       0.417000       1.00800           0
     34598 TIP3     1988     TIP3     OH2      OT      -0.834000       15.9994           0
     34599 TIP3     1988     TIP3     H1       HT       0.417000       1.00800           0
     34600 TIP3     1988     TIP3     H2       HT       0.417000       1.00800           0
     34601 TIP3     1989     TIP3     OH2      OT      -0.834000       15.9994           0
     34602 TIP3     1989     TIP3     H1       HT       0.417000       1.00800           0
     34603 TIP3     1989     TIP3     H2       HT       0.417000       1.00800           0
     34604 TIP3     1990     TIP3     OH2      OT      -0.834000       15.9994           0
     34605 TIP3     1990     TIP3     H1       HT       0.417000       1.00800           0
     34606 TIP3     1990     TIP3     H2       HT       0.417000       1.00800           0
     34607 TIP3     1991     TIP3     OH2      OT      -0.834000       15.9994           0
     34608 TIP3     1991     TIP3     H1       HT       0.417000       1.00800           0
     34609 TIP3     1991     TIP3     H2       HT       0.417000       1.00800           0
     34610 TIP3     1992     TIP3     OH2      OT      -0.834000       15.9994           0
     34611 TIP3     1992     TIP3     H1       HT       0.417000       1.00800           0
     34612 TIP3     1992     TIP3     H2       HT       0.417000       1.00800           0
     34613 TIP3     1993     TIP3     OH2      OT      -0.834000       15.9994           0
     34614 TIP3     1993     TIP3     H1       HT       0.417000       1.00800           0
     34615 TIP3     1993     TIP3     H2       HT       0.417000       1.00800           0
     34616 TIP3     1994     TIP3     OH2      OT      -0.834000       15.9994           0
     34617 TIP3     1994     TIP3     H1       HT       0.417000       1.00800           0
     34618 TIP3     1994     TIP3     H2       HT       0.417000       1.00800           0
     34619 TIP3     1995     TIP3     OH2      OT      -0.834000       15.9994           0
     34620 TIP3     1995     TIP3     H1       HT       0.417000       1.00800           0
     34621 TIP3     1995     TIP3     H2       HT       0.417000       1.00800           0
     34622 TIP3     1996     TIP3     OH2      OT      -0.834000       15.9994           0
     34623 TIP3     1996     TIP3     H1       HT       0.417000       1.00800           0
     34624 TIP3     1996     TIP3     H2       HT       0.417000       1.00800           0
     34625 TIP3     1997     TIP3     OH2      OT      -0.834000       15.9994           0
     34626 TIP3     1997     TIP3     H1       HT       0.417000       1.00800           0
     34627 TIP3     1997     TIP3     H2       HT       0.417000       1.00800           0
     34628 TIP3     1998     TIP3     OH2      OT      -0.834000       15.9994           0
     34629 TIP3     1998     TIP3     H1       HT       0.417000       1.00800           0
     34630 TIP3     1998     TIP3     H2       HT       0.417000       1.00800           0
     34631 TIP3     1999     TIP3     OH2      OT      -0.834000       15.9994           0
     34632 TIP3     1999     TIP3     H1       HT       0.417000       1.00800           0
     34633 TIP3     1999     TIP3     H2       HT       0.417000       1.00800           0
     34634 TIP3     2000     TIP3     OH2      OT      -0.834000       15.9994           0
     34635 TIP3     2000     TIP3     H1       HT       0.417000       1.00800           0
     34636 TIP3     2000     TIP3     H2       HT       0.417000       1.00800           0
     34637 TIP3     2001     TIP3     OH2      OT      -0.834000       15.9994           0
     34638 TIP3     2001     TIP3     H1       HT       0.417000       1.00800           0
     34639 TIP3     2001     TIP3     H2       HT       0.417000       1.00800           0
     34640 TIP3     2002     TIP3     OH2      OT      -0.834000       15.9994           0
     34641 TIP3     2002     TIP3     H1       HT       0.417000       1.00800           0
     34642 TIP3     2002     TIP3     H2       HT       0.417000       1.00800           0
     34643 TIP3     2003     TIP3     OH2      OT      -0.834000       15.9994           0
     34644 TIP3     2003     TIP3     H1       HT       0.417000       1.00800           0
     34645 TIP3     2003     TIP3     H2       HT       0.417000       1.00800           0
     34646 TIP3     2004     TIP3     OH2      OT      -0.834000       15.9994           0
     34647 TIP3     2004     TIP3     H1       HT       0.417000       1.00800           0
     34648 TIP3     2004     TIP3     H2       HT       0.417000       1.00800           0
     34649 TIP3     2005     TIP3     OH2      OT      -0.834000       15.9994           0
     34650 TIP3     2005     TIP3     H1       HT       0.417000       1.00800           0
     34651 TIP3     2005     TIP3     H2       HT       0.417000       1.00800           0
     34652 TIP3     2006     TIP3     OH2      OT      -0.834000       15.9994           0
     34653 TIP3     2006     TIP3     H1       HT       0.417000       1.00800           0
     34654 TIP3     2006     TIP3     H2       HT       0.417000       1.00800           0
     34655 TIP3     2007     TIP3     OH2      OT      -0.834000       15.9994           0
     34656 TIP3     2007     TIP3     H1       HT       0.417000       1.00800           0
     34657 TIP3     2007     TIP3     H2       HT       0.417000       1.00800           0
     34658 TIP3     2008     TIP3     OH2      OT      -0.834000       15.9994           0
     34659 TIP3     2008     TIP3     H1       HT       0.417000       1.00800           0
     34660 TIP3     2008     TIP3     H2       HT       0.417000       1.00800           0
     34661 TIP3     2009     TIP3     OH2      OT      -0.834000       15.9994           0
     34662 TIP3     2009     TIP3     H1       HT       0.417000       1.00800           0
     34663 TIP3     2009     TIP3     H2       HT       0.417000       1.00800           0
     34664 TIP3     2010     TIP3     OH2      OT      -0.834000       15.9994           0
     34665 TIP3     2010     TIP3     H1       HT       0.417000       1.00800           0
     34666 TIP3     2010     TIP3     H2       HT       0.417000       1.00800           0
     34667 TIP3     2011     TIP3     OH2      OT      -0.834000       15.9994           0
     34668 TIP3     2011     TIP3     H1       HT       0.417000       1.00800           0
     34669 TIP3     2011     TIP3     H2       HT       0.417000       1.00800           0
     34670 TIP3     2012     TIP3     OH2      OT      -0.834000       15.9994           0
     34671 TIP3     2012     TIP3     H1       HT       0.417000       1.00800           0
     34672 TIP3     2012     TIP3     H2       HT       0.417000       1.00800           0
     34673 TIP3     2013     TIP3     OH2      OT      -0.834000       15.9994           0
     34674 TIP3     2013     TIP3     H1       HT       0.417000       1.00800           0
     34675 TIP3     2013     TIP3     H2       HT       0.417000       1.00800           0
     34676 TIP3     2014     TIP3     OH2      OT      -0.834000       15.9994           0
     34677 TIP3     2014     TIP3     H1       HT       0.417000       1.00800           0
     34678 TIP3     2014     TIP3     H2       HT       0.417000       1.00800           0
     34679 TIP3     2015     TIP3     OH2      OT      -0.834000       15.9994           0
     34680 TIP3     2015     TIP3     H1       HT       0.417000       1.00800           0
     34681 TIP3     2015     TIP3     H2       HT       0.417000       1.00800           0
     34682 TIP3     2016     TIP3     OH2      OT      -0.834000       15.9994           0
     34683 TIP3     2016     TIP3     H1       HT       0.417000       1.00800           0
     34684 TIP3     2016     TIP3     H2       HT       0.417000       1.00800           0
     34685 TIP3     2017     TIP3     OH2      OT      -0.834000       15.9994           0
     34686 TIP3     2017     TIP3     H1       HT       0.417000       1.00800           0
     34687 TIP3     2017     TIP3     H2       HT       0.417000       1.00800           0
     34688 TIP3     2018     TIP3     OH2      OT      -0.834000       15.9994           0
     34689 TIP3     2018     TIP3     H1       HT       0.417000       1.00800           0
     34690 TIP3     2018     TIP3     H2       HT       0.417000       1.00800           0
     34691 TIP3     2019     TIP3     OH2      OT      -0.834000       15.9994           0
     34692 TIP3     2019     TIP3     H1       HT       0.417000       1.00800           0
     34693 TIP3     2019     TIP3     H2       HT       0.417000       1.00800           0
     34694 TIP3     2020     TIP3     OH2      OT      -0.834000       15.9994           0
     34695 TIP3     2020     TIP3     H1       HT       0.417000       1.00800           0
     34696 TIP3     2020     TIP3     H2       HT       0.417000       1.00800           0
     34697 TIP3     2021     TIP3     OH2      OT      -0.834000       15.9994           0
     34698 TIP3     2021     TIP3     H1       HT       0.417000       1.00800           0
     34699 TIP3     2021     TIP3     H2       HT       0.417000       1.00800           0
     34700 TIP3     2022     TIP3     OH2      OT      -0.834000       15.9994           0
     34701 TIP3     2022     TIP3     H1       HT       0.417000       1.00800           0
     34702 TIP3     2022     TIP3     H2       HT       0.417000       1.00800           0
     34703 TIP3     2023     TIP3     OH2      OT      -0.834000       15.9994           0
     34704 TIP3     2023     TIP3     H1       HT       0.417000       1.00800           0
     34705 TIP3     2023     TIP3     H2       HT       0.417000       1.00800           0
     34706 TIP3     2024     TIP3     OH2      OT      -0.834000       15.9994           0
     34707 TIP3     2024     TIP3     H1       HT       0.417000       1.00800           0
     34708 TIP3     2024     TIP3     H2       HT       0.417000       1.00800           0
     34709 TIP3     2025     TIP3     OH2      OT      -0.834000       15.9994           0
     34710 TIP3     2025     TIP3     H1       HT       0.417000       1.00800           0
     34711 TIP3     2025     TIP3     H2       HT       0.417000       1.00800           0
     34712 TIP3     2026     TIP3     OH2      OT      -0.834000       15.9994           0
     34713 TIP3     2026     TIP3     H1       HT       0.417000       1.00800           0
     34714 TIP3     2026     TIP3     H2       HT       0.417000       1.00800           0
     34715 TIP3     2027     TIP3     OH2      OT      -0.834000       15.9994           0
     34716 TIP3     2027     TIP3     H1       HT       0.417000       1.00800           0
     34717 TIP3     2027     TIP3     H2       HT       0.417000       1.00800           0
     34718 TIP3     2028     TIP3     OH2      OT      -0.834000       15.9994           0
     34719 TIP3     2028     TIP3     H1       HT       0.417000       1.00800           0
     34720 TIP3     2028     TIP3     H2       HT       0.417000       1.00800           0
     34721 TIP3     2029     TIP3     OH2      OT      -0.834000       15.9994           0
     34722 TIP3     2029     TIP3     H1       HT       0.417000       1.00800           0
     34723 TIP3     2029     TIP3     H2       HT       0.417000       1.00800           0
     34724 TIP3     2030     TIP3     OH2      OT      -0.834000       15.9994           0
     34725 TIP3     2030     TIP3     H1       HT       0.417000       1.00800           0
     34726 TIP3     2030     TIP3     H2       HT       0.417000       1.00800           0
     34727 TIP3     2031     TIP3     OH2      OT      -0.834000       15.9994           0
     34728 TIP3     2031     TIP3     H1       HT       0.417000       1.00800           0
     34729 TIP3     2031     TIP3     H2       HT       0.417000       1.00800           0
     34730 TIP3     2032     TIP3     OH2      OT      -0.834000       15.9994           0
     34731 TIP3     2032     TIP3     H1       HT       0.417000       1.00800           0
     34732 TIP3     2032     TIP3     H2       HT       0.417000       1.00800           0
     34733 TIP3     2033     TIP3     OH2      OT      -0.834000       15.9994           0
     34734 TIP3     2033     TIP3     H1       HT       0.417000       1.00800           0
     34735 TIP3     2033     TIP3     H2       HT       0.417000       1.00800           0
     34736 TIP3     2034     TIP3     OH2      OT      -0.834000       15.9994           0
     34737 TIP3     2034     TIP3     H1       HT       0.417000       1.00800           0
     34738 TIP3     2034     TIP3     H2       HT       0.417000       1.00800           0
     34739 TIP3     2035     TIP3     OH2      OT      -0.834000       15.9994           0
     34740 TIP3     2035     TIP3     H1       HT       0.417000       1.00800           0
     34741 TIP3     2035     TIP3     H2       HT       0.417000       1.00800           0
     34742 TIP3     2036     TIP3     OH2      OT      -0.834000       15.9994           0
     34743 TIP3     2036     TIP3     H1       HT       0.417000       1.00800           0
     34744 TIP3     2036     TIP3     H2       HT       0.417000       1.00800           0
     34745 TIP3     2037     TIP3     OH2      OT      -0.834000       15.9994           0
     34746 TIP3     2037     TIP3     H1       HT       0.417000       1.00800           0
     34747 TIP3     2037     TIP3     H2       HT       0.417000       1.00800           0
     34748 TIP3     2038     TIP3     OH2      OT      -0.834000       15.9994           0
     34749 TIP3     2038     TIP3     H1       HT       0.417000       1.00800           0
     34750 TIP3     2038     TIP3     H2       HT       0.417000       1.00800           0
     34751 TIP3     2039     TIP3     OH2      OT      -0.834000       15.9994           0
     34752 TIP3     2039     TIP3     H1       HT       0.417000       1.00800           0
     34753 TIP3     2039     TIP3     H2       HT       0.417000       1.00800           0
     34754 TIP3     2040     TIP3     OH2      OT      -0.834000       15.9994           0
     34755 TIP3     2040     TIP3     H1       HT       0.417000       1.00800           0
     34756 TIP3     2040     TIP3     H2       HT       0.417000       1.00800           0
     34757 TIP3     2041     TIP3     OH2      OT      -0.834000       15.9994           0
     34758 TIP3     2041     TIP3     H1       HT       0.417000       1.00800           0
     34759 TIP3     2041     TIP3     H2       HT       0.417000       1.00800           0
     34760 TIP3     2042     TIP3     OH2      OT      -0.834000       15.9994           0
     34761 TIP3     2042     TIP3     H1       HT       0.417000       1.00800           0
     34762 TIP3     2042     TIP3     H2       HT       0.417000       1.00800           0
     34763 TIP3     2043     TIP3     OH2      OT      -0.834000       15.9994           0
     34764 TIP3     2043     TIP3     H1       HT       0.417000       1.00800           0
     34765 TIP3     2043     TIP3     H2       HT       0.417000       1.00800           0
     34766 TIP3     2044     TIP3     OH2      OT      -0.834000       15.9994           0
     34767 TIP3     2044     TIP3     H1       HT       0.417000       1.00800           0
     34768 TIP3     2044     TIP3     H2       HT       0.417000       1.00800           0
     34769 TIP3     2045     TIP3     OH2      OT      -0.834000       15.9994           0
     34770 TIP3     2045     TIP3     H1       HT       0.417000       1.00800           0
     34771 TIP3     2045     TIP3     H2       HT       0.417000       1.00800           0
     34772 TIP3     2046     TIP3     OH2      OT      -0.834000       15.9994           0
     34773 TIP3     2046     TIP3     H1       HT       0.417000       1.00800           0
     34774 TIP3     2046     TIP3     H2       HT       0.417000       1.00800           0
     34775 TIP3     2047     TIP3     OH2      OT      -0.834000       15.9994           0
     34776 TIP3     2047     TIP3     H1       HT       0.417000       1.00800           0
     34777 TIP3     2047     TIP3     H2       HT       0.417000       1.00800           0
     34778 TIP3     2048     TIP3     OH2      OT      -0.834000       15.9994           0
     34779 TIP3     2048     TIP3     H1       HT       0.417000       1.00800           0
     34780 TIP3     2048     TIP3     H2       HT       0.417000       1.00800           0
     34781 TIP3     2049     TIP3     OH2      OT      -0.834000       15.9994           0
     34782 TIP3     2049     TIP3     H1       HT       0.417000       1.00800           0
     34783 TIP3     2049     TIP3     H2       HT       0.417000       1.00800           0
     34784 TIP3     2050     TIP3     OH2      OT      -0.834000       15.9994           0
     34785 TIP3     2050     TIP3     H1       HT       0.417000       1.00800           0
     34786 TIP3     2050     TIP3     H2       HT       0.417000       1.00800           0
     34787 TIP3     2051     TIP3     OH2      OT      -0.834000       15.9994           0
     34788 TIP3     2051     TIP3     H1       HT       0.417000       1.00800           0
     34789 TIP3     2051     TIP3     H2       HT       0.417000       1.00800           0
     34790 TIP3     2052     TIP3     OH2      OT      -0.834000       15.9994           0
     34791 TIP3     2052     TIP3     H1       HT       0.417000       1.00800           0
     34792 TIP3     2052     TIP3     H2       HT       0.417000       1.00800           0
     34793 TIP3     2053     TIP3     OH2      OT      -0.834000       15.9994           0
     34794 TIP3     2053     TIP3     H1       HT       0.417000       1.00800           0
     34795 TIP3     2053     TIP3     H2       HT       0.417000       1.00800           0
     34796 TIP3     2054     TIP3     OH2      OT      -0.834000       15.9994           0
     34797 TIP3     2054     TIP3     H1       HT       0.417000       1.00800           0
     34798 TIP3     2054     TIP3     H2       HT       0.417000       1.00800           0
     34799 TIP3     2055     TIP3     OH2      OT      -0.834000       15.9994           0
     34800 TIP3     2055     TIP3     H1       HT       0.417000       1.00800           0
     34801 TIP3     2055     TIP3     H2       HT       0.417000       1.00800           0
     34802 TIP3     2056     TIP3     OH2      OT      -0.834000       15.9994           0
     34803 TIP3     2056     TIP3     H1       HT       0.417000       1.00800           0
     34804 TIP3     2056     TIP3     H2       HT       0.417000       1.00800           0
     34805 TIP3     2057     TIP3     OH2      OT      -0.834000       15.9994           0
     34806 TIP3     2057     TIP3     H1       HT       0.417000       1.00800           0
     34807 TIP3     2057     TIP3     H2       HT       0.417000       1.00800           0
     34808 TIP3     2058     TIP3     OH2      OT      -0.834000       15.9994           0
     34809 TIP3     2058     TIP3     H1       HT       0.417000       1.00800           0
     34810 TIP3     2058     TIP3     H2       HT       0.417000       1.00800           0
     34811 TIP3     2059     TIP3     OH2      OT      -0.834000       15.9994           0
     34812 TIP3     2059     TIP3     H1       HT       0.417000       1.00800           0
     34813 TIP3     2059     TIP3     H2       HT       0.417000       1.00800           0
     34814 TIP3     2060     TIP3     OH2      OT      -0.834000       15.9994           0
     34815 TIP3     2060     TIP3     H1       HT       0.417000       1.00800           0
     34816 TIP3     2060     TIP3     H2       HT       0.417000       1.00800           0
     34817 TIP3     2061     TIP3     OH2      OT      -0.834000       15.9994           0
     34818 TIP3     2061     TIP3     H1       HT       0.417000       1.00800           0
     34819 TIP3     2061     TIP3     H2       HT       0.417000       1.00800           0
     34820 TIP3     2062     TIP3     OH2      OT      -0.834000       15.9994           0
     34821 TIP3     2062     TIP3     H1       HT       0.417000       1.00800           0
     34822 TIP3     2062     TIP3     H2       HT       0.417000       1.00800           0
     34823 TIP3     2063     TIP3     OH2      OT      -0.834000       15.9994           0
     34824 TIP3     2063     TIP3     H1       HT       0.417000       1.00800           0
     34825 TIP3     2063     TIP3     H2       HT       0.417000       1.00800           0
     34826 TIP3     2064     TIP3     OH2      OT      -0.834000       15.9994           0
     34827 TIP3     2064     TIP3     H1       HT       0.417000       1.00800           0
     34828 TIP3     2064     TIP3     H2       HT       0.417000       1.00800           0
     34829 TIP3     2065     TIP3     OH2      OT      -0.834000       15.9994           0
     34830 TIP3     2065     TIP3     H1       HT       0.417000       1.00800           0
     34831 TIP3     2065     TIP3     H2       HT       0.417000       1.00800           0
     34832 TIP3     2066     TIP3     OH2      OT      -0.834000       15.9994           0
     34833 TIP3     2066     TIP3     H1       HT       0.417000       1.00800           0
     34834 TIP3     2066     TIP3     H2       HT       0.417000       1.00800           0
     34835 TIP3     2067     TIP3     OH2      OT      -0.834000       15.9994           0
     34836 TIP3     2067     TIP3     H1       HT       0.417000       1.00800           0
     34837 TIP3     2067     TIP3     H2       HT       0.417000       1.00800           0
     34838 TIP3     2068     TIP3     OH2      OT      -0.834000       15.9994           0
     34839 TIP3     2068     TIP3     H1       HT       0.417000       1.00800           0
     34840 TIP3     2068     TIP3     H2       HT       0.417000       1.00800           0
     34841 TIP3     2069     TIP3     OH2      OT      -0.834000       15.9994           0
     34842 TIP3     2069     TIP3     H1       HT       0.417000       1.00800           0
     34843 TIP3     2069     TIP3     H2       HT       0.417000       1.00800           0
     34844 TIP3     2070     TIP3     OH2      OT      -0.834000       15.9994           0
     34845 TIP3     2070     TIP3     H1       HT       0.417000       1.00800           0
     34846 TIP3     2070     TIP3     H2       HT       0.417000       1.00800           0
     34847 TIP3     2071     TIP3     OH2      OT      -0.834000       15.9994           0
     34848 TIP3     2071     TIP3     H1       HT       0.417000       1.00800           0
     34849 TIP3     2071     TIP3     H2       HT       0.417000       1.00800           0
     34850 TIP3     2072     TIP3     OH2      OT      -0.834000       15.9994           0
     34851 TIP3     2072     TIP3     H1       HT       0.417000       1.00800           0
     34852 TIP3     2072     TIP3     H2       HT       0.417000       1.00800           0
     34853 TIP3     2073     TIP3     OH2      OT      -0.834000       15.9994           0
     34854 TIP3     2073     TIP3     H1       HT       0.417000       1.00800           0
     34855 TIP3     2073     TIP3     H2       HT       0.417000       1.00800           0
     34856 TIP3     2074     TIP3     OH2      OT      -0.834000       15.9994           0
     34857 TIP3     2074     TIP3     H1       HT       0.417000       1.00800           0
     34858 TIP3     2074     TIP3     H2       HT       0.417000       1.00800           0
     34859 TIP3     2075     TIP3     OH2      OT      -0.834000       15.9994           0
     34860 TIP3     2075     TIP3     H1       HT       0.417000       1.00800           0
     34861 TIP3     2075     TIP3     H2       HT       0.417000       1.00800           0
     34862 TIP3     2076     TIP3     OH2      OT      -0.834000       15.9994           0
     34863 TIP3     2076     TIP3     H1       HT       0.417000       1.00800           0
     34864 TIP3     2076     TIP3     H2       HT       0.417000       1.00800           0
     34865 TIP3     2077     TIP3     OH2      OT      -0.834000       15.9994           0
     34866 TIP3     2077     TIP3     H1       HT       0.417000       1.00800           0
     34867 TIP3     2077     TIP3     H2       HT       0.417000       1.00800           0
     34868 TIP3     2078     TIP3     OH2      OT      -0.834000       15.9994           0
     34869 TIP3     2078     TIP3     H1       HT       0.417000       1.00800           0
     34870 TIP3     2078     TIP3     H2       HT       0.417000       1.00800           0
     34871 TIP3     2079     TIP3     OH2      OT      -0.834000       15.9994           0
     34872 TIP3     2079     TIP3     H1       HT       0.417000       1.00800           0
     34873 TIP3     2079     TIP3     H2       HT       0.417000       1.00800           0
     34874 TIP3     2080     TIP3     OH2      OT      -0.834000       15.9994           0
     34875 TIP3     2080     TIP3     H1       HT       0.417000       1.00800           0
     34876 TIP3     2080     TIP3     H2       HT       0.417000       1.00800           0
     34877 TIP3     2081     TIP3     OH2      OT      -0.834000       15.9994           0
     34878 TIP3     2081     TIP3     H1       HT       0.417000       1.00800           0
     34879 TIP3     2081     TIP3     H2       HT       0.417000       1.00800           0
     34880 TIP3     2082     TIP3     OH2      OT      -0.834000       15.9994           0
     34881 TIP3     2082     TIP3     H1       HT       0.417000       1.00800           0
     34882 TIP3     2082     TIP3     H2       HT       0.417000       1.00800           0
     34883 TIP3     2083     TIP3     OH2      OT      -0.834000       15.9994           0
     34884 TIP3     2083     TIP3     H1       HT       0.417000       1.00800           0
     34885 TIP3     2083     TIP3     H2       HT       0.417000       1.00800           0
     34886 TIP3     2084     TIP3     OH2      OT      -0.834000       15.9994           0
     34887 TIP3     2084     TIP3     H1       HT       0.417000       1.00800           0
     34888 TIP3     2084     TIP3     H2       HT       0.417000       1.00800           0
     34889 TIP3     2085     TIP3     OH2      OT      -0.834000       15.9994           0
     34890 TIP3     2085     TIP3     H1       HT       0.417000       1.00800           0
     34891 TIP3     2085     TIP3     H2       HT       0.417000       1.00800           0
     34892 TIP3     2086     TIP3     OH2      OT      -0.834000       15.9994           0
     34893 TIP3     2086     TIP3     H1       HT       0.417000       1.00800           0
     34894 TIP3     2086     TIP3     H2       HT       0.417000       1.00800           0
     34895 TIP3     2087     TIP3     OH2      OT      -0.834000       15.9994           0
     34896 TIP3     2087     TIP3     H1       HT       0.417000       1.00800           0
     34897 TIP3     2087     TIP3     H2       HT       0.417000       1.00800           0
     34898 TIP3     2088     TIP3     OH2      OT      -0.834000       15.9994           0
     34899 TIP3     2088     TIP3     H1       HT       0.417000       1.00800           0
     34900 TIP3     2088     TIP3     H2       HT       0.417000       1.00800           0
     34901 TIP3     2089     TIP3     OH2      OT      -0.834000       15.9994           0
     34902 TIP3     2089     TIP3     H1       HT       0.417000       1.00800           0
     34903 TIP3     2089     TIP3     H2       HT       0.417000       1.00800           0
     34904 TIP3     2090     TIP3     OH2      OT      -0.834000       15.9994           0
     34905 TIP3     2090     TIP3     H1       HT       0.417000       1.00800           0
     34906 TIP3     2090     TIP3     H2       HT       0.417000       1.00800           0
     34907 TIP3     2091     TIP3     OH2      OT      -0.834000       15.9994           0
     34908 TIP3     2091     TIP3     H1       HT       0.417000       1.00800           0
     34909 TIP3     2091     TIP3     H2       HT       0.417000       1.00800           0
     34910 TIP3     2092     TIP3     OH2      OT      -0.834000       15.9994           0
     34911 TIP3     2092     TIP3     H1       HT       0.417000       1.00800           0
     34912 TIP3     2092     TIP3     H2       HT       0.417000       1.00800           0
     34913 TIP3     2093     TIP3     OH2      OT      -0.834000       15.9994           0
     34914 TIP3     2093     TIP3     H1       HT       0.417000       1.00800           0
     34915 TIP3     2093     TIP3     H2       HT       0.417000       1.00800           0
     34916 TIP3     2094     TIP3     OH2      OT      -0.834000       15.9994           0
     34917 TIP3     2094     TIP3     H1       HT       0.417000       1.00800           0
     34918 TIP3     2094     TIP3     H2       HT       0.417000       1.00800           0
     34919 TIP3     2095     TIP3     OH2      OT      -0.834000       15.9994           0
     34920 TIP3     2095     TIP3     H1       HT       0.417000       1.00800           0
     34921 TIP3     2095     TIP3     H2       HT       0.417000       1.00800           0
     34922 TIP3     2096     TIP3     OH2      OT      -0.834000       15.9994           0
     34923 TIP3     2096     TIP3     H1       HT       0.417000       1.00800           0
     34924 TIP3     2096     TIP3     H2       HT       0.417000       1.00800           0
     34925 TIP3     2097     TIP3     OH2      OT      -0.834000       15.9994           0
     34926 TIP3     2097     TIP3     H1       HT       0.417000       1.00800           0
     34927 TIP3     2097     TIP3     H2       HT       0.417000       1.00800           0
     34928 TIP3     2098     TIP3     OH2      OT      -0.834000       15.9994           0
     34929 TIP3     2098     TIP3     H1       HT       0.417000       1.00800           0
     34930 TIP3     2098     TIP3     H2       HT       0.417000       1.00800           0
     34931 TIP3     2099     TIP3     OH2      OT      -0.834000       15.9994           0
     34932 TIP3     2099     TIP3     H1       HT       0.417000       1.00800           0
     34933 TIP3     2099     TIP3     H2       HT       0.417000       1.00800           0
     34934 TIP3     2100     TIP3     OH2      OT      -0.834000       15.9994           0
     34935 TIP3     2100     TIP3     H1       HT       0.417000       1.00800           0
     34936 TIP3     2100     TIP3     H2       HT       0.417000       1.00800           0
     34937 TIP3     2101     TIP3     OH2      OT      -0.834000       15.9994           0
     34938 TIP3     2101     TIP3     H1       HT       0.417000       1.00800           0
     34939 TIP3     2101     TIP3     H2       HT       0.417000       1.00800           0
     34940 TIP3     2102     TIP3     OH2      OT      -0.834000       15.9994           0
     34941 TIP3     2102     TIP3     H1       HT       0.417000       1.00800           0
     34942 TIP3     2102     TIP3     H2       HT       0.417000       1.00800           0
     34943 TIP3     2103     TIP3     OH2      OT      -0.834000       15.9994           0
     34944 TIP3     2103     TIP3     H1       HT       0.417000       1.00800           0
     34945 TIP3     2103     TIP3     H2       HT       0.417000       1.00800           0
     34946 TIP3     2104     TIP3     OH2      OT      -0.834000       15.9994           0
     34947 TIP3     2104     TIP3     H1       HT       0.417000       1.00800           0
     34948 TIP3     2104     TIP3     H2       HT       0.417000       1.00800           0
     34949 TIP3     2105     TIP3     OH2      OT      -0.834000       15.9994           0
     34950 TIP3     2105     TIP3     H1       HT       0.417000       1.00800           0
     34951 TIP3     2105     TIP3     H2       HT       0.417000       1.00800           0
     34952 TIP3     2106     TIP3     OH2      OT      -0.834000       15.9994           0
     34953 TIP3     2106     TIP3     H1       HT       0.417000       1.00800           0
     34954 TIP3     2106     TIP3     H2       HT       0.417000       1.00800           0
     34955 TIP3     2107     TIP3     OH2      OT      -0.834000       15.9994           0
     34956 TIP3     2107     TIP3     H1       HT       0.417000       1.00800           0
     34957 TIP3     2107     TIP3     H2       HT       0.417000       1.00800           0
     34958 TIP3     2108     TIP3     OH2      OT      -0.834000       15.9994           0
     34959 TIP3     2108     TIP3     H1       HT       0.417000       1.00800           0
     34960 TIP3     2108     TIP3     H2       HT       0.417000       1.00800           0
     34961 TIP3     2109     TIP3     OH2      OT      -0.834000       15.9994           0
     34962 TIP3     2109     TIP3     H1       HT       0.417000       1.00800           0
     34963 TIP3     2109     TIP3     H2       HT       0.417000       1.00800           0
     34964 TIP3     2110     TIP3     OH2      OT      -0.834000       15.9994           0
     34965 TIP3     2110     TIP3     H1       HT       0.417000       1.00800           0
     34966 TIP3     2110     TIP3     H2       HT       0.417000       1.00800           0
     34967 TIP3     2111     TIP3     OH2      OT      -0.834000       15.9994           0
     34968 TIP3     2111     TIP3     H1       HT       0.417000       1.00800           0
     34969 TIP3     2111     TIP3     H2       HT       0.417000       1.00800           0
     34970 TIP3     2112     TIP3     OH2      OT      -0.834000       15.9994           0
     34971 TIP3     2112     TIP3     H1       HT       0.417000       1.00800           0
     34972 TIP3     2112     TIP3     H2       HT       0.417000       1.00800           0
     34973 TIP3     2113     TIP3     OH2      OT      -0.834000       15.9994           0
     34974 TIP3     2113     TIP3     H1       HT       0.417000       1.00800           0
     34975 TIP3     2113     TIP3     H2       HT       0.417000       1.00800           0
     34976 TIP3     2114     TIP3     OH2      OT      -0.834000       15.9994           0
     34977 TIP3     2114     TIP3     H1       HT       0.417000       1.00800           0
     34978 TIP3     2114     TIP3     H2       HT       0.417000       1.00800           0
     34979 TIP3     2115     TIP3     OH2      OT      -0.834000       15.9994           0
     34980 TIP3     2115     TIP3     H1       HT       0.417000       1.00800           0
     34981 TIP3     2115     TIP3     H2       HT       0.417000       1.00800           0
     34982 TIP3     2116     TIP3     OH2      OT      -0.834000       15.9994           0
     34983 TIP3     2116     TIP3     H1       HT       0.417000       1.00800           0
     34984 TIP3     2116     TIP3     H2       HT       0.417000       1.00800           0
     34985 TIP3     2117     TIP3     OH2      OT      -0.834000       15.9994           0
     34986 TIP3     2117     TIP3     H1       HT       0.417000       1.00800           0
     34987 TIP3     2117     TIP3     H2       HT       0.417000       1.00800           0
     34988 TIP3     2118     TIP3     OH2      OT      -0.834000       15.9994           0
     34989 TIP3     2118     TIP3     H1       HT       0.417000       1.00800           0
     34990 TIP3     2118     TIP3     H2       HT       0.417000       1.00800           0
     34991 TIP3     2119     TIP3     OH2      OT      -0.834000       15.9994           0
     34992 TIP3     2119     TIP3     H1       HT       0.417000       1.00800           0
     34993 TIP3     2119     TIP3     H2       HT       0.417000       1.00800           0
     34994 TIP3     2120     TIP3     OH2      OT      -0.834000       15.9994           0
     34995 TIP3     2120     TIP3     H1       HT       0.417000       1.00800           0
     34996 TIP3     2120     TIP3     H2       HT       0.417000       1.00800           0
     34997 TIP3     2121     TIP3     OH2      OT      -0.834000       15.9994           0
     34998 TIP3     2121     TIP3     H1       HT       0.417000       1.00800           0
     34999 TIP3     2121     TIP3     H2       HT       0.417000       1.00800           0
     35000 TIP3     2122     TIP3     OH2      OT      -0.834000       15.9994           0
     35001 TIP3     2122     TIP3     H1       HT       0.417000       1.00800           0
     35002 TIP3     2122     TIP3     H2       HT       0.417000       1.00800           0
     35003 TIP3     2123     TIP3     OH2      OT      -0.834000       15.9994           0
     35004 TIP3     2123     TIP3     H1       HT       0.417000       1.00800           0
     35005 TIP3     2123     TIP3     H2       HT       0.417000       1.00800           0
     35006 TIP3     2124     TIP3     OH2      OT      -0.834000       15.9994           0
     35007 TIP3     2124     TIP3     H1       HT       0.417000       1.00800           0
     35008 TIP3     2124     TIP3     H2       HT       0.417000       1.00800           0
     35009 TIP3     2125     TIP3     OH2      OT      -0.834000       15.9994           0
     35010 TIP3     2125     TIP3     H1       HT       0.417000       1.00800           0
     35011 TIP3     2125     TIP3     H2       HT       0.417000       1.00800           0
     35012 TIP3     2126     TIP3     OH2      OT      -0.834000       15.9994           0
     35013 TIP3     2126     TIP3     H1       HT       0.417000       1.00800           0
     35014 TIP3     2126     TIP3     H2       HT       0.417000       1.00800           0
     35015 TIP3     2127     TIP3     OH2      OT      -0.834000       15.9994           0
     35016 TIP3     2127     TIP3     H1       HT       0.417000       1.00800           0
     35017 TIP3     2127     TIP3     H2       HT       0.417000       1.00800           0
     35018 TIP3     2128     TIP3     OH2      OT      -0.834000       15.9994           0
     35019 TIP3     2128     TIP3     H1       HT       0.417000       1.00800           0
     35020 TIP3     2128     TIP3     H2       HT       0.417000       1.00800           0
     35021 TIP3     2129     TIP3     OH2      OT      -0.834000       15.9994           0
     35022 TIP3     2129     TIP3     H1       HT       0.417000       1.00800           0
     35023 TIP3     2129     TIP3     H2       HT       0.417000       1.00800           0
     35024 TIP3     2130     TIP3     OH2      OT      -0.834000       15.9994           0
     35025 TIP3     2130     TIP3     H1       HT       0.417000       1.00800           0
     35026 TIP3     2130     TIP3     H2       HT       0.417000       1.00800           0
     35027 TIP3     2131     TIP3     OH2      OT      -0.834000       15.9994           0
     35028 TIP3     2131     TIP3     H1       HT       0.417000       1.00800           0
     35029 TIP3     2131     TIP3     H2       HT       0.417000       1.00800           0
     35030 TIP3     2132     TIP3     OH2      OT      -0.834000       15.9994           0
     35031 TIP3     2132     TIP3     H1       HT       0.417000       1.00800           0
     35032 TIP3     2132     TIP3     H2       HT       0.417000       1.00800           0
     35033 TIP3     2133     TIP3     OH2      OT      -0.834000       15.9994           0
     35034 TIP3     2133     TIP3     H1       HT       0.417000       1.00800           0
     35035 TIP3     2133     TIP3     H2       HT       0.417000       1.00800           0
     35036 TIP3     2134     TIP3     OH2      OT      -0.834000       15.9994           0
     35037 TIP3     2134     TIP3     H1       HT       0.417000       1.00800           0
     35038 TIP3     2134     TIP3     H2       HT       0.417000       1.00800           0
     35039 TIP3     2135     TIP3     OH2      OT      -0.834000       15.9994           0
     35040 TIP3     2135     TIP3     H1       HT       0.417000       1.00800           0
     35041 TIP3     2135     TIP3     H2       HT       0.417000       1.00800           0
     35042 TIP3     2136     TIP3     OH2      OT      -0.834000       15.9994           0
     35043 TIP3     2136     TIP3     H1       HT       0.417000       1.00800           0
     35044 TIP3     2136     TIP3     H2       HT       0.417000       1.00800           0
     35045 TIP3     2137     TIP3     OH2      OT      -0.834000       15.9994           0
     35046 TIP3     2137     TIP3     H1       HT       0.417000       1.00800           0
     35047 TIP3     2137     TIP3     H2       HT       0.417000       1.00800           0
     35048 TIP3     2138     TIP3     OH2      OT      -0.834000       15.9994           0
     35049 TIP3     2138     TIP3     H1       HT       0.417000       1.00800           0
     35050 TIP3     2138     TIP3     H2       HT       0.417000       1.00800           0
     35051 TIP3     2139     TIP3     OH2      OT      -0.834000       15.9994           0
     35052 TIP3     2139     TIP3     H1       HT       0.417000       1.00800           0
     35053 TIP3     2139     TIP3     H2       HT       0.417000       1.00800           0
     35054 TIP3     2140     TIP3     OH2      OT      -0.834000       15.9994           0
     35055 TIP3     2140     TIP3     H1       HT       0.417000       1.00800           0
     35056 TIP3     2140     TIP3     H2       HT       0.417000       1.00800           0
     35057 TIP3     2141     TIP3     OH2      OT      -0.834000       15.9994           0
     35058 TIP3     2141     TIP3     H1       HT       0.417000       1.00800           0
     35059 TIP3     2141     TIP3     H2       HT       0.417000       1.00800           0
     35060 TIP3     2142     TIP3     OH2      OT      -0.834000       15.9994           0
     35061 TIP3     2142     TIP3     H1       HT       0.417000       1.00800           0
     35062 TIP3     2142     TIP3     H2       HT       0.417000       1.00800           0
     35063 TIP3     2143     TIP3     OH2      OT      -0.834000       15.9994           0
     35064 TIP3     2143     TIP3     H1       HT       0.417000       1.00800           0
     35065 TIP3     2143     TIP3     H2       HT       0.417000       1.00800           0
     35066 TIP3     2144     TIP3     OH2      OT      -0.834000       15.9994           0
     35067 TIP3     2144     TIP3     H1       HT       0.417000       1.00800           0
     35068 TIP3     2144     TIP3     H2       HT       0.417000       1.00800           0
     35069 TIP3     2145     TIP3     OH2      OT      -0.834000       15.9994           0
     35070 TIP3     2145     TIP3     H1       HT       0.417000       1.00800           0
     35071 TIP3     2145     TIP3     H2       HT       0.417000       1.00800           0
     35072 TIP3     2146     TIP3     OH2      OT      -0.834000       15.9994           0
     35073 TIP3     2146     TIP3     H1       HT       0.417000       1.00800           0
     35074 TIP3     2146     TIP3     H2       HT       0.417000       1.00800           0
     35075 TIP3     2147     TIP3     OH2      OT      -0.834000       15.9994           0
     35076 TIP3     2147     TIP3     H1       HT       0.417000       1.00800           0
     35077 TIP3     2147     TIP3     H2       HT       0.417000       1.00800           0
     35078 TIP3     2148     TIP3     OH2      OT      -0.834000       15.9994           0
     35079 TIP3     2148     TIP3     H1       HT       0.417000       1.00800           0
     35080 TIP3     2148     TIP3     H2       HT       0.417000       1.00800           0
     35081 TIP3     2149     TIP3     OH2      OT      -0.834000       15.9994           0
     35082 TIP3     2149     TIP3     H1       HT       0.417000       1.00800           0
     35083 TIP3     2149     TIP3     H2       HT       0.417000       1.00800           0
     35084 TIP3     2150     TIP3     OH2      OT      -0.834000       15.9994           0
     35085 TIP3     2150     TIP3     H1       HT       0.417000       1.00800           0
     35086 TIP3     2150     TIP3     H2       HT       0.417000       1.00800           0
     35087 TIP3     2151     TIP3     OH2      OT      -0.834000       15.9994           0
     35088 TIP3     2151     TIP3     H1       HT       0.417000       1.00800           0
     35089 TIP3     2151     TIP3     H2       HT       0.417000       1.00800           0
     35090 TIP3     2152     TIP3     OH2      OT      -0.834000       15.9994           0
     35091 TIP3     2152     TIP3     H1       HT       0.417000       1.00800           0
     35092 TIP3     2152     TIP3     H2       HT       0.417000       1.00800           0
     35093 TIP3     2153     TIP3     OH2      OT      -0.834000       15.9994           0
     35094 TIP3     2153     TIP3     H1       HT       0.417000       1.00800           0
     35095 TIP3     2153     TIP3     H2       HT       0.417000       1.00800           0
     35096 TIP3     2154     TIP3     OH2      OT      -0.834000       15.9994           0
     35097 TIP3     2154     TIP3     H1       HT       0.417000       1.00800           0
     35098 TIP3     2154     TIP3     H2       HT       0.417000       1.00800           0
     35099 TIP3     2155     TIP3     OH2      OT      -0.834000       15.9994           0
     35100 TIP3     2155     TIP3     H1       HT       0.417000       1.00800           0
     35101 TIP3     2155     TIP3     H2       HT       0.417000       1.00800           0
     35102 TIP3     2156     TIP3     OH2      OT      -0.834000       15.9994           0
     35103 TIP3     2156     TIP3     H1       HT       0.417000       1.00800           0
     35104 TIP3     2156     TIP3     H2       HT       0.417000       1.00800           0
     35105 TIP3     2157     TIP3     OH2      OT      -0.834000       15.9994           0
     35106 TIP3     2157     TIP3     H1       HT       0.417000       1.00800           0
     35107 TIP3     2157     TIP3     H2       HT       0.417000       1.00800           0
     35108 TIP3     2158     TIP3     OH2      OT      -0.834000       15.9994           0
     35109 TIP3     2158     TIP3     H1       HT       0.417000       1.00800           0
     35110 TIP3     2158     TIP3     H2       HT       0.417000       1.00800           0
     35111 TIP3     2159     TIP3     OH2      OT      -0.834000       15.9994           0
     35112 TIP3     2159     TIP3     H1       HT       0.417000       1.00800           0
     35113 TIP3     2159     TIP3     H2       HT       0.417000       1.00800           0
     35114 TIP3     2160     TIP3     OH2      OT      -0.834000       15.9994           0
     35115 TIP3     2160     TIP3     H1       HT       0.417000       1.00800           0
     35116 TIP3     2160     TIP3     H2       HT       0.417000       1.00800           0
     35117 TIP3     2161     TIP3     OH2      OT      -0.834000       15.9994           0
     35118 TIP3     2161     TIP3     H1       HT       0.417000       1.00800           0
     35119 TIP3     2161     TIP3     H2       HT       0.417000       1.00800           0
     35120 TIP3     2162     TIP3     OH2      OT      -0.834000       15.9994           0
     35121 TIP3     2162     TIP3     H1       HT       0.417000       1.00800           0
     35122 TIP3     2162     TIP3     H2       HT       0.417000       1.00800           0
     35123 TIP3     2163     TIP3     OH2      OT      -0.834000       15.9994           0
     35124 TIP3     2163     TIP3     H1       HT       0.417000       1.00800           0
     35125 TIP3     2163     TIP3     H2       HT       0.417000       1.00800           0
     35126 TIP3     2164     TIP3     OH2      OT      -0.834000       15.9994           0
     35127 TIP3     2164     TIP3     H1       HT       0.417000       1.00800           0
     35128 TIP3     2164     TIP3     H2       HT       0.417000       1.00800           0
     35129 TIP3     2165     TIP3     OH2      OT      -0.834000       15.9994           0
     35130 TIP3     2165     TIP3     H1       HT       0.417000       1.00800           0
     35131 TIP3     2165     TIP3     H2       HT       0.417000       1.00800           0
     35132 TIP3     2166     TIP3     OH2      OT      -0.834000       15.9994           0
     35133 TIP3     2166     TIP3     H1       HT       0.417000       1.00800           0
     35134 TIP3     2166     TIP3     H2       HT       0.417000       1.00800           0
     35135 TIP3     2167     TIP3     OH2      OT      -0.834000       15.9994           0
     35136 TIP3     2167     TIP3     H1       HT       0.417000       1.00800           0
     35137 TIP3     2167     TIP3     H2       HT       0.417000       1.00800           0
     35138 TIP3     2168     TIP3     OH2      OT      -0.834000       15.9994           0
     35139 TIP3     2168     TIP3     H1       HT       0.417000       1.00800           0
     35140 TIP3     2168     TIP3     H2       HT       0.417000       1.00800           0
     35141 TIP3     2169     TIP3     OH2      OT      -0.834000       15.9994           0
     35142 TIP3     2169     TIP3     H1       HT       0.417000       1.00800           0
     35143 TIP3     2169     TIP3     H2       HT       0.417000       1.00800           0
     35144 TIP3     2170     TIP3     OH2      OT      -0.834000       15.9994           0
     35145 TIP3     2170     TIP3     H1       HT       0.417000       1.00800           0
     35146 TIP3     2170     TIP3     H2       HT       0.417000       1.00800           0
     35147 TIP3     2171     TIP3     OH2      OT      -0.834000       15.9994           0
     35148 TIP3     2171     TIP3     H1       HT       0.417000       1.00800           0
     35149 TIP3     2171     TIP3     H2       HT       0.417000       1.00800           0
     35150 TIP3     2172     TIP3     OH2      OT      -0.834000       15.9994           0
     35151 TIP3     2172     TIP3     H1       HT       0.417000       1.00800           0
     35152 TIP3     2172     TIP3     H2       HT       0.417000       1.00800           0
     35153 TIP3     2173     TIP3     OH2      OT      -0.834000       15.9994           0
     35154 TIP3     2173     TIP3     H1       HT       0.417000       1.00800           0
     35155 TIP3     2173     TIP3     H2       HT       0.417000       1.00800           0
     35156 TIP3     2174     TIP3     OH2      OT      -0.834000       15.9994           0
     35157 TIP3     2174     TIP3     H1       HT       0.417000       1.00800           0
     35158 TIP3     2174     TIP3     H2       HT       0.417000       1.00800           0
     35159 TIP3     2175     TIP3     OH2      OT      -0.834000       15.9994           0
     35160 TIP3     2175     TIP3     H1       HT       0.417000       1.00800           0
     35161 TIP3     2175     TIP3     H2       HT       0.417000       1.00800           0
     35162 TIP3     2176     TIP3     OH2      OT      -0.834000       15.9994           0
     35163 TIP3     2176     TIP3     H1       HT       0.417000       1.00800           0
     35164 TIP3     2176     TIP3     H2       HT       0.417000       1.00800           0
     35165 TIP3     2177     TIP3     OH2      OT      -0.834000       15.9994           0
     35166 TIP3     2177     TIP3     H1       HT       0.417000       1.00800           0
     35167 TIP3     2177     TIP3     H2       HT       0.417000       1.00800           0
     35168 TIP3     2178     TIP3     OH2      OT      -0.834000       15.9994           0
     35169 TIP3     2178     TIP3     H1       HT       0.417000       1.00800           0
     35170 TIP3     2178     TIP3     H2       HT       0.417000       1.00800           0
     35171 TIP3     2179     TIP3     OH2      OT      -0.834000       15.9994           0
     35172 TIP3     2179     TIP3     H1       HT       0.417000       1.00800           0
     35173 TIP3     2179     TIP3     H2       HT       0.417000       1.00800           0
     35174 TIP3     2180     TIP3     OH2      OT      -0.834000       15.9994           0
     35175 TIP3     2180     TIP3     H1       HT       0.417000       1.00800           0
     35176 TIP3     2180     TIP3     H2       HT       0.417000       1.00800           0
     35177 TIP3     2181     TIP3     OH2      OT      -0.834000       15.9994           0
     35178 TIP3     2181     TIP3     H1       HT       0.417000       1.00800           0
     35179 TIP3     2181     TIP3     H2       HT       0.417000       1.00800           0
     35180 TIP3     2182     TIP3     OH2      OT      -0.834000       15.9994           0
     35181 TIP3     2182     TIP3     H1       HT       0.417000       1.00800           0
     35182 TIP3     2182     TIP3     H2       HT       0.417000       1.00800           0
     35183 TIP3     2183     TIP3     OH2      OT      -0.834000       15.9994           0
     35184 TIP3     2183     TIP3     H1       HT       0.417000       1.00800           0
     35185 TIP3     2183     TIP3     H2       HT       0.417000       1.00800           0
     35186 TIP3     2184     TIP3     OH2      OT      -0.834000       15.9994           0
     35187 TIP3     2184     TIP3     H1       HT       0.417000       1.00800           0
     35188 TIP3     2184     TIP3     H2       HT       0.417000       1.00800           0
     35189 TIP3     2185     TIP3     OH2      OT      -0.834000       15.9994           0
     35190 TIP3     2185     TIP3     H1       HT       0.417000       1.00800           0
     35191 TIP3     2185     TIP3     H2       HT       0.417000       1.00800           0
     35192 TIP3     2186     TIP3     OH2      OT      -0.834000       15.9994           0
     35193 TIP3     2186     TIP3     H1       HT       0.417000       1.00800           0
     35194 TIP3     2186     TIP3     H2       HT       0.417000       1.00800           0
     35195 TIP3     2187     TIP3     OH2      OT      -0.834000       15.9994           0
     35196 TIP3     2187     TIP3     H1       HT       0.417000       1.00800           0
     35197 TIP3     2187     TIP3     H2       HT       0.417000       1.00800           0
     35198 TIP3     2188     TIP3     OH2      OT      -0.834000       15.9994           0
     35199 TIP3     2188     TIP3     H1       HT       0.417000       1.00800           0
     35200 TIP3     2188     TIP3     H2       HT       0.417000       1.00800           0
     35201 TIP3     2189     TIP3     OH2      OT      -0.834000       15.9994           0
     35202 TIP3     2189     TIP3     H1       HT       0.417000       1.00800           0
     35203 TIP3     2189     TIP3     H2       HT       0.417000       1.00800           0
     35204 TIP3     2190     TIP3     OH2      OT      -0.834000       15.9994           0
     35205 TIP3     2190     TIP3     H1       HT       0.417000       1.00800           0
     35206 TIP3     2190     TIP3     H2       HT       0.417000       1.00800           0
     35207 TIP3     2191     TIP3     OH2      OT      -0.834000       15.9994           0
     35208 TIP3     2191     TIP3     H1       HT       0.417000       1.00800           0
     35209 TIP3     2191     TIP3     H2       HT       0.417000       1.00800           0
     35210 TIP3     2192     TIP3     OH2      OT      -0.834000       15.9994           0
     35211 TIP3     2192     TIP3     H1       HT       0.417000       1.00800           0
     35212 TIP3     2192     TIP3     H2       HT       0.417000       1.00800           0
     35213 TIP3     2193     TIP3     OH2      OT      -0.834000       15.9994           0
     35214 TIP3     2193     TIP3     H1       HT       0.417000       1.00800           0
     35215 TIP3     2193     TIP3     H2       HT       0.417000       1.00800           0
     35216 TIP3     2194     TIP3     OH2      OT      -0.834000       15.9994           0
     35217 TIP3     2194     TIP3     H1       HT       0.417000       1.00800           0
     35218 TIP3     2194     TIP3     H2       HT       0.417000       1.00800           0
     35219 TIP3     2195     TIP3     OH2      OT      -0.834000       15.9994           0
     35220 TIP3     2195     TIP3     H1       HT       0.417000       1.00800           0
     35221 TIP3     2195     TIP3     H2       HT       0.417000       1.00800           0
     35222 TIP3     2196     TIP3     OH2      OT      -0.834000       15.9994           0
     35223 TIP3     2196     TIP3     H1       HT       0.417000       1.00800           0
     35224 TIP3     2196     TIP3     H2       HT       0.417000       1.00800           0
     35225 TIP3     2197     TIP3     OH2      OT      -0.834000       15.9994           0
     35226 TIP3     2197     TIP3     H1       HT       0.417000       1.00800           0
     35227 TIP3     2197     TIP3     H2       HT       0.417000       1.00800           0
     35228 TIP3     2198     TIP3     OH2      OT      -0.834000       15.9994           0
     35229 TIP3     2198     TIP3     H1       HT       0.417000       1.00800           0
     35230 TIP3     2198     TIP3     H2       HT       0.417000       1.00800           0
     35231 TIP3     2199     TIP3     OH2      OT      -0.834000       15.9994           0
     35232 TIP3     2199     TIP3     H1       HT       0.417000       1.00800           0
     35233 TIP3     2199     TIP3     H2       HT       0.417000       1.00800           0
     35234 TIP3     2200     TIP3     OH2      OT      -0.834000       15.9994           0
     35235 TIP3     2200     TIP3     H1       HT       0.417000       1.00800           0
     35236 TIP3     2200     TIP3     H2       HT       0.417000       1.00800           0
     35237 TIP3     2201     TIP3     OH2      OT      -0.834000       15.9994           0
     35238 TIP3     2201     TIP3     H1       HT       0.417000       1.00800           0
     35239 TIP3     2201     TIP3     H2       HT       0.417000       1.00800           0
     35240 TIP3     2202     TIP3     OH2      OT      -0.834000       15.9994           0
     35241 TIP3     2202     TIP3     H1       HT       0.417000       1.00800           0
     35242 TIP3     2202     TIP3     H2       HT       0.417000       1.00800           0
     35243 TIP3     2203     TIP3     OH2      OT      -0.834000       15.9994           0
     35244 TIP3     2203     TIP3     H1       HT       0.417000       1.00800           0
     35245 TIP3     2203     TIP3     H2       HT       0.417000       1.00800           0
     35246 TIP3     2204     TIP3     OH2      OT      -0.834000       15.9994           0
     35247 TIP3     2204     TIP3     H1       HT       0.417000       1.00800           0
     35248 TIP3     2204     TIP3     H2       HT       0.417000       1.00800           0
     35249 TIP3     2205     TIP3     OH2      OT      -0.834000       15.9994           0
     35250 TIP3     2205     TIP3     H1       HT       0.417000       1.00800           0
     35251 TIP3     2205     TIP3     H2       HT       0.417000       1.00800           0
     35252 TIP3     2206     TIP3     OH2      OT      -0.834000       15.9994           0
     35253 TIP3     2206     TIP3     H1       HT       0.417000       1.00800           0
     35254 TIP3     2206     TIP3     H2       HT       0.417000       1.00800           0
     35255 TIP3     2207     TIP3     OH2      OT      -0.834000       15.9994           0
     35256 TIP3     2207     TIP3     H1       HT       0.417000       1.00800           0
     35257 TIP3     2207     TIP3     H2       HT       0.417000       1.00800           0
     35258 TIP3     2208     TIP3     OH2      OT      -0.834000       15.9994           0
     35259 TIP3     2208     TIP3     H1       HT       0.417000       1.00800           0
     35260 TIP3     2208     TIP3     H2       HT       0.417000       1.00800           0
     35261 TIP3     2209     TIP3     OH2      OT      -0.834000       15.9994           0
     35262 TIP3     2209     TIP3     H1       HT       0.417000       1.00800           0
     35263 TIP3     2209     TIP3     H2       HT       0.417000       1.00800           0
     35264 TIP3     2210     TIP3     OH2      OT      -0.834000       15.9994           0
     35265 TIP3     2210     TIP3     H1       HT       0.417000       1.00800           0
     35266 TIP3     2210     TIP3     H2       HT       0.417000       1.00800           0
     35267 TIP3     2211     TIP3     OH2      OT      -0.834000       15.9994           0
     35268 TIP3     2211     TIP3     H1       HT       0.417000       1.00800           0
     35269 TIP3     2211     TIP3     H2       HT       0.417000       1.00800           0
     35270 TIP3     2212     TIP3     OH2      OT      -0.834000       15.9994           0
     35271 TIP3     2212     TIP3     H1       HT       0.417000       1.00800           0
     35272 TIP3     2212     TIP3     H2       HT       0.417000       1.00800           0
     35273 TIP3     2213     TIP3     OH2      OT      -0.834000       15.9994           0
     35274 TIP3     2213     TIP3     H1       HT       0.417000       1.00800           0
     35275 TIP3     2213     TIP3     H2       HT       0.417000       1.00800           0
     35276 TIP3     2214     TIP3     OH2      OT      -0.834000       15.9994           0
     35277 TIP3     2214     TIP3     H1       HT       0.417000       1.00800           0
     35278 TIP3     2214     TIP3     H2       HT       0.417000       1.00800           0
     35279 TIP3     2215     TIP3     OH2      OT      -0.834000       15.9994           0
     35280 TIP3     2215     TIP3     H1       HT       0.417000       1.00800           0
     35281 TIP3     2215     TIP3     H2       HT       0.417000       1.00800           0
     35282 TIP3     2216     TIP3     OH2      OT      -0.834000       15.9994           0
     35283 TIP3     2216     TIP3     H1       HT       0.417000       1.00800           0
     35284 TIP3     2216     TIP3     H2       HT       0.417000       1.00800           0
     35285 TIP3     2217     TIP3     OH2      OT      -0.834000       15.9994           0
     35286 TIP3     2217     TIP3     H1       HT       0.417000       1.00800           0
     35287 TIP3     2217     TIP3     H2       HT       0.417000       1.00800           0
     35288 TIP3     2218     TIP3     OH2      OT      -0.834000       15.9994           0
     35289 TIP3     2218     TIP3     H1       HT       0.417000       1.00800           0
     35290 TIP3     2218     TIP3     H2       HT       0.417000       1.00800           0
     35291 TIP3     2219     TIP3     OH2      OT      -0.834000       15.9994           0
     35292 TIP3     2219     TIP3     H1       HT       0.417000       1.00800           0
     35293 TIP3     2219     TIP3     H2       HT       0.417000       1.00800           0
     35294 TIP3     2220     TIP3     OH2      OT      -0.834000       15.9994           0
     35295 TIP3     2220     TIP3     H1       HT       0.417000       1.00800           0
     35296 TIP3     2220     TIP3     H2       HT       0.417000       1.00800           0
     35297 TIP3     2221     TIP3     OH2      OT      -0.834000       15.9994           0
     35298 TIP3     2221     TIP3     H1       HT       0.417000       1.00800           0
     35299 TIP3     2221     TIP3     H2       HT       0.417000       1.00800           0
     35300 TIP3     2222     TIP3     OH2      OT      -0.834000       15.9994           0
     35301 TIP3     2222     TIP3     H1       HT       0.417000       1.00800           0
     35302 TIP3     2222     TIP3     H2       HT       0.417000       1.00800           0
     35303 TIP3     2223     TIP3     OH2      OT      -0.834000       15.9994           0
     35304 TIP3     2223     TIP3     H1       HT       0.417000       1.00800           0
     35305 TIP3     2223     TIP3     H2       HT       0.417000       1.00800           0
     35306 TIP3     2224     TIP3     OH2      OT      -0.834000       15.9994           0
     35307 TIP3     2224     TIP3     H1       HT       0.417000       1.00800           0
     35308 TIP3     2224     TIP3     H2       HT       0.417000       1.00800           0
     35309 TIP3     2225     TIP3     OH2      OT      -0.834000       15.9994           0
     35310 TIP3     2225     TIP3     H1       HT       0.417000       1.00800           0
     35311 TIP3     2225     TIP3     H2       HT       0.417000       1.00800           0
     35312 TIP3     2226     TIP3     OH2      OT      -0.834000       15.9994           0
     35313 TIP3     2226     TIP3     H1       HT       0.417000       1.00800           0
     35314 TIP3     2226     TIP3     H2       HT       0.417000       1.00800           0
     35315 TIP3     2227     TIP3     OH2      OT      -0.834000       15.9994           0
     35316 TIP3     2227     TIP3     H1       HT       0.417000       1.00800           0
     35317 TIP3     2227     TIP3     H2       HT       0.417000       1.00800           0
     35318 TIP3     2228     TIP3     OH2      OT      -0.834000       15.9994           0
     35319 TIP3     2228     TIP3     H1       HT       0.417000       1.00800           0
     35320 TIP3     2228     TIP3     H2       HT       0.417000       1.00800           0
     35321 TIP3     2229     TIP3     OH2      OT      -0.834000       15.9994           0
     35322 TIP3     2229     TIP3     H1       HT       0.417000       1.00800           0
     35323 TIP3     2229     TIP3     H2       HT       0.417000       1.00800           0
     35324 TIP3     2230     TIP3     OH2      OT      -0.834000       15.9994           0
     35325 TIP3     2230     TIP3     H1       HT       0.417000       1.00800           0
     35326 TIP3     2230     TIP3     H2       HT       0.417000       1.00800           0
     35327 TIP3     2231     TIP3     OH2      OT      -0.834000       15.9994           0
     35328 TIP3     2231     TIP3     H1       HT       0.417000       1.00800           0
     35329 TIP3     2231     TIP3     H2       HT       0.417000       1.00800           0
     35330 TIP3     2232     TIP3     OH2      OT      -0.834000       15.9994           0
     35331 TIP3     2232     TIP3     H1       HT       0.417000       1.00800           0
     35332 TIP3     2232     TIP3     H2       HT       0.417000       1.00800           0
     35333 TIP3     2233     TIP3     OH2      OT      -0.834000       15.9994           0
     35334 TIP3     2233     TIP3     H1       HT       0.417000       1.00800           0
     35335 TIP3     2233     TIP3     H2       HT       0.417000       1.00800           0
     35336 TIP3     2234     TIP3     OH2      OT      -0.834000       15.9994           0
     35337 TIP3     2234     TIP3     H1       HT       0.417000       1.00800           0
     35338 TIP3     2234     TIP3     H2       HT       0.417000       1.00800           0
     35339 TIP3     2235     TIP3     OH2      OT      -0.834000       15.9994           0
     35340 TIP3     2235     TIP3     H1       HT       0.417000       1.00800           0
     35341 TIP3     2235     TIP3     H2       HT       0.417000       1.00800           0
     35342 TIP3     2236     TIP3     OH2      OT      -0.834000       15.9994           0
     35343 TIP3     2236     TIP3     H1       HT       0.417000       1.00800           0
     35344 TIP3     2236     TIP3     H2       HT       0.417000       1.00800           0
     35345 TIP3     2237     TIP3     OH2      OT      -0.834000       15.9994           0
     35346 TIP3     2237     TIP3     H1       HT       0.417000       1.00800           0
     35347 TIP3     2237     TIP3     H2       HT       0.417000       1.00800           0
     35348 TIP3     2238     TIP3     OH2      OT      -0.834000       15.9994           0
     35349 TIP3     2238     TIP3     H1       HT       0.417000       1.00800           0
     35350 TIP3     2238     TIP3     H2       HT       0.417000       1.00800           0
     35351 TIP3     2239     TIP3     OH2      OT      -0.834000       15.9994           0
     35352 TIP3     2239     TIP3     H1       HT       0.417000       1.00800           0
     35353 TIP3     2239     TIP3     H2       HT       0.417000       1.00800           0
     35354 TIP3     2240     TIP3     OH2      OT      -0.834000       15.9994           0
     35355 TIP3     2240     TIP3     H1       HT       0.417000       1.00800           0
     35356 TIP3     2240     TIP3     H2       HT       0.417000       1.00800           0
     35357 TIP3     2241     TIP3     OH2      OT      -0.834000       15.9994           0
     35358 TIP3     2241     TIP3     H1       HT       0.417000       1.00800           0
     35359 TIP3     2241     TIP3     H2       HT       0.417000       1.00800           0
     35360 TIP3     2242     TIP3     OH2      OT      -0.834000       15.9994           0
     35361 TIP3     2242     TIP3     H1       HT       0.417000       1.00800           0
     35362 TIP3     2242     TIP3     H2       HT       0.417000       1.00800           0
     35363 TIP3     2243     TIP3     OH2      OT      -0.834000       15.9994           0
     35364 TIP3     2243     TIP3     H1       HT       0.417000       1.00800           0
     35365 TIP3     2243     TIP3     H2       HT       0.417000       1.00800           0
     35366 TIP3     2244     TIP3     OH2      OT      -0.834000       15.9994           0
     35367 TIP3     2244     TIP3     H1       HT       0.417000       1.00800           0
     35368 TIP3     2244     TIP3     H2       HT       0.417000       1.00800           0
     35369 TIP3     2245     TIP3     OH2      OT      -0.834000       15.9994           0
     35370 TIP3     2245     TIP3     H1       HT       0.417000       1.00800           0
     35371 TIP3     2245     TIP3     H2       HT       0.417000       1.00800           0
     35372 TIP3     2246     TIP3     OH2      OT      -0.834000       15.9994           0
     35373 TIP3     2246     TIP3     H1       HT       0.417000       1.00800           0
     35374 TIP3     2246     TIP3     H2       HT       0.417000       1.00800           0
     35375 TIP3     2247     TIP3     OH2      OT      -0.834000       15.9994           0
     35376 TIP3     2247     TIP3     H1       HT       0.417000       1.00800           0
     35377 TIP3     2247     TIP3     H2       HT       0.417000       1.00800           0
     35378 TIP3     2248     TIP3     OH2      OT      -0.834000       15.9994           0
     35379 TIP3     2248     TIP3     H1       HT       0.417000       1.00800           0
     35380 TIP3     2248     TIP3     H2       HT       0.417000       1.00800           0
     35381 TIP3     2249     TIP3     OH2      OT      -0.834000       15.9994           0
     35382 TIP3     2249     TIP3     H1       HT       0.417000       1.00800           0
     35383 TIP3     2249     TIP3     H2       HT       0.417000       1.00800           0
     35384 TIP3     2250     TIP3     OH2      OT      -0.834000       15.9994           0
     35385 TIP3     2250     TIP3     H1       HT       0.417000       1.00800           0
     35386 TIP3     2250     TIP3     H2       HT       0.417000       1.00800           0
     35387 TIP3     2251     TIP3     OH2      OT      -0.834000       15.9994           0
     35388 TIP3     2251     TIP3     H1       HT       0.417000       1.00800           0
     35389 TIP3     2251     TIP3     H2       HT       0.417000       1.00800           0
     35390 TIP3     2252     TIP3     OH2      OT      -0.834000       15.9994           0
     35391 TIP3     2252     TIP3     H1       HT       0.417000       1.00800           0
     35392 TIP3     2252     TIP3     H2       HT       0.417000       1.00800           0
     35393 TIP3     2253     TIP3     OH2      OT      -0.834000       15.9994           0
     35394 TIP3     2253     TIP3     H1       HT       0.417000       1.00800           0
     35395 TIP3     2253     TIP3     H2       HT       0.417000       1.00800           0
     35396 TIP3     2254     TIP3     OH2      OT      -0.834000       15.9994           0
     35397 TIP3     2254     TIP3     H1       HT       0.417000       1.00800           0
     35398 TIP3     2254     TIP3     H2       HT       0.417000       1.00800           0
     35399 TIP3     2255     TIP3     OH2      OT      -0.834000       15.9994           0
     35400 TIP3     2255     TIP3     H1       HT       0.417000       1.00800           0
     35401 TIP3     2255     TIP3     H2       HT       0.417000       1.00800           0
     35402 TIP3     2256     TIP3     OH2      OT      -0.834000       15.9994           0
     35403 TIP3     2256     TIP3     H1       HT       0.417000       1.00800           0
     35404 TIP3     2256     TIP3     H2       HT       0.417000       1.00800           0
     35405 TIP3     2257     TIP3     OH2      OT      -0.834000       15.9994           0
     35406 TIP3     2257     TIP3     H1       HT       0.417000       1.00800           0
     35407 TIP3     2257     TIP3     H2       HT       0.417000       1.00800           0
     35408 TIP3     2258     TIP3     OH2      OT      -0.834000       15.9994           0
     35409 TIP3     2258     TIP3     H1       HT       0.417000       1.00800           0
     35410 TIP3     2258     TIP3     H2       HT       0.417000       1.00800           0
     35411 TIP3     2259     TIP3     OH2      OT      -0.834000       15.9994           0
     35412 TIP3     2259     TIP3     H1       HT       0.417000       1.00800           0
     35413 TIP3     2259     TIP3     H2       HT       0.417000       1.00800           0
     35414 TIP3     2260     TIP3     OH2      OT      -0.834000       15.9994           0
     35415 TIP3     2260     TIP3     H1       HT       0.417000       1.00800           0
     35416 TIP3     2260     TIP3     H2       HT       0.417000       1.00800           0
     35417 TIP3     2261     TIP3     OH2      OT      -0.834000       15.9994           0
     35418 TIP3     2261     TIP3     H1       HT       0.417000       1.00800           0
     35419 TIP3     2261     TIP3     H2       HT       0.417000       1.00800           0
     35420 TIP3     2262     TIP3     OH2      OT      -0.834000       15.9994           0
     35421 TIP3     2262     TIP3     H1       HT       0.417000       1.00800           0
     35422 TIP3     2262     TIP3     H2       HT       0.417000       1.00800           0
     35423 TIP3     2263     TIP3     OH2      OT      -0.834000       15.9994           0
     35424 TIP3     2263     TIP3     H1       HT       0.417000       1.00800           0
     35425 TIP3     2263     TIP3     H2       HT       0.417000       1.00800           0
     35426 TIP3     2264     TIP3     OH2      OT      -0.834000       15.9994           0
     35427 TIP3     2264     TIP3     H1       HT       0.417000       1.00800           0
     35428 TIP3     2264     TIP3     H2       HT       0.417000       1.00800           0
     35429 TIP3     2265     TIP3     OH2      OT      -0.834000       15.9994           0
     35430 TIP3     2265     TIP3     H1       HT       0.417000       1.00800           0
     35431 TIP3     2265     TIP3     H2       HT       0.417000       1.00800           0
     35432 TIP3     2266     TIP3     OH2      OT      -0.834000       15.9994           0
     35433 TIP3     2266     TIP3     H1       HT       0.417000       1.00800           0
     35434 TIP3     2266     TIP3     H2       HT       0.417000       1.00800           0
     35435 TIP3     2267     TIP3     OH2      OT      -0.834000       15.9994           0
     35436 TIP3     2267     TIP3     H1       HT       0.417000       1.00800           0
     35437 TIP3     2267     TIP3     H2       HT       0.417000       1.00800           0
     35438 TIP3     2268     TIP3     OH2      OT      -0.834000       15.9994           0
     35439 TIP3     2268     TIP3     H1       HT       0.417000       1.00800           0
     35440 TIP3     2268     TIP3     H2       HT       0.417000       1.00800           0
     35441 TIP3     2269     TIP3     OH2      OT      -0.834000       15.9994           0
     35442 TIP3     2269     TIP3     H1       HT       0.417000       1.00800           0
     35443 TIP3     2269     TIP3     H2       HT       0.417000       1.00800           0
     35444 TIP3     2270     TIP3     OH2      OT      -0.834000       15.9994           0
     35445 TIP3     2270     TIP3     H1       HT       0.417000       1.00800           0
     35446 TIP3     2270     TIP3     H2       HT       0.417000       1.00800           0
     35447 TIP3     2271     TIP3     OH2      OT      -0.834000       15.9994           0
     35448 TIP3     2271     TIP3     H1       HT       0.417000       1.00800           0
     35449 TIP3     2271     TIP3     H2       HT       0.417000       1.00800           0
     35450 TIP3     2272     TIP3     OH2      OT      -0.834000       15.9994           0
     35451 TIP3     2272     TIP3     H1       HT       0.417000       1.00800           0
     35452 TIP3     2272     TIP3     H2       HT       0.417000       1.00800           0
     35453 TIP3     2273     TIP3     OH2      OT      -0.834000       15.9994           0
     35454 TIP3     2273     TIP3     H1       HT       0.417000       1.00800           0
     35455 TIP3     2273     TIP3     H2       HT       0.417000       1.00800           0
     35456 TIP3     2274     TIP3     OH2      OT      -0.834000       15.9994           0
     35457 TIP3     2274     TIP3     H1       HT       0.417000       1.00800           0
     35458 TIP3     2274     TIP3     H2       HT       0.417000       1.00800           0
     35459 TIP3     2275     TIP3     OH2      OT      -0.834000       15.9994           0
     35460 TIP3     2275     TIP3     H1       HT       0.417000       1.00800           0
     35461 TIP3     2275     TIP3     H2       HT       0.417000       1.00800           0
     35462 TIP3     2276     TIP3     OH2      OT      -0.834000       15.9994           0
     35463 TIP3     2276     TIP3     H1       HT       0.417000       1.00800           0
     35464 TIP3     2276     TIP3     H2       HT       0.417000       1.00800           0
     35465 TIP3     2277     TIP3     OH2      OT      -0.834000       15.9994           0
     35466 TIP3     2277     TIP3     H1       HT       0.417000       1.00800           0
     35467 TIP3     2277     TIP3     H2       HT       0.417000       1.00800           0
     35468 TIP3     2278     TIP3     OH2      OT      -0.834000       15.9994           0
     35469 TIP3     2278     TIP3     H1       HT       0.417000       1.00800           0
     35470 TIP3     2278     TIP3     H2       HT       0.417000       1.00800           0
     35471 TIP3     2279     TIP3     OH2      OT      -0.834000       15.9994           0
     35472 TIP3     2279     TIP3     H1       HT       0.417000       1.00800           0
     35473 TIP3     2279     TIP3     H2       HT       0.417000       1.00800           0
     35474 TIP3     2280     TIP3     OH2      OT      -0.834000       15.9994           0
     35475 TIP3     2280     TIP3     H1       HT       0.417000       1.00800           0
     35476 TIP3     2280     TIP3     H2       HT       0.417000       1.00800           0
     35477 TIP3     2281     TIP3     OH2      OT      -0.834000       15.9994           0
     35478 TIP3     2281     TIP3     H1       HT       0.417000       1.00800           0
     35479 TIP3     2281     TIP3     H2       HT       0.417000       1.00800           0
     35480 TIP3     2282     TIP3     OH2      OT      -0.834000       15.9994           0
     35481 TIP3     2282     TIP3     H1       HT       0.417000       1.00800           0
     35482 TIP3     2282     TIP3     H2       HT       0.417000       1.00800           0
     35483 TIP3     2283     TIP3     OH2      OT      -0.834000       15.9994           0
     35484 TIP3     2283     TIP3     H1       HT       0.417000       1.00800           0
     35485 TIP3     2283     TIP3     H2       HT       0.417000       1.00800           0
     35486 TIP3     2284     TIP3     OH2      OT      -0.834000       15.9994           0
     35487 TIP3     2284     TIP3     H1       HT       0.417000       1.00800           0
     35488 TIP3     2284     TIP3     H2       HT       0.417000       1.00800           0
     35489 TIP3     2285     TIP3     OH2      OT      -0.834000       15.9994           0
     35490 TIP3     2285     TIP3     H1       HT       0.417000       1.00800           0
     35491 TIP3     2285     TIP3     H2       HT       0.417000       1.00800           0
     35492 TIP3     2286     TIP3     OH2      OT      -0.834000       15.9994           0
     35493 TIP3     2286     TIP3     H1       HT       0.417000       1.00800           0
     35494 TIP3     2286     TIP3     H2       HT       0.417000       1.00800           0
     35495 TIP3     2287     TIP3     OH2      OT      -0.834000       15.9994           0
     35496 TIP3     2287     TIP3     H1       HT       0.417000       1.00800           0
     35497 TIP3     2287     TIP3     H2       HT       0.417000       1.00800           0
     35498 TIP3     2288     TIP3     OH2      OT      -0.834000       15.9994           0
     35499 TIP3     2288     TIP3     H1       HT       0.417000       1.00800           0
     35500 TIP3     2288     TIP3     H2       HT       0.417000       1.00800           0
     35501 TIP3     2289     TIP3     OH2      OT      -0.834000       15.9994           0
     35502 TIP3     2289     TIP3     H1       HT       0.417000       1.00800           0
     35503 TIP3     2289     TIP3     H2       HT       0.417000       1.00800           0
     35504 TIP3     2290     TIP3     OH2      OT      -0.834000       15.9994           0
     35505 TIP3     2290     TIP3     H1       HT       0.417000       1.00800           0
     35506 TIP3     2290     TIP3     H2       HT       0.417000       1.00800           0
     35507 TIP3     2291     TIP3     OH2      OT      -0.834000       15.9994           0
     35508 TIP3     2291     TIP3     H1       HT       0.417000       1.00800           0
     35509 TIP3     2291     TIP3     H2       HT       0.417000       1.00800           0
     35510 TIP3     2292     TIP3     OH2      OT      -0.834000       15.9994           0
     35511 TIP3     2292     TIP3     H1       HT       0.417000       1.00800           0
     35512 TIP3     2292     TIP3     H2       HT       0.417000       1.00800           0
     35513 TIP3     2293     TIP3     OH2      OT      -0.834000       15.9994           0
     35514 TIP3     2293     TIP3     H1       HT       0.417000       1.00800           0
     35515 TIP3     2293     TIP3     H2       HT       0.417000       1.00800           0
     35516 TIP3     2294     TIP3     OH2      OT      -0.834000       15.9994           0
     35517 TIP3     2294     TIP3     H1       HT       0.417000       1.00800           0
     35518 TIP3     2294     TIP3     H2       HT       0.417000       1.00800           0
     35519 TIP3     2295     TIP3     OH2      OT      -0.834000       15.9994           0
     35520 TIP3     2295     TIP3     H1       HT       0.417000       1.00800           0
     35521 TIP3     2295     TIP3     H2       HT       0.417000       1.00800           0
     35522 TIP3     2296     TIP3     OH2      OT      -0.834000       15.9994           0
     35523 TIP3     2296     TIP3     H1       HT       0.417000       1.00800           0
     35524 TIP3     2296     TIP3     H2       HT       0.417000       1.00800           0
     35525 TIP3     2297     TIP3     OH2      OT      -0.834000       15.9994           0
     35526 TIP3     2297     TIP3     H1       HT       0.417000       1.00800           0
     35527 TIP3     2297     TIP3     H2       HT       0.417000       1.00800           0
     35528 TIP3     2298     TIP3     OH2      OT      -0.834000       15.9994           0
     35529 TIP3     2298     TIP3     H1       HT       0.417000       1.00800           0
     35530 TIP3     2298     TIP3     H2       HT       0.417000       1.00800           0
     35531 TIP3     2299     TIP3     OH2      OT      -0.834000       15.9994           0
     35532 TIP3     2299     TIP3     H1       HT       0.417000       1.00800           0
     35533 TIP3     2299     TIP3     H2       HT       0.417000       1.00800           0
     35534 TIP3     2300     TIP3     OH2      OT      -0.834000       15.9994           0
     35535 TIP3     2300     TIP3     H1       HT       0.417000       1.00800           0
     35536 TIP3     2300     TIP3     H2       HT       0.417000       1.00800           0
     35537 TIP3     2301     TIP3     OH2      OT      -0.834000       15.9994           0
     35538 TIP3     2301     TIP3     H1       HT       0.417000       1.00800           0
     35539 TIP3     2301     TIP3     H2       HT       0.417000       1.00800           0
     35540 TIP3     2302     TIP3     OH2      OT      -0.834000       15.9994           0
     35541 TIP3     2302     TIP3     H1       HT       0.417000       1.00800           0
     35542 TIP3     2302     TIP3     H2       HT       0.417000       1.00800           0
     35543 TIP3     2303     TIP3     OH2      OT      -0.834000       15.9994           0
     35544 TIP3     2303     TIP3     H1       HT       0.417000       1.00800           0
     35545 TIP3     2303     TIP3     H2       HT       0.417000       1.00800           0
     35546 TIP3     2304     TIP3     OH2      OT      -0.834000       15.9994           0
     35547 TIP3     2304     TIP3     H1       HT       0.417000       1.00800           0
     35548 TIP3     2304     TIP3     H2       HT       0.417000       1.00800           0
     35549 TIP3     2305     TIP3     OH2      OT      -0.834000       15.9994           0
     35550 TIP3     2305     TIP3     H1       HT       0.417000       1.00800           0
     35551 TIP3     2305     TIP3     H2       HT       0.417000       1.00800           0
     35552 TIP3     2306     TIP3     OH2      OT      -0.834000       15.9994           0
     35553 TIP3     2306     TIP3     H1       HT       0.417000       1.00800           0
     35554 TIP3     2306     TIP3     H2       HT       0.417000       1.00800           0
     35555 TIP3     2307     TIP3     OH2      OT      -0.834000       15.9994           0
     35556 TIP3     2307     TIP3     H1       HT       0.417000       1.00800           0
     35557 TIP3     2307     TIP3     H2       HT       0.417000       1.00800           0
     35558 TIP3     2308     TIP3     OH2      OT      -0.834000       15.9994           0
     35559 TIP3     2308     TIP3     H1       HT       0.417000       1.00800           0
     35560 TIP3     2308     TIP3     H2       HT       0.417000       1.00800           0
     35561 TIP3     2309     TIP3     OH2      OT      -0.834000       15.9994           0
     35562 TIP3     2309     TIP3     H1       HT       0.417000       1.00800           0
     35563 TIP3     2309     TIP3     H2       HT       0.417000       1.00800           0
     35564 TIP3     2310     TIP3     OH2      OT      -0.834000       15.9994           0
     35565 TIP3     2310     TIP3     H1       HT       0.417000       1.00800           0
     35566 TIP3     2310     TIP3     H2       HT       0.417000       1.00800           0
     35567 TIP3     2311     TIP3     OH2      OT      -0.834000       15.9994           0
     35568 TIP3     2311     TIP3     H1       HT       0.417000       1.00800           0
     35569 TIP3     2311     TIP3     H2       HT       0.417000       1.00800           0
     35570 TIP3     2312     TIP3     OH2      OT      -0.834000       15.9994           0
     35571 TIP3     2312     TIP3     H1       HT       0.417000       1.00800           0
     35572 TIP3     2312     TIP3     H2       HT       0.417000       1.00800           0
     35573 TIP3     2313     TIP3     OH2      OT      -0.834000       15.9994           0
     35574 TIP3     2313     TIP3     H1       HT       0.417000       1.00800           0
     35575 TIP3     2313     TIP3     H2       HT       0.417000       1.00800           0
     35576 TIP3     2314     TIP3     OH2      OT      -0.834000       15.9994           0
     35577 TIP3     2314     TIP3     H1       HT       0.417000       1.00800           0
     35578 TIP3     2314     TIP3     H2       HT       0.417000       1.00800           0
     35579 TIP3     2315     TIP3     OH2      OT      -0.834000       15.9994           0
     35580 TIP3     2315     TIP3     H1       HT       0.417000       1.00800           0
     35581 TIP3     2315     TIP3     H2       HT       0.417000       1.00800           0
     35582 TIP3     2316     TIP3     OH2      OT      -0.834000       15.9994           0
     35583 TIP3     2316     TIP3     H1       HT       0.417000       1.00800           0
     35584 TIP3     2316     TIP3     H2       HT       0.417000       1.00800           0
     35585 TIP3     2317     TIP3     OH2      OT      -0.834000       15.9994           0
     35586 TIP3     2317     TIP3     H1       HT       0.417000       1.00800           0
     35587 TIP3     2317     TIP3     H2       HT       0.417000       1.00800           0
     35588 TIP3     2318     TIP3     OH2      OT      -0.834000       15.9994           0
     35589 TIP3     2318     TIP3     H1       HT       0.417000       1.00800           0
     35590 TIP3     2318     TIP3     H2       HT       0.417000       1.00800           0
     35591 TIP3     2319     TIP3     OH2      OT      -0.834000       15.9994           0
     35592 TIP3     2319     TIP3     H1       HT       0.417000       1.00800           0
     35593 TIP3     2319     TIP3     H2       HT       0.417000       1.00800           0
     35594 TIP3     2320     TIP3     OH2      OT      -0.834000       15.9994           0
     35595 TIP3     2320     TIP3     H1       HT       0.417000       1.00800           0
     35596 TIP3     2320     TIP3     H2       HT       0.417000       1.00800           0
     35597 TIP3     2321     TIP3     OH2      OT      -0.834000       15.9994           0
     35598 TIP3     2321     TIP3     H1       HT       0.417000       1.00800           0
     35599 TIP3     2321     TIP3     H2       HT       0.417000       1.00800           0
     35600 TIP3     2322     TIP3     OH2      OT      -0.834000       15.9994           0
     35601 TIP3     2322     TIP3     H1       HT       0.417000       1.00800           0
     35602 TIP3     2322     TIP3     H2       HT       0.417000       1.00800           0
     35603 TIP3     2323     TIP3     OH2      OT      -0.834000       15.9994           0
     35604 TIP3     2323     TIP3     H1       HT       0.417000       1.00800           0
     35605 TIP3     2323     TIP3     H2       HT       0.417000       1.00800           0
     35606 TIP3     2324     TIP3     OH2      OT      -0.834000       15.9994           0
     35607 TIP3     2324     TIP3     H1       HT       0.417000       1.00800           0
     35608 TIP3     2324     TIP3     H2       HT       0.417000       1.00800           0
     35609 TIP3     2325     TIP3     OH2      OT      -0.834000       15.9994           0
     35610 TIP3     2325     TIP3     H1       HT       0.417000       1.00800           0
     35611 TIP3     2325     TIP3     H2       HT       0.417000       1.00800           0
     35612 TIP3     2326     TIP3     OH2      OT      -0.834000       15.9994           0
     35613 TIP3     2326     TIP3     H1       HT       0.417000       1.00800           0
     35614 TIP3     2326     TIP3     H2       HT       0.417000       1.00800           0
     35615 TIP3     2327     TIP3     OH2      OT      -0.834000       15.9994           0
     35616 TIP3     2327     TIP3     H1       HT       0.417000       1.00800           0
     35617 TIP3     2327     TIP3     H2       HT       0.417000       1.00800           0
     35618 TIP3     2328     TIP3     OH2      OT      -0.834000       15.9994           0
     35619 TIP3     2328     TIP3     H1       HT       0.417000       1.00800           0
     35620 TIP3     2328     TIP3     H2       HT       0.417000       1.00800           0
     35621 TIP3     2329     TIP3     OH2      OT      -0.834000       15.9994           0
     35622 TIP3     2329     TIP3     H1       HT       0.417000       1.00800           0
     35623 TIP3     2329     TIP3     H2       HT       0.417000       1.00800           0
     35624 TIP3     2330     TIP3     OH2      OT      -0.834000       15.9994           0
     35625 TIP3     2330     TIP3     H1       HT       0.417000       1.00800           0
     35626 TIP3     2330     TIP3     H2       HT       0.417000       1.00800           0
     35627 TIP3     2331     TIP3     OH2      OT      -0.834000       15.9994           0
     35628 TIP3     2331     TIP3     H1       HT       0.417000       1.00800           0
     35629 TIP3     2331     TIP3     H2       HT       0.417000       1.00800           0
     35630 TIP3     2332     TIP3     OH2      OT      -0.834000       15.9994           0
     35631 TIP3     2332     TIP3     H1       HT       0.417000       1.00800           0
     35632 TIP3     2332     TIP3     H2       HT       0.417000       1.00800           0
     35633 TIP3     2333     TIP3     OH2      OT      -0.834000       15.9994           0
     35634 TIP3     2333     TIP3     H1       HT       0.417000       1.00800           0
     35635 TIP3     2333     TIP3     H2       HT       0.417000       1.00800           0
     35636 TIP3     2334     TIP3     OH2      OT      -0.834000       15.9994           0
     35637 TIP3     2334     TIP3     H1       HT       0.417000       1.00800           0
     35638 TIP3     2334     TIP3     H2       HT       0.417000       1.00800           0
     35639 TIP3     2335     TIP3     OH2      OT      -0.834000       15.9994           0
     35640 TIP3     2335     TIP3     H1       HT       0.417000       1.00800           0
     35641 TIP3     2335     TIP3     H2       HT       0.417000       1.00800           0
     35642 TIP3     2336     TIP3     OH2      OT      -0.834000       15.9994           0
     35643 TIP3     2336     TIP3     H1       HT       0.417000       1.00800           0
     35644 TIP3     2336     TIP3     H2       HT       0.417000       1.00800           0
     35645 TIP3     2337     TIP3     OH2      OT      -0.834000       15.9994           0
     35646 TIP3     2337     TIP3     H1       HT       0.417000       1.00800           0
     35647 TIP3     2337     TIP3     H2       HT       0.417000       1.00800           0
     35648 TIP3     2338     TIP3     OH2      OT      -0.834000       15.9994           0
     35649 TIP3     2338     TIP3     H1       HT       0.417000       1.00800           0
     35650 TIP3     2338     TIP3     H2       HT       0.417000       1.00800           0
     35651 TIP3     2339     TIP3     OH2      OT      -0.834000       15.9994           0
     35652 TIP3     2339     TIP3     H1       HT       0.417000       1.00800           0
     35653 TIP3     2339     TIP3     H2       HT       0.417000       1.00800           0
     35654 TIP3     2340     TIP3     OH2      OT      -0.834000       15.9994           0
     35655 TIP3     2340     TIP3     H1       HT       0.417000       1.00800           0
     35656 TIP3     2340     TIP3     H2       HT       0.417000       1.00800           0
     35657 TIP3     2341     TIP3     OH2      OT      -0.834000       15.9994           0
     35658 TIP3     2341     TIP3     H1       HT       0.417000       1.00800           0
     35659 TIP3     2341     TIP3     H2       HT       0.417000       1.00800           0
     35660 TIP3     2342     TIP3     OH2      OT      -0.834000       15.9994           0
     35661 TIP3     2342     TIP3     H1       HT       0.417000       1.00800           0
     35662 TIP3     2342     TIP3     H2       HT       0.417000       1.00800           0
     35663 TIP3     2343     TIP3     OH2      OT      -0.834000       15.9994           0
     35664 TIP3     2343     TIP3     H1       HT       0.417000       1.00800           0
     35665 TIP3     2343     TIP3     H2       HT       0.417000       1.00800           0
     35666 TIP3     2344     TIP3     OH2      OT      -0.834000       15.9994           0
     35667 TIP3     2344     TIP3     H1       HT       0.417000       1.00800           0
     35668 TIP3     2344     TIP3     H2       HT       0.417000       1.00800           0
     35669 TIP3     2345     TIP3     OH2      OT      -0.834000       15.9994           0
     35670 TIP3     2345     TIP3     H1       HT       0.417000       1.00800           0
     35671 TIP3     2345     TIP3     H2       HT       0.417000       1.00800           0
     35672 TIP3     2346     TIP3     OH2      OT      -0.834000       15.9994           0
     35673 TIP3     2346     TIP3     H1       HT       0.417000       1.00800           0
     35674 TIP3     2346     TIP3     H2       HT       0.417000       1.00800           0
     35675 TIP3     2347     TIP3     OH2      OT      -0.834000       15.9994           0
     35676 TIP3     2347     TIP3     H1       HT       0.417000       1.00800           0
     35677 TIP3     2347     TIP3     H2       HT       0.417000       1.00800           0
     35678 TIP3     2348     TIP3     OH2      OT      -0.834000       15.9994           0
     35679 TIP3     2348     TIP3     H1       HT       0.417000       1.00800           0
     35680 TIP3     2348     TIP3     H2       HT       0.417000       1.00800           0
     35681 TIP3     2349     TIP3     OH2      OT      -0.834000       15.9994           0
     35682 TIP3     2349     TIP3     H1       HT       0.417000       1.00800           0
     35683 TIP3     2349     TIP3     H2       HT       0.417000       1.00800           0
     35684 TIP3     2350     TIP3     OH2      OT      -0.834000       15.9994           0
     35685 TIP3     2350     TIP3     H1       HT       0.417000       1.00800           0
     35686 TIP3     2350     TIP3     H2       HT       0.417000       1.00800           0
     35687 TIP3     2351     TIP3     OH2      OT      -0.834000       15.9994           0
     35688 TIP3     2351     TIP3     H1       HT       0.417000       1.00800           0
     35689 TIP3     2351     TIP3     H2       HT       0.417000       1.00800           0
     35690 TIP3     2352     TIP3     OH2      OT      -0.834000       15.9994           0
     35691 TIP3     2352     TIP3     H1       HT       0.417000       1.00800           0
     35692 TIP3     2352     TIP3     H2       HT       0.417000       1.00800           0
     35693 TIP3     2353     TIP3     OH2      OT      -0.834000       15.9994           0
     35694 TIP3     2353     TIP3     H1       HT       0.417000       1.00800           0
     35695 TIP3     2353     TIP3     H2       HT       0.417000       1.00800           0
     35696 TIP3     2354     TIP3     OH2      OT      -0.834000       15.9994           0
     35697 TIP3     2354     TIP3     H1       HT       0.417000       1.00800           0
     35698 TIP3     2354     TIP3     H2       HT       0.417000       1.00800           0
     35699 TIP3     2355     TIP3     OH2      OT      -0.834000       15.9994           0
     35700 TIP3     2355     TIP3     H1       HT       0.417000       1.00800           0
     35701 TIP3     2355     TIP3     H2       HT       0.417000       1.00800           0
     35702 TIP3     2356     TIP3     OH2      OT      -0.834000       15.9994           0
     35703 TIP3     2356     TIP3     H1       HT       0.417000       1.00800           0
     35704 TIP3     2356     TIP3     H2       HT       0.417000       1.00800           0
     35705 TIP3     2357     TIP3     OH2      OT      -0.834000       15.9994           0
     35706 TIP3     2357     TIP3     H1       HT       0.417000       1.00800           0
     35707 TIP3     2357     TIP3     H2       HT       0.417000       1.00800           0
     35708 TIP3     2358     TIP3     OH2      OT      -0.834000       15.9994           0
     35709 TIP3     2358     TIP3     H1       HT       0.417000       1.00800           0
     35710 TIP3     2358     TIP3     H2       HT       0.417000       1.00800           0
     35711 TIP3     2359     TIP3     OH2      OT      -0.834000       15.9994           0
     35712 TIP3     2359     TIP3     H1       HT       0.417000       1.00800           0
     35713 TIP3     2359     TIP3     H2       HT       0.417000       1.00800           0
     35714 TIP3     2360     TIP3     OH2      OT      -0.834000       15.9994           0
     35715 TIP3     2360     TIP3     H1       HT       0.417000       1.00800           0
     35716 TIP3     2360     TIP3     H2       HT       0.417000       1.00800           0
     35717 TIP3     2361     TIP3     OH2      OT      -0.834000       15.9994           0
     35718 TIP3     2361     TIP3     H1       HT       0.417000       1.00800           0
     35719 TIP3     2361     TIP3     H2       HT       0.417000       1.00800           0
     35720 TIP3     2362     TIP3     OH2      OT      -0.834000       15.9994           0
     35721 TIP3     2362     TIP3     H1       HT       0.417000       1.00800           0
     35722 TIP3     2362     TIP3     H2       HT       0.417000       1.00800           0
     35723 TIP3     2363     TIP3     OH2      OT      -0.834000       15.9994           0
     35724 TIP3     2363     TIP3     H1       HT       0.417000       1.00800           0
     35725 TIP3     2363     TIP3     H2       HT       0.417000       1.00800           0
     35726 TIP3     2364     TIP3     OH2      OT      -0.834000       15.9994           0
     35727 TIP3     2364     TIP3     H1       HT       0.417000       1.00800           0
     35728 TIP3     2364     TIP3     H2       HT       0.417000       1.00800           0
     35729 TIP3     2365     TIP3     OH2      OT      -0.834000       15.9994           0
     35730 TIP3     2365     TIP3     H1       HT       0.417000       1.00800           0
     35731 TIP3     2365     TIP3     H2       HT       0.417000       1.00800           0
     35732 TIP3     2366     TIP3     OH2      OT      -0.834000       15.9994           0
     35733 TIP3     2366     TIP3     H1       HT       0.417000       1.00800           0
     35734 TIP3     2366     TIP3     H2       HT       0.417000       1.00800           0
     35735 TIP3     2367     TIP3     OH2      OT      -0.834000       15.9994           0
     35736 TIP3     2367     TIP3     H1       HT       0.417000       1.00800           0
     35737 TIP3     2367     TIP3     H2       HT       0.417000       1.00800           0
     35738 TIP3     2368     TIP3     OH2      OT      -0.834000       15.9994           0
     35739 TIP3     2368     TIP3     H1       HT       0.417000       1.00800           0
     35740 TIP3     2368     TIP3     H2       HT       0.417000       1.00800           0
     35741 TIP3     2369     TIP3     OH2      OT      -0.834000       15.9994           0
     35742 TIP3     2369     TIP3     H1       HT       0.417000       1.00800           0
     35743 TIP3     2369     TIP3     H2       HT       0.417000       1.00800           0
     35744 TIP3     2370     TIP3     OH2      OT      -0.834000       15.9994           0
     35745 TIP3     2370     TIP3     H1       HT       0.417000       1.00800           0
     35746 TIP3     2370     TIP3     H2       HT       0.417000       1.00800           0
     35747 TIP3     2371     TIP3     OH2      OT      -0.834000       15.9994           0
     35748 TIP3     2371     TIP3     H1       HT       0.417000       1.00800           0
     35749 TIP3     2371     TIP3     H2       HT       0.417000       1.00800           0
     35750 TIP3     2372     TIP3     OH2      OT      -0.834000       15.9994           0
     35751 TIP3     2372     TIP3     H1       HT       0.417000       1.00800           0
     35752 TIP3     2372     TIP3     H2       HT       0.417000       1.00800           0
     35753 TIP3     2373     TIP3     OH2      OT      -0.834000       15.9994           0
     35754 TIP3     2373     TIP3     H1       HT       0.417000       1.00800           0
     35755 TIP3     2373     TIP3     H2       HT       0.417000       1.00800           0
     35756 TIP3     2374     TIP3     OH2      OT      -0.834000       15.9994           0
     35757 TIP3     2374     TIP3     H1       HT       0.417000       1.00800           0
     35758 TIP3     2374     TIP3     H2       HT       0.417000       1.00800           0
     35759 TIP3     2375     TIP3     OH2      OT      -0.834000       15.9994           0
     35760 TIP3     2375     TIP3     H1       HT       0.417000       1.00800           0
     35761 TIP3     2375     TIP3     H2       HT       0.417000       1.00800           0
     35762 TIP3     2376     TIP3     OH2      OT      -0.834000       15.9994           0
     35763 TIP3     2376     TIP3     H1       HT       0.417000       1.00800           0
     35764 TIP3     2376     TIP3     H2       HT       0.417000       1.00800           0
     35765 TIP3     2377     TIP3     OH2      OT      -0.834000       15.9994           0
     35766 TIP3     2377     TIP3     H1       HT       0.417000       1.00800           0
     35767 TIP3     2377     TIP3     H2       HT       0.417000       1.00800           0
     35768 TIP3     2378     TIP3     OH2      OT      -0.834000       15.9994           0
     35769 TIP3     2378     TIP3     H1       HT       0.417000       1.00800           0
     35770 TIP3     2378     TIP3     H2       HT       0.417000       1.00800           0
     35771 TIP3     2379     TIP3     OH2      OT      -0.834000       15.9994           0
     35772 TIP3     2379     TIP3     H1       HT       0.417000       1.00800           0
     35773 TIP3     2379     TIP3     H2       HT       0.417000       1.00800           0
     35774 TIP3     2380     TIP3     OH2      OT      -0.834000       15.9994           0
     35775 TIP3     2380     TIP3     H1       HT       0.417000       1.00800           0
     35776 TIP3     2380     TIP3     H2       HT       0.417000       1.00800           0
     35777 TIP3     2381     TIP3     OH2      OT      -0.834000       15.9994           0
     35778 TIP3     2381     TIP3     H1       HT       0.417000       1.00800           0
     35779 TIP3     2381     TIP3     H2       HT       0.417000       1.00800           0
     35780 TIP3     2382     TIP3     OH2      OT      -0.834000       15.9994           0
     35781 TIP3     2382     TIP3     H1       HT       0.417000       1.00800           0
     35782 TIP3     2382     TIP3     H2       HT       0.417000       1.00800           0
     35783 TIP3     2383     TIP3     OH2      OT      -0.834000       15.9994           0
     35784 TIP3     2383     TIP3     H1       HT       0.417000       1.00800           0
     35785 TIP3     2383     TIP3     H2       HT       0.417000       1.00800           0
     35786 TIP3     2384     TIP3     OH2      OT      -0.834000       15.9994           0
     35787 TIP3     2384     TIP3     H1       HT       0.417000       1.00800           0
     35788 TIP3     2384     TIP3     H2       HT       0.417000       1.00800           0
     35789 TIP3     2385     TIP3     OH2      OT      -0.834000       15.9994           0
     35790 TIP3     2385     TIP3     H1       HT       0.417000       1.00800           0
     35791 TIP3     2385     TIP3     H2       HT       0.417000       1.00800           0
     35792 TIP3     2386     TIP3     OH2      OT      -0.834000       15.9994           0
     35793 TIP3     2386     TIP3     H1       HT       0.417000       1.00800           0
     35794 TIP3     2386     TIP3     H2       HT       0.417000       1.00800           0
     35795 TIP3     2387     TIP3     OH2      OT      -0.834000       15.9994           0
     35796 TIP3     2387     TIP3     H1       HT       0.417000       1.00800           0
     35797 TIP3     2387     TIP3     H2       HT       0.417000       1.00800           0
     35798 TIP3     2388     TIP3     OH2      OT      -0.834000       15.9994           0
     35799 TIP3     2388     TIP3     H1       HT       0.417000       1.00800           0
     35800 TIP3     2388     TIP3     H2       HT       0.417000       1.00800           0
     35801 TIP3     2389     TIP3     OH2      OT      -0.834000       15.9994           0
     35802 TIP3     2389     TIP3     H1       HT       0.417000       1.00800           0
     35803 TIP3     2389     TIP3     H2       HT       0.417000       1.00800           0
     35804 TIP3     2390     TIP3     OH2      OT      -0.834000       15.9994           0
     35805 TIP3     2390     TIP3     H1       HT       0.417000       1.00800           0
     35806 TIP3     2390     TIP3     H2       HT       0.417000       1.00800           0
     35807 TIP3     2391     TIP3     OH2      OT      -0.834000       15.9994           0
     35808 TIP3     2391     TIP3     H1       HT       0.417000       1.00800           0
     35809 TIP3     2391     TIP3     H2       HT       0.417000       1.00800           0
     35810 TIP3     2392     TIP3     OH2      OT      -0.834000       15.9994           0
     35811 TIP3     2392     TIP3     H1       HT       0.417000       1.00800           0
     35812 TIP3     2392     TIP3     H2       HT       0.417000       1.00800           0
     35813 TIP3     2393     TIP3     OH2      OT      -0.834000       15.9994           0
     35814 TIP3     2393     TIP3     H1       HT       0.417000       1.00800           0
     35815 TIP3     2393     TIP3     H2       HT       0.417000       1.00800           0
     35816 TIP3     2394     TIP3     OH2      OT      -0.834000       15.9994           0
     35817 TIP3     2394     TIP3     H1       HT       0.417000       1.00800           0
     35818 TIP3     2394     TIP3     H2       HT       0.417000       1.00800           0
     35819 TIP3     2395     TIP3     OH2      OT      -0.834000       15.9994           0
     35820 TIP3     2395     TIP3     H1       HT       0.417000       1.00800           0
     35821 TIP3     2395     TIP3     H2       HT       0.417000       1.00800           0
     35822 TIP3     2396     TIP3     OH2      OT      -0.834000       15.9994           0
     35823 TIP3     2396     TIP3     H1       HT       0.417000       1.00800           0
     35824 TIP3     2396     TIP3     H2       HT       0.417000       1.00800           0
     35825 TIP3     2397     TIP3     OH2      OT      -0.834000       15.9994           0
     35826 TIP3     2397     TIP3     H1       HT       0.417000       1.00800           0
     35827 TIP3     2397     TIP3     H2       HT       0.417000       1.00800           0
     35828 TIP3     2398     TIP3     OH2      OT      -0.834000       15.9994           0
     35829 TIP3     2398     TIP3     H1       HT       0.417000       1.00800           0
     35830 TIP3     2398     TIP3     H2       HT       0.417000       1.00800           0
     35831 TIP3     2399     TIP3     OH2      OT      -0.834000       15.9994           0
     35832 TIP3     2399     TIP3     H1       HT       0.417000       1.00800           0
     35833 TIP3     2399     TIP3     H2       HT       0.417000       1.00800           0
     35834 TIP3     2400     TIP3     OH2      OT      -0.834000       15.9994           0
     35835 TIP3     2400     TIP3     H1       HT       0.417000       1.00800           0
     35836 TIP3     2400     TIP3     H2       HT       0.417000       1.00800           0
     35837 TIP3     2401     TIP3     OH2      OT      -0.834000       15.9994           0
     35838 TIP3     2401     TIP3     H1       HT       0.417000       1.00800           0
     35839 TIP3     2401     TIP3     H2       HT       0.417000       1.00800           0
     35840 TIP3     2402     TIP3     OH2      OT      -0.834000       15.9994           0
     35841 TIP3     2402     TIP3     H1       HT       0.417000       1.00800           0
     35842 TIP3     2402     TIP3     H2       HT       0.417000       1.00800           0
     35843 TIP3     2403     TIP3     OH2      OT      -0.834000       15.9994           0
     35844 TIP3     2403     TIP3     H1       HT       0.417000       1.00800           0
     35845 TIP3     2403     TIP3     H2       HT       0.417000       1.00800           0
     35846 TIP3     2404     TIP3     OH2      OT      -0.834000       15.9994           0
     35847 TIP3     2404     TIP3     H1       HT       0.417000       1.00800           0
     35848 TIP3     2404     TIP3     H2       HT       0.417000       1.00800           0
     35849 TIP3     2405     TIP3     OH2      OT      -0.834000       15.9994           0
     35850 TIP3     2405     TIP3     H1       HT       0.417000       1.00800           0
     35851 TIP3     2405     TIP3     H2       HT       0.417000       1.00800           0
     35852 TIP3     2406     TIP3     OH2      OT      -0.834000       15.9994           0
     35853 TIP3     2406     TIP3     H1       HT       0.417000       1.00800           0
     35854 TIP3     2406     TIP3     H2       HT       0.417000       1.00800           0
     35855 TIP3     2407     TIP3     OH2      OT      -0.834000       15.9994           0
     35856 TIP3     2407     TIP3     H1       HT       0.417000       1.00800           0
     35857 TIP3     2407     TIP3     H2       HT       0.417000       1.00800           0
     35858 TIP3     2408     TIP3     OH2      OT      -0.834000       15.9994           0
     35859 TIP3     2408     TIP3     H1       HT       0.417000       1.00800           0
     35860 TIP3     2408     TIP3     H2       HT       0.417000       1.00800           0
     35861 TIP3     2409     TIP3     OH2      OT      -0.834000       15.9994           0
     35862 TIP3     2409     TIP3     H1       HT       0.417000       1.00800           0
     35863 TIP3     2409     TIP3     H2       HT       0.417000       1.00800           0
     35864 TIP3     2410     TIP3     OH2      OT      -0.834000       15.9994           0
     35865 TIP3     2410     TIP3     H1       HT       0.417000       1.00800           0
     35866 TIP3     2410     TIP3     H2       HT       0.417000       1.00800           0
     35867 TIP3     2411     TIP3     OH2      OT      -0.834000       15.9994           0
     35868 TIP3     2411     TIP3     H1       HT       0.417000       1.00800           0
     35869 TIP3     2411     TIP3     H2       HT       0.417000       1.00800           0
     35870 TIP3     2412     TIP3     OH2      OT      -0.834000       15.9994           0
     35871 TIP3     2412     TIP3     H1       HT       0.417000       1.00800           0
     35872 TIP3     2412     TIP3     H2       HT       0.417000       1.00800           0
     35873 TIP3     2413     TIP3     OH2      OT      -0.834000       15.9994           0
     35874 TIP3     2413     TIP3     H1       HT       0.417000       1.00800           0
     35875 TIP3     2413     TIP3     H2       HT       0.417000       1.00800           0
     35876 TIP3     2414     TIP3     OH2      OT      -0.834000       15.9994           0
     35877 TIP3     2414     TIP3     H1       HT       0.417000       1.00800           0
     35878 TIP3     2414     TIP3     H2       HT       0.417000       1.00800           0
     35879 TIP3     2415     TIP3     OH2      OT      -0.834000       15.9994           0
     35880 TIP3     2415     TIP3     H1       HT       0.417000       1.00800           0
     35881 TIP3     2415     TIP3     H2       HT       0.417000       1.00800           0
     35882 TIP3     2416     TIP3     OH2      OT      -0.834000       15.9994           0
     35883 TIP3     2416     TIP3     H1       HT       0.417000       1.00800           0
     35884 TIP3     2416     TIP3     H2       HT       0.417000       1.00800           0
     35885 TIP3     2417     TIP3     OH2      OT      -0.834000       15.9994           0
     35886 TIP3     2417     TIP3     H1       HT       0.417000       1.00800           0
     35887 TIP3     2417     TIP3     H2       HT       0.417000       1.00800           0
     35888 TIP3     2418     TIP3     OH2      OT      -0.834000       15.9994           0
     35889 TIP3     2418     TIP3     H1       HT       0.417000       1.00800           0
     35890 TIP3     2418     TIP3     H2       HT       0.417000       1.00800           0
     35891 TIP3     2419     TIP3     OH2      OT      -0.834000       15.9994           0
     35892 TIP3     2419     TIP3     H1       HT       0.417000       1.00800           0
     35893 TIP3     2419     TIP3     H2       HT       0.417000       1.00800           0
     35894 TIP3     2420     TIP3     OH2      OT      -0.834000       15.9994           0
     35895 TIP3     2420     TIP3     H1       HT       0.417000       1.00800           0
     35896 TIP3     2420     TIP3     H2       HT       0.417000       1.00800           0
     35897 TIP3     2421     TIP3     OH2      OT      -0.834000       15.9994           0
     35898 TIP3     2421     TIP3     H1       HT       0.417000       1.00800           0
     35899 TIP3     2421     TIP3     H2       HT       0.417000       1.00800           0
     35900 TIP3     2422     TIP3     OH2      OT      -0.834000       15.9994           0
     35901 TIP3     2422     TIP3     H1       HT       0.417000       1.00800           0
     35902 TIP3     2422     TIP3     H2       HT       0.417000       1.00800           0
     35903 TIP3     2423     TIP3     OH2      OT      -0.834000       15.9994           0
     35904 TIP3     2423     TIP3     H1       HT       0.417000       1.00800           0
     35905 TIP3     2423     TIP3     H2       HT       0.417000       1.00800           0
     35906 TIP3     2424     TIP3     OH2      OT      -0.834000       15.9994           0
     35907 TIP3     2424     TIP3     H1       HT       0.417000       1.00800           0
     35908 TIP3     2424     TIP3     H2       HT       0.417000       1.00800           0
     35909 TIP3     2425     TIP3     OH2      OT      -0.834000       15.9994           0
     35910 TIP3     2425     TIP3     H1       HT       0.417000       1.00800           0
     35911 TIP3     2425     TIP3     H2       HT       0.417000       1.00800           0
     35912 TIP3     2426     TIP3     OH2      OT      -0.834000       15.9994           0
     35913 TIP3     2426     TIP3     H1       HT       0.417000       1.00800           0
     35914 TIP3     2426     TIP3     H2       HT       0.417000       1.00800           0
     35915 TIP3     2427     TIP3     OH2      OT      -0.834000       15.9994           0
     35916 TIP3     2427     TIP3     H1       HT       0.417000       1.00800           0
     35917 TIP3     2427     TIP3     H2       HT       0.417000       1.00800           0
     35918 TIP3     2428     TIP3     OH2      OT      -0.834000       15.9994           0
     35919 TIP3     2428     TIP3     H1       HT       0.417000       1.00800           0
     35920 TIP3     2428     TIP3     H2       HT       0.417000       1.00800           0
     35921 TIP3     2429     TIP3     OH2      OT      -0.834000       15.9994           0
     35922 TIP3     2429     TIP3     H1       HT       0.417000       1.00800           0
     35923 TIP3     2429     TIP3     H2       HT       0.417000       1.00800           0
     35924 TIP3     2430     TIP3     OH2      OT      -0.834000       15.9994           0
     35925 TIP3     2430     TIP3     H1       HT       0.417000       1.00800           0
     35926 TIP3     2430     TIP3     H2       HT       0.417000       1.00800           0
     35927 TIP3     2431     TIP3     OH2      OT      -0.834000       15.9994           0
     35928 TIP3     2431     TIP3     H1       HT       0.417000       1.00800           0
     35929 TIP3     2431     TIP3     H2       HT       0.417000       1.00800           0
     35930 TIP3     2432     TIP3     OH2      OT      -0.834000       15.9994           0
     35931 TIP3     2432     TIP3     H1       HT       0.417000       1.00800           0
     35932 TIP3     2432     TIP3     H2       HT       0.417000       1.00800           0
     35933 TIP3     2433     TIP3     OH2      OT      -0.834000       15.9994           0
     35934 TIP3     2433     TIP3     H1       HT       0.417000       1.00800           0
     35935 TIP3     2433     TIP3     H2       HT       0.417000       1.00800           0
     35936 TIP3     2434     TIP3     OH2      OT      -0.834000       15.9994           0
     35937 TIP3     2434     TIP3     H1       HT       0.417000       1.00800           0
     35938 TIP3     2434     TIP3     H2       HT       0.417000       1.00800           0
     35939 TIP3     2435     TIP3     OH2      OT      -0.834000       15.9994           0
     35940 TIP3     2435     TIP3     H1       HT       0.417000       1.00800           0
     35941 TIP3     2435     TIP3     H2       HT       0.417000       1.00800           0
     35942 TIP3     2436     TIP3     OH2      OT      -0.834000       15.9994           0
     35943 TIP3     2436     TIP3     H1       HT       0.417000       1.00800           0
     35944 TIP3     2436     TIP3     H2       HT       0.417000       1.00800           0
     35945 TIP3     2437     TIP3     OH2      OT      -0.834000       15.9994           0
     35946 TIP3     2437     TIP3     H1       HT       0.417000       1.00800           0
     35947 TIP3     2437     TIP3     H2       HT       0.417000       1.00800           0
     35948 TIP3     2438     TIP3     OH2      OT      -0.834000       15.9994           0
     35949 TIP3     2438     TIP3     H1       HT       0.417000       1.00800           0
     35950 TIP3     2438     TIP3     H2       HT       0.417000       1.00800           0
     35951 TIP3     2439     TIP3     OH2      OT      -0.834000       15.9994           0
     35952 TIP3     2439     TIP3     H1       HT       0.417000       1.00800           0
     35953 TIP3     2439     TIP3     H2       HT       0.417000       1.00800           0
     35954 TIP3     2440     TIP3     OH2      OT      -0.834000       15.9994           0
     35955 TIP3     2440     TIP3     H1       HT       0.417000       1.00800           0
     35956 TIP3     2440     TIP3     H2       HT       0.417000       1.00800           0
     35957 TIP3     2441     TIP3     OH2      OT      -0.834000       15.9994           0
     35958 TIP3     2441     TIP3     H1       HT       0.417000       1.00800           0
     35959 TIP3     2441     TIP3     H2       HT       0.417000       1.00800           0
     35960 TIP3     2442     TIP3     OH2      OT      -0.834000       15.9994           0
     35961 TIP3     2442     TIP3     H1       HT       0.417000       1.00800           0
     35962 TIP3     2442     TIP3     H2       HT       0.417000       1.00800           0
     35963 TIP3     2443     TIP3     OH2      OT      -0.834000       15.9994           0
     35964 TIP3     2443     TIP3     H1       HT       0.417000       1.00800           0
     35965 TIP3     2443     TIP3     H2       HT       0.417000       1.00800           0
     35966 TIP3     2444     TIP3     OH2      OT      -0.834000       15.9994           0
     35967 TIP3     2444     TIP3     H1       HT       0.417000       1.00800           0
     35968 TIP3     2444     TIP3     H2       HT       0.417000       1.00800           0
     35969 TIP3     2445     TIP3     OH2      OT      -0.834000       15.9994           0
     35970 TIP3     2445     TIP3     H1       HT       0.417000       1.00800           0
     35971 TIP3     2445     TIP3     H2       HT       0.417000       1.00800           0
     35972 TIP3     2446     TIP3     OH2      OT      -0.834000       15.9994           0
     35973 TIP3     2446     TIP3     H1       HT       0.417000       1.00800           0
     35974 TIP3     2446     TIP3     H2       HT       0.417000       1.00800           0
     35975 TIP3     2447     TIP3     OH2      OT      -0.834000       15.9994           0
     35976 TIP3     2447     TIP3     H1       HT       0.417000       1.00800           0
     35977 TIP3     2447     TIP3     H2       HT       0.417000       1.00800           0
     35978 TIP3     2448     TIP3     OH2      OT      -0.834000       15.9994           0
     35979 TIP3     2448     TIP3     H1       HT       0.417000       1.00800           0
     35980 TIP3     2448     TIP3     H2       HT       0.417000       1.00800           0
     35981 TIP3     2449     TIP3     OH2      OT      -0.834000       15.9994           0
     35982 TIP3     2449     TIP3     H1       HT       0.417000       1.00800           0
     35983 TIP3     2449     TIP3     H2       HT       0.417000       1.00800           0
     35984 TIP3     2450     TIP3     OH2      OT      -0.834000       15.9994           0
     35985 TIP3     2450     TIP3     H1       HT       0.417000       1.00800           0
     35986 TIP3     2450     TIP3     H2       HT       0.417000       1.00800           0
     35987 TIP3     2451     TIP3     OH2      OT      -0.834000       15.9994           0
     35988 TIP3     2451     TIP3     H1       HT       0.417000       1.00800           0
     35989 TIP3     2451     TIP3     H2       HT       0.417000       1.00800           0
     35990 TIP3     2452     TIP3     OH2      OT      -0.834000       15.9994           0
     35991 TIP3     2452     TIP3     H1       HT       0.417000       1.00800           0
     35992 TIP3     2452     TIP3     H2       HT       0.417000       1.00800           0
     35993 TIP3     2453     TIP3     OH2      OT      -0.834000       15.9994           0
     35994 TIP3     2453     TIP3     H1       HT       0.417000       1.00800           0
     35995 TIP3     2453     TIP3     H2       HT       0.417000       1.00800           0
     35996 TIP3     2454     TIP3     OH2      OT      -0.834000       15.9994           0
     35997 TIP3     2454     TIP3     H1       HT       0.417000       1.00800           0
     35998 TIP3     2454     TIP3     H2       HT       0.417000       1.00800           0
     35999 TIP3     2455     TIP3     OH2      OT      -0.834000       15.9994           0
     36000 TIP3     2455     TIP3     H1       HT       0.417000       1.00800           0
     36001 TIP3     2455     TIP3     H2       HT       0.417000       1.00800           0
     36002 TIP3     2456     TIP3     OH2      OT      -0.834000       15.9994           0
     36003 TIP3     2456     TIP3     H1       HT       0.417000       1.00800           0
     36004 TIP3     2456     TIP3     H2       HT       0.417000       1.00800           0
     36005 TIP3     2457     TIP3     OH2      OT      -0.834000       15.9994           0
     36006 TIP3     2457     TIP3     H1       HT       0.417000       1.00800           0
     36007 TIP3     2457     TIP3     H2       HT       0.417000       1.00800           0
     36008 TIP3     2458     TIP3     OH2      OT      -0.834000       15.9994           0
     36009 TIP3     2458     TIP3     H1       HT       0.417000       1.00800           0
     36010 TIP3     2458     TIP3     H2       HT       0.417000       1.00800           0
     36011 TIP3     2459     TIP3     OH2      OT      -0.834000       15.9994           0
     36012 TIP3     2459     TIP3     H1       HT       0.417000       1.00800           0
     36013 TIP3     2459     TIP3     H2       HT       0.417000       1.00800           0
     36014 TIP3     2460     TIP3     OH2      OT      -0.834000       15.9994           0
     36015 TIP3     2460     TIP3     H1       HT       0.417000       1.00800           0
     36016 TIP3     2460     TIP3     H2       HT       0.417000       1.00800           0
     36017 TIP3     2461     TIP3     OH2      OT      -0.834000       15.9994           0
     36018 TIP3     2461     TIP3     H1       HT       0.417000       1.00800           0
     36019 TIP3     2461     TIP3     H2       HT       0.417000       1.00800           0
     36020 TIP3     2462     TIP3     OH2      OT      -0.834000       15.9994           0
     36021 TIP3     2462     TIP3     H1       HT       0.417000       1.00800           0
     36022 TIP3     2462     TIP3     H2       HT       0.417000       1.00800           0
     36023 TIP3     2463     TIP3     OH2      OT      -0.834000       15.9994           0
     36024 TIP3     2463     TIP3     H1       HT       0.417000       1.00800           0
     36025 TIP3     2463     TIP3     H2       HT       0.417000       1.00800           0
     36026 TIP3     2464     TIP3     OH2      OT      -0.834000       15.9994           0
     36027 TIP3     2464     TIP3     H1       HT       0.417000       1.00800           0
     36028 TIP3     2464     TIP3     H2       HT       0.417000       1.00800           0
     36029 TIP3     2465     TIP3     OH2      OT      -0.834000       15.9994           0
     36030 TIP3     2465     TIP3     H1       HT       0.417000       1.00800           0
     36031 TIP3     2465     TIP3     H2       HT       0.417000       1.00800           0
     36032 TIP3     2466     TIP3     OH2      OT      -0.834000       15.9994           0
     36033 TIP3     2466     TIP3     H1       HT       0.417000       1.00800           0
     36034 TIP3     2466     TIP3     H2       HT       0.417000       1.00800           0
     36035 TIP3     2467     TIP3     OH2      OT      -0.834000       15.9994           0
     36036 TIP3     2467     TIP3     H1       HT       0.417000       1.00800           0
     36037 TIP3     2467     TIP3     H2       HT       0.417000       1.00800           0
     36038 TIP3     2468     TIP3     OH2      OT      -0.834000       15.9994           0
     36039 TIP3     2468     TIP3     H1       HT       0.417000       1.00800           0
     36040 TIP3     2468     TIP3     H2       HT       0.417000       1.00800           0
     36041 TIP3     2469     TIP3     OH2      OT      -0.834000       15.9994           0
     36042 TIP3     2469     TIP3     H1       HT       0.417000       1.00800           0
     36043 TIP3     2469     TIP3     H2       HT       0.417000       1.00800           0
     36044 TIP3     2470     TIP3     OH2      OT      -0.834000       15.9994           0
     36045 TIP3     2470     TIP3     H1       HT       0.417000       1.00800           0
     36046 TIP3     2470     TIP3     H2       HT       0.417000       1.00800           0
     36047 TIP3     2471     TIP3     OH2      OT      -0.834000       15.9994           0
     36048 TIP3     2471     TIP3     H1       HT       0.417000       1.00800           0
     36049 TIP3     2471     TIP3     H2       HT       0.417000       1.00800           0
     36050 TIP3     2472     TIP3     OH2      OT      -0.834000       15.9994           0
     36051 TIP3     2472     TIP3     H1       HT       0.417000       1.00800           0
     36052 TIP3     2472     TIP3     H2       HT       0.417000       1.00800           0
     36053 TIP3     2473     TIP3     OH2      OT      -0.834000       15.9994           0
     36054 TIP3     2473     TIP3     H1       HT       0.417000       1.00800           0
     36055 TIP3     2473     TIP3     H2       HT       0.417000       1.00800           0
     36056 TIP3     2474     TIP3     OH2      OT      -0.834000       15.9994           0
     36057 TIP3     2474     TIP3     H1       HT       0.417000       1.00800           0
     36058 TIP3     2474     TIP3     H2       HT       0.417000       1.00800           0
     36059 TIP3     2475     TIP3     OH2      OT      -0.834000       15.9994           0
     36060 TIP3     2475     TIP3     H1       HT       0.417000       1.00800           0
     36061 TIP3     2475     TIP3     H2       HT       0.417000       1.00800           0
     36062 TIP3     2476     TIP3     OH2      OT      -0.834000       15.9994           0
     36063 TIP3     2476     TIP3     H1       HT       0.417000       1.00800           0
     36064 TIP3     2476     TIP3     H2       HT       0.417000       1.00800           0
     36065 TIP3     2477     TIP3     OH2      OT      -0.834000       15.9994           0
     36066 TIP3     2477     TIP3     H1       HT       0.417000       1.00800           0
     36067 TIP3     2477     TIP3     H2       HT       0.417000       1.00800           0
     36068 TIP3     2478     TIP3     OH2      OT      -0.834000       15.9994           0
     36069 TIP3     2478     TIP3     H1       HT       0.417000       1.00800           0
     36070 TIP3     2478     TIP3     H2       HT       0.417000       1.00800           0
     36071 TIP3     2479     TIP3     OH2      OT      -0.834000       15.9994           0
     36072 TIP3     2479     TIP3     H1       HT       0.417000       1.00800           0
     36073 TIP3     2479     TIP3     H2       HT       0.417000       1.00800           0
     36074 TIP3     2480     TIP3     OH2      OT      -0.834000       15.9994           0
     36075 TIP3     2480     TIP3     H1       HT       0.417000       1.00800           0
     36076 TIP3     2480     TIP3     H2       HT       0.417000       1.00800           0
     36077 TIP3     2481     TIP3     OH2      OT      -0.834000       15.9994           0
     36078 TIP3     2481     TIP3     H1       HT       0.417000       1.00800           0
     36079 TIP3     2481     TIP3     H2       HT       0.417000       1.00800           0
     36080 TIP3     2482     TIP3     OH2      OT      -0.834000       15.9994           0
     36081 TIP3     2482     TIP3     H1       HT       0.417000       1.00800           0
     36082 TIP3     2482     TIP3     H2       HT       0.417000       1.00800           0
     36083 TIP3     2483     TIP3     OH2      OT      -0.834000       15.9994           0
     36084 TIP3     2483     TIP3     H1       HT       0.417000       1.00800           0
     36085 TIP3     2483     TIP3     H2       HT       0.417000       1.00800           0
     36086 TIP3     2484     TIP3     OH2      OT      -0.834000       15.9994           0
     36087 TIP3     2484     TIP3     H1       HT       0.417000       1.00800           0
     36088 TIP3     2484     TIP3     H2       HT       0.417000       1.00800           0
     36089 TIP3     2485     TIP3     OH2      OT      -0.834000       15.9994           0
     36090 TIP3     2485     TIP3     H1       HT       0.417000       1.00800           0
     36091 TIP3     2485     TIP3     H2       HT       0.417000       1.00800           0
     36092 TIP3     2486     TIP3     OH2      OT      -0.834000       15.9994           0
     36093 TIP3     2486     TIP3     H1       HT       0.417000       1.00800           0
     36094 TIP3     2486     TIP3     H2       HT       0.417000       1.00800           0
     36095 TIP3     2487     TIP3     OH2      OT      -0.834000       15.9994           0
     36096 TIP3     2487     TIP3     H1       HT       0.417000       1.00800           0
     36097 TIP3     2487     TIP3     H2       HT       0.417000       1.00800           0
     36098 TIP3     2488     TIP3     OH2      OT      -0.834000       15.9994           0
     36099 TIP3     2488     TIP3     H1       HT       0.417000       1.00800           0
     36100 TIP3     2488     TIP3     H2       HT       0.417000       1.00800           0
     36101 TIP3     2489     TIP3     OH2      OT      -0.834000       15.9994           0
     36102 TIP3     2489     TIP3     H1       HT       0.417000       1.00800           0
     36103 TIP3     2489     TIP3     H2       HT       0.417000       1.00800           0
     36104 TIP3     2490     TIP3     OH2      OT      -0.834000       15.9994           0
     36105 TIP3     2490     TIP3     H1       HT       0.417000       1.00800           0
     36106 TIP3     2490     TIP3     H2       HT       0.417000       1.00800           0
     36107 TIP3     2491     TIP3     OH2      OT      -0.834000       15.9994           0
     36108 TIP3     2491     TIP3     H1       HT       0.417000       1.00800           0
     36109 TIP3     2491     TIP3     H2       HT       0.417000       1.00800           0
     36110 TIP3     2492     TIP3     OH2      OT      -0.834000       15.9994           0
     36111 TIP3     2492     TIP3     H1       HT       0.417000       1.00800           0
     36112 TIP3     2492     TIP3     H2       HT       0.417000       1.00800           0
     36113 TIP3     2493     TIP3     OH2      OT      -0.834000       15.9994           0
     36114 TIP3     2493     TIP3     H1       HT       0.417000       1.00800           0
     36115 TIP3     2493     TIP3     H2       HT       0.417000       1.00800           0
     36116 TIP3     2494     TIP3     OH2      OT      -0.834000       15.9994           0
     36117 TIP3     2494     TIP3     H1       HT       0.417000       1.00800           0
     36118 TIP3     2494     TIP3     H2       HT       0.417000       1.00800           0
     36119 TIP3     2495     TIP3     OH2      OT      -0.834000       15.9994           0
     36120 TIP3     2495     TIP3     H1       HT       0.417000       1.00800           0
     36121 TIP3     2495     TIP3     H2       HT       0.417000       1.00800           0
     36122 TIP3     2496     TIP3     OH2      OT      -0.834000       15.9994           0
     36123 TIP3     2496     TIP3     H1       HT       0.417000       1.00800           0
     36124 TIP3     2496     TIP3     H2       HT       0.417000       1.00800           0
     36125 TIP3     2497     TIP3     OH2      OT      -0.834000       15.9994           0
     36126 TIP3     2497     TIP3     H1       HT       0.417000       1.00800           0
     36127 TIP3     2497     TIP3     H2       HT       0.417000       1.00800           0
     36128 TIP3     2498     TIP3     OH2      OT      -0.834000       15.9994           0
     36129 TIP3     2498     TIP3     H1       HT       0.417000       1.00800           0
     36130 TIP3     2498     TIP3     H2       HT       0.417000       1.00800           0
     36131 TIP3     2499     TIP3     OH2      OT      -0.834000       15.9994           0
     36132 TIP3     2499     TIP3     H1       HT       0.417000       1.00800           0
     36133 TIP3     2499     TIP3     H2       HT       0.417000       1.00800           0
     36134 TIP3     2500     TIP3     OH2      OT      -0.834000       15.9994           0
     36135 TIP3     2500     TIP3     H1       HT       0.417000       1.00800           0
     36136 TIP3     2500     TIP3     H2       HT       0.417000       1.00800           0
     36137 TIP3     2501     TIP3     OH2      OT      -0.834000       15.9994           0
     36138 TIP3     2501     TIP3     H1       HT       0.417000       1.00800           0
     36139 TIP3     2501     TIP3     H2       HT       0.417000       1.00800           0
     36140 TIP3     2502     TIP3     OH2      OT      -0.834000       15.9994           0
     36141 TIP3     2502     TIP3     H1       HT       0.417000       1.00800           0
     36142 TIP3     2502     TIP3     H2       HT       0.417000       1.00800           0
     36143 TIP3     2503     TIP3     OH2      OT      -0.834000       15.9994           0
     36144 TIP3     2503     TIP3     H1       HT       0.417000       1.00800           0
     36145 TIP3     2503     TIP3     H2       HT       0.417000       1.00800           0
     36146 TIP3     2504     TIP3     OH2      OT      -0.834000       15.9994           0
     36147 TIP3     2504     TIP3     H1       HT       0.417000       1.00800           0
     36148 TIP3     2504     TIP3     H2       HT       0.417000       1.00800           0
     36149 TIP3     2505     TIP3     OH2      OT      -0.834000       15.9994           0
     36150 TIP3     2505     TIP3     H1       HT       0.417000       1.00800           0
     36151 TIP3     2505     TIP3     H2       HT       0.417000       1.00800           0
     36152 TIP3     2506     TIP3     OH2      OT      -0.834000       15.9994           0
     36153 TIP3     2506     TIP3     H1       HT       0.417000       1.00800           0
     36154 TIP3     2506     TIP3     H2       HT       0.417000       1.00800           0
     36155 TIP3     2507     TIP3     OH2      OT      -0.834000       15.9994           0
     36156 TIP3     2507     TIP3     H1       HT       0.417000       1.00800           0
     36157 TIP3     2507     TIP3     H2       HT       0.417000       1.00800           0
     36158 TIP3     2508     TIP3     OH2      OT      -0.834000       15.9994           0
     36159 TIP3     2508     TIP3     H1       HT       0.417000       1.00800           0
     36160 TIP3     2508     TIP3     H2       HT       0.417000       1.00800           0
     36161 TIP3     2509     TIP3     OH2      OT      -0.834000       15.9994           0
     36162 TIP3     2509     TIP3     H1       HT       0.417000       1.00800           0
     36163 TIP3     2509     TIP3     H2       HT       0.417000       1.00800           0
     36164 TIP3     2510     TIP3     OH2      OT      -0.834000       15.9994           0
     36165 TIP3     2510     TIP3     H1       HT       0.417000       1.00800           0
     36166 TIP3     2510     TIP3     H2       HT       0.417000       1.00800           0
     36167 TIP3     2511     TIP3     OH2      OT      -0.834000       15.9994           0
     36168 TIP3     2511     TIP3     H1       HT       0.417000       1.00800           0
     36169 TIP3     2511     TIP3     H2       HT       0.417000       1.00800           0
     36170 TIP3     2512     TIP3     OH2      OT      -0.834000       15.9994           0
     36171 TIP3     2512     TIP3     H1       HT       0.417000       1.00800           0
     36172 TIP3     2512     TIP3     H2       HT       0.417000       1.00800           0
     36173 TIP3     2513     TIP3     OH2      OT      -0.834000       15.9994           0
     36174 TIP3     2513     TIP3     H1       HT       0.417000       1.00800           0
     36175 TIP3     2513     TIP3     H2       HT       0.417000       1.00800           0
     36176 TIP3     2514     TIP3     OH2      OT      -0.834000       15.9994           0
     36177 TIP3     2514     TIP3     H1       HT       0.417000       1.00800           0
     36178 TIP3     2514     TIP3     H2       HT       0.417000       1.00800           0
     36179 TIP3     2515     TIP3     OH2      OT      -0.834000       15.9994           0
     36180 TIP3     2515     TIP3     H1       HT       0.417000       1.00800           0
     36181 TIP3     2515     TIP3     H2       HT       0.417000       1.00800           0
     36182 TIP3     2516     TIP3     OH2      OT      -0.834000       15.9994           0
     36183 TIP3     2516     TIP3     H1       HT       0.417000       1.00800           0
     36184 TIP3     2516     TIP3     H2       HT       0.417000       1.00800           0
     36185 TIP3     2517     TIP3     OH2      OT      -0.834000       15.9994           0
     36186 TIP3     2517     TIP3     H1       HT       0.417000       1.00800           0
     36187 TIP3     2517     TIP3     H2       HT       0.417000       1.00800           0
     36188 TIP3     2518     TIP3     OH2      OT      -0.834000       15.9994           0
     36189 TIP3     2518     TIP3     H1       HT       0.417000       1.00800           0
     36190 TIP3     2518     TIP3     H2       HT       0.417000       1.00800           0
     36191 TIP3     2519     TIP3     OH2      OT      -0.834000       15.9994           0
     36192 TIP3     2519     TIP3     H1       HT       0.417000       1.00800           0
     36193 TIP3     2519     TIP3     H2       HT       0.417000       1.00800           0
     36194 TIP3     2520     TIP3     OH2      OT      -0.834000       15.9994           0
     36195 TIP3     2520     TIP3     H1       HT       0.417000       1.00800           0
     36196 TIP3     2520     TIP3     H2       HT       0.417000       1.00800           0
     36197 TIP3     2521     TIP3     OH2      OT      -0.834000       15.9994           0
     36198 TIP3     2521     TIP3     H1       HT       0.417000       1.00800           0
     36199 TIP3     2521     TIP3     H2       HT       0.417000       1.00800           0
     36200 TIP3     2522     TIP3     OH2      OT      -0.834000       15.9994           0
     36201 TIP3     2522     TIP3     H1       HT       0.417000       1.00800           0
     36202 TIP3     2522     TIP3     H2       HT       0.417000       1.00800           0
     36203 TIP3     2523     TIP3     OH2      OT      -0.834000       15.9994           0
     36204 TIP3     2523     TIP3     H1       HT       0.417000       1.00800           0
     36205 TIP3     2523     TIP3     H2       HT       0.417000       1.00800           0
     36206 TIP3     2524     TIP3     OH2      OT      -0.834000       15.9994           0
     36207 TIP3     2524     TIP3     H1       HT       0.417000       1.00800           0
     36208 TIP3     2524     TIP3     H2       HT       0.417000       1.00800           0
     36209 TIP3     2525     TIP3     OH2      OT      -0.834000       15.9994           0
     36210 TIP3     2525     TIP3     H1       HT       0.417000       1.00800           0
     36211 TIP3     2525     TIP3     H2       HT       0.417000       1.00800           0
     36212 TIP3     2526     TIP3     OH2      OT      -0.834000       15.9994           0
     36213 TIP3     2526     TIP3     H1       HT       0.417000       1.00800           0
     36214 TIP3     2526     TIP3     H2       HT       0.417000       1.00800           0
     36215 TIP3     2527     TIP3     OH2      OT      -0.834000       15.9994           0
     36216 TIP3     2527     TIP3     H1       HT       0.417000       1.00800           0
     36217 TIP3     2527     TIP3     H2       HT       0.417000       1.00800           0
     36218 TIP3     2528     TIP3     OH2      OT      -0.834000       15.9994           0
     36219 TIP3     2528     TIP3     H1       HT       0.417000       1.00800           0
     36220 TIP3     2528     TIP3     H2       HT       0.417000       1.00800           0
     36221 TIP3     2529     TIP3     OH2      OT      -0.834000       15.9994           0
     36222 TIP3     2529     TIP3     H1       HT       0.417000       1.00800           0
     36223 TIP3     2529     TIP3     H2       HT       0.417000       1.00800           0
     36224 TIP3     2530     TIP3     OH2      OT      -0.834000       15.9994           0
     36225 TIP3     2530     TIP3     H1       HT       0.417000       1.00800           0
     36226 TIP3     2530     TIP3     H2       HT       0.417000       1.00800           0
     36227 TIP3     2531     TIP3     OH2      OT      -0.834000       15.9994           0
     36228 TIP3     2531     TIP3     H1       HT       0.417000       1.00800           0
     36229 TIP3     2531     TIP3     H2       HT       0.417000       1.00800           0
     36230 TIP3     2532     TIP3     OH2      OT      -0.834000       15.9994           0
     36231 TIP3     2532     TIP3     H1       HT       0.417000       1.00800           0
     36232 TIP3     2532     TIP3     H2       HT       0.417000       1.00800           0
     36233 TIP3     2533     TIP3     OH2      OT      -0.834000       15.9994           0
     36234 TIP3     2533     TIP3     H1       HT       0.417000       1.00800           0
     36235 TIP3     2533     TIP3     H2       HT       0.417000       1.00800           0
     36236 TIP3     2534     TIP3     OH2      OT      -0.834000       15.9994           0
     36237 TIP3     2534     TIP3     H1       HT       0.417000       1.00800           0
     36238 TIP3     2534     TIP3     H2       HT       0.417000       1.00800           0
     36239 TIP3     2535     TIP3     OH2      OT      -0.834000       15.9994           0
     36240 TIP3     2535     TIP3     H1       HT       0.417000       1.00800           0
     36241 TIP3     2535     TIP3     H2       HT       0.417000       1.00800           0
     36242 TIP3     2536     TIP3     OH2      OT      -0.834000       15.9994           0
     36243 TIP3     2536     TIP3     H1       HT       0.417000       1.00800           0
     36244 TIP3     2536     TIP3     H2       HT       0.417000       1.00800           0
     36245 TIP3     2537     TIP3     OH2      OT      -0.834000       15.9994           0
     36246 TIP3     2537     TIP3     H1       HT       0.417000       1.00800           0
     36247 TIP3     2537     TIP3     H2       HT       0.417000       1.00800           0
     36248 TIP3     2538     TIP3     OH2      OT      -0.834000       15.9994           0
     36249 TIP3     2538     TIP3     H1       HT       0.417000       1.00800           0
     36250 TIP3     2538     TIP3     H2       HT       0.417000       1.00800           0
     36251 TIP3     2539     TIP3     OH2      OT      -0.834000       15.9994           0
     36252 TIP3     2539     TIP3     H1       HT       0.417000       1.00800           0
     36253 TIP3     2539     TIP3     H2       HT       0.417000       1.00800           0
     36254 TIP3     2540     TIP3     OH2      OT      -0.834000       15.9994           0
     36255 TIP3     2540     TIP3     H1       HT       0.417000       1.00800           0
     36256 TIP3     2540     TIP3     H2       HT       0.417000       1.00800           0
     36257 TIP3     2541     TIP3     OH2      OT      -0.834000       15.9994           0
     36258 TIP3     2541     TIP3     H1       HT       0.417000       1.00800           0
     36259 TIP3     2541     TIP3     H2       HT       0.417000       1.00800           0
     36260 TIP3     2542     TIP3     OH2      OT      -0.834000       15.9994           0
     36261 TIP3     2542     TIP3     H1       HT       0.417000       1.00800           0
     36262 TIP3     2542     TIP3     H2       HT       0.417000       1.00800           0
     36263 TIP3     2543     TIP3     OH2      OT      -0.834000       15.9994           0
     36264 TIP3     2543     TIP3     H1       HT       0.417000       1.00800           0
     36265 TIP3     2543     TIP3     H2       HT       0.417000       1.00800           0
     36266 TIP3     2544     TIP3     OH2      OT      -0.834000       15.9994           0
     36267 TIP3     2544     TIP3     H1       HT       0.417000       1.00800           0
     36268 TIP3     2544     TIP3     H2       HT       0.417000       1.00800           0
     36269 TIP3     2545     TIP3     OH2      OT      -0.834000       15.9994           0
     36270 TIP3     2545     TIP3     H1       HT       0.417000       1.00800           0
     36271 TIP3     2545     TIP3     H2       HT       0.417000       1.00800           0
     36272 TIP3     2546     TIP3     OH2      OT      -0.834000       15.9994           0
     36273 TIP3     2546     TIP3     H1       HT       0.417000       1.00800           0
     36274 TIP3     2546     TIP3     H2       HT       0.417000       1.00800           0
     36275 TIP3     2547     TIP3     OH2      OT      -0.834000       15.9994           0
     36276 TIP3     2547     TIP3     H1       HT       0.417000       1.00800           0
     36277 TIP3     2547     TIP3     H2       HT       0.417000       1.00800           0
     36278 TIP3     2548     TIP3     OH2      OT      -0.834000       15.9994           0
     36279 TIP3     2548     TIP3     H1       HT       0.417000       1.00800           0
     36280 TIP3     2548     TIP3     H2       HT       0.417000       1.00800           0
     36281 TIP3     2549     TIP3     OH2      OT      -0.834000       15.9994           0
     36282 TIP3     2549     TIP3     H1       HT       0.417000       1.00800           0
     36283 TIP3     2549     TIP3     H2       HT       0.417000       1.00800           0
     36284 TIP3     2550     TIP3     OH2      OT      -0.834000       15.9994           0
     36285 TIP3     2550     TIP3     H1       HT       0.417000       1.00800           0
     36286 TIP3     2550     TIP3     H2       HT       0.417000       1.00800           0
     36287 TIP3     2551     TIP3     OH2      OT      -0.834000       15.9994           0
     36288 TIP3     2551     TIP3     H1       HT       0.417000       1.00800           0
     36289 TIP3     2551     TIP3     H2       HT       0.417000       1.00800           0
     36290 TIP3     2552     TIP3     OH2      OT      -0.834000       15.9994           0
     36291 TIP3     2552     TIP3     H1       HT       0.417000       1.00800           0
     36292 TIP3     2552     TIP3     H2       HT       0.417000       1.00800           0
     36293 TIP3     2553     TIP3     OH2      OT      -0.834000       15.9994           0
     36294 TIP3     2553     TIP3     H1       HT       0.417000       1.00800           0
     36295 TIP3     2553     TIP3     H2       HT       0.417000       1.00800           0
     36296 TIP3     2554     TIP3     OH2      OT      -0.834000       15.9994           0
     36297 TIP3     2554     TIP3     H1       HT       0.417000       1.00800           0
     36298 TIP3     2554     TIP3     H2       HT       0.417000       1.00800           0
     36299 TIP3     2555     TIP3     OH2      OT      -0.834000       15.9994           0
     36300 TIP3     2555     TIP3     H1       HT       0.417000       1.00800           0
     36301 TIP3     2555     TIP3     H2       HT       0.417000       1.00800           0
     36302 TIP3     2556     TIP3     OH2      OT      -0.834000       15.9994           0
     36303 TIP3     2556     TIP3     H1       HT       0.417000       1.00800           0
     36304 TIP3     2556     TIP3     H2       HT       0.417000       1.00800           0
     36305 TIP3     2557     TIP3     OH2      OT      -0.834000       15.9994           0
     36306 TIP3     2557     TIP3     H1       HT       0.417000       1.00800           0
     36307 TIP3     2557     TIP3     H2       HT       0.417000       1.00800           0
     36308 TIP3     2558     TIP3     OH2      OT      -0.834000       15.9994           0
     36309 TIP3     2558     TIP3     H1       HT       0.417000       1.00800           0
     36310 TIP3     2558     TIP3     H2       HT       0.417000       1.00800           0
     36311 TIP3     2559     TIP3     OH2      OT      -0.834000       15.9994           0
     36312 TIP3     2559     TIP3     H1       HT       0.417000       1.00800           0
     36313 TIP3     2559     TIP3     H2       HT       0.417000       1.00800           0
     36314 TIP3     2560     TIP3     OH2      OT      -0.834000       15.9994           0
     36315 TIP3     2560     TIP3     H1       HT       0.417000       1.00800           0
     36316 TIP3     2560     TIP3     H2       HT       0.417000       1.00800           0
     36317 TIP3     2561     TIP3     OH2      OT      -0.834000       15.9994           0
     36318 TIP3     2561     TIP3     H1       HT       0.417000       1.00800           0
     36319 TIP3     2561     TIP3     H2       HT       0.417000       1.00800           0
     36320 TIP3     2562     TIP3     OH2      OT      -0.834000       15.9994           0
     36321 TIP3     2562     TIP3     H1       HT       0.417000       1.00800           0
     36322 TIP3     2562     TIP3     H2       HT       0.417000       1.00800           0
     36323 TIP3     2563     TIP3     OH2      OT      -0.834000       15.9994           0
     36324 TIP3     2563     TIP3     H1       HT       0.417000       1.00800           0
     36325 TIP3     2563     TIP3     H2       HT       0.417000       1.00800           0
     36326 TIP3     2564     TIP3     OH2      OT      -0.834000       15.9994           0
     36327 TIP3     2564     TIP3     H1       HT       0.417000       1.00800           0
     36328 TIP3     2564     TIP3     H2       HT       0.417000       1.00800           0
     36329 TIP3     2565     TIP3     OH2      OT      -0.834000       15.9994           0
     36330 TIP3     2565     TIP3     H1       HT       0.417000       1.00800           0
     36331 TIP3     2565     TIP3     H2       HT       0.417000       1.00800           0
     36332 TIP3     2566     TIP3     OH2      OT      -0.834000       15.9994           0
     36333 TIP3     2566     TIP3     H1       HT       0.417000       1.00800           0
     36334 TIP3     2566     TIP3     H2       HT       0.417000       1.00800           0
     36335 TIP3     2567     TIP3     OH2      OT      -0.834000       15.9994           0
     36336 TIP3     2567     TIP3     H1       HT       0.417000       1.00800           0
     36337 TIP3     2567     TIP3     H2       HT       0.417000       1.00800           0
     36338 TIP3     2568     TIP3     OH2      OT      -0.834000       15.9994           0
     36339 TIP3     2568     TIP3     H1       HT       0.417000       1.00800           0
     36340 TIP3     2568     TIP3     H2       HT       0.417000       1.00800           0
     36341 TIP3     2569     TIP3     OH2      OT      -0.834000       15.9994           0
     36342 TIP3     2569     TIP3     H1       HT       0.417000       1.00800           0
     36343 TIP3     2569     TIP3     H2       HT       0.417000       1.00800           0
     36344 TIP3     2570     TIP3     OH2      OT      -0.834000       15.9994           0
     36345 TIP3     2570     TIP3     H1       HT       0.417000       1.00800           0
     36346 TIP3     2570     TIP3     H2       HT       0.417000       1.00800           0
     36347 TIP3     2571     TIP3     OH2      OT      -0.834000       15.9994           0
     36348 TIP3     2571     TIP3     H1       HT       0.417000       1.00800           0
     36349 TIP3     2571     TIP3     H2       HT       0.417000       1.00800           0
     36350 TIP3     2572     TIP3     OH2      OT      -0.834000       15.9994           0
     36351 TIP3     2572     TIP3     H1       HT       0.417000       1.00800           0
     36352 TIP3     2572     TIP3     H2       HT       0.417000       1.00800           0
     36353 TIP3     2573     TIP3     OH2      OT      -0.834000       15.9994           0
     36354 TIP3     2573     TIP3     H1       HT       0.417000       1.00800           0
     36355 TIP3     2573     TIP3     H2       HT       0.417000       1.00800           0
     36356 TIP3     2574     TIP3     OH2      OT      -0.834000       15.9994           0
     36357 TIP3     2574     TIP3     H1       HT       0.417000       1.00800           0
     36358 TIP3     2574     TIP3     H2       HT       0.417000       1.00800           0
     36359 TIP3     2575     TIP3     OH2      OT      -0.834000       15.9994           0
     36360 TIP3     2575     TIP3     H1       HT       0.417000       1.00800           0
     36361 TIP3     2575     TIP3     H2       HT       0.417000       1.00800           0
     36362 TIP3     2576     TIP3     OH2      OT      -0.834000       15.9994           0
     36363 TIP3     2576     TIP3     H1       HT       0.417000       1.00800           0
     36364 TIP3     2576     TIP3     H2       HT       0.417000       1.00800           0
     36365 TIP3     2577     TIP3     OH2      OT      -0.834000       15.9994           0
     36366 TIP3     2577     TIP3     H1       HT       0.417000       1.00800           0
     36367 TIP3     2577     TIP3     H2       HT       0.417000       1.00800           0
     36368 TIP3     2578     TIP3     OH2      OT      -0.834000       15.9994           0
     36369 TIP3     2578     TIP3     H1       HT       0.417000       1.00800           0
     36370 TIP3     2578     TIP3     H2       HT       0.417000       1.00800           0
     36371 TIP3     2579     TIP3     OH2      OT      -0.834000       15.9994           0
     36372 TIP3     2579     TIP3     H1       HT       0.417000       1.00800           0
     36373 TIP3     2579     TIP3     H2       HT       0.417000       1.00800           0
     36374 TIP3     2580     TIP3     OH2      OT      -0.834000       15.9994           0
     36375 TIP3     2580     TIP3     H1       HT       0.417000       1.00800           0
     36376 TIP3     2580     TIP3     H2       HT       0.417000       1.00800           0
     36377 TIP3     2581     TIP3     OH2      OT      -0.834000       15.9994           0
     36378 TIP3     2581     TIP3     H1       HT       0.417000       1.00800           0
     36379 TIP3     2581     TIP3     H2       HT       0.417000       1.00800           0
     36380 TIP3     2582     TIP3     OH2      OT      -0.834000       15.9994           0
     36381 TIP3     2582     TIP3     H1       HT       0.417000       1.00800           0
     36382 TIP3     2582     TIP3     H2       HT       0.417000       1.00800           0
     36383 TIP3     2583     TIP3     OH2      OT      -0.834000       15.9994           0
     36384 TIP3     2583     TIP3     H1       HT       0.417000       1.00800           0
     36385 TIP3     2583     TIP3     H2       HT       0.417000       1.00800           0
     36386 TIP3     2584     TIP3     OH2      OT      -0.834000       15.9994           0
     36387 TIP3     2584     TIP3     H1       HT       0.417000       1.00800           0
     36388 TIP3     2584     TIP3     H2       HT       0.417000       1.00800           0
     36389 TIP3     2585     TIP3     OH2      OT      -0.834000       15.9994           0
     36390 TIP3     2585     TIP3     H1       HT       0.417000       1.00800           0
     36391 TIP3     2585     TIP3     H2       HT       0.417000       1.00800           0
     36392 TIP3     2586     TIP3     OH2      OT      -0.834000       15.9994           0
     36393 TIP3     2586     TIP3     H1       HT       0.417000       1.00800           0
     36394 TIP3     2586     TIP3     H2       HT       0.417000       1.00800           0
     36395 TIP3     2587     TIP3     OH2      OT      -0.834000       15.9994           0
     36396 TIP3     2587     TIP3     H1       HT       0.417000       1.00800           0
     36397 TIP3     2587     TIP3     H2       HT       0.417000       1.00800           0
     36398 TIP3     2588     TIP3     OH2      OT      -0.834000       15.9994           0
     36399 TIP3     2588     TIP3     H1       HT       0.417000       1.00800           0
     36400 TIP3     2588     TIP3     H2       HT       0.417000       1.00800           0
     36401 TIP3     2589     TIP3     OH2      OT      -0.834000       15.9994           0
     36402 TIP3     2589     TIP3     H1       HT       0.417000       1.00800           0
     36403 TIP3     2589     TIP3     H2       HT       0.417000       1.00800           0
     36404 TIP3     2590     TIP3     OH2      OT      -0.834000       15.9994           0
     36405 TIP3     2590     TIP3     H1       HT       0.417000       1.00800           0
     36406 TIP3     2590     TIP3     H2       HT       0.417000       1.00800           0
     36407 TIP3     2591     TIP3     OH2      OT      -0.834000       15.9994           0
     36408 TIP3     2591     TIP3     H1       HT       0.417000       1.00800           0
     36409 TIP3     2591     TIP3     H2       HT       0.417000       1.00800           0
     36410 TIP3     2592     TIP3     OH2      OT      -0.834000       15.9994           0
     36411 TIP3     2592     TIP3     H1       HT       0.417000       1.00800           0
     36412 TIP3     2592     TIP3     H2       HT       0.417000       1.00800           0
     36413 TIP3     2593     TIP3     OH2      OT      -0.834000       15.9994           0
     36414 TIP3     2593     TIP3     H1       HT       0.417000       1.00800           0
     36415 TIP3     2593     TIP3     H2       HT       0.417000       1.00800           0
     36416 TIP3     2594     TIP3     OH2      OT      -0.834000       15.9994           0
     36417 TIP3     2594     TIP3     H1       HT       0.417000       1.00800           0
     36418 TIP3     2594     TIP3     H2       HT       0.417000       1.00800           0
     36419 TIP3     2595     TIP3     OH2      OT      -0.834000       15.9994           0
     36420 TIP3     2595     TIP3     H1       HT       0.417000       1.00800           0
     36421 TIP3     2595     TIP3     H2       HT       0.417000       1.00800           0
     36422 TIP3     2596     TIP3     OH2      OT      -0.834000       15.9994           0
     36423 TIP3     2596     TIP3     H1       HT       0.417000       1.00800           0
     36424 TIP3     2596     TIP3     H2       HT       0.417000       1.00800           0
     36425 TIP3     2597     TIP3     OH2      OT      -0.834000       15.9994           0
     36426 TIP3     2597     TIP3     H1       HT       0.417000       1.00800           0
     36427 TIP3     2597     TIP3     H2       HT       0.417000       1.00800           0
     36428 TIP3     2598     TIP3     OH2      OT      -0.834000       15.9994           0
     36429 TIP3     2598     TIP3     H1       HT       0.417000       1.00800           0
     36430 TIP3     2598     TIP3     H2       HT       0.417000       1.00800           0
     36431 TIP3     2599     TIP3     OH2      OT      -0.834000       15.9994           0
     36432 TIP3     2599     TIP3     H1       HT       0.417000       1.00800           0
     36433 TIP3     2599     TIP3     H2       HT       0.417000       1.00800           0
     36434 TIP3     2600     TIP3     OH2      OT      -0.834000       15.9994           0
     36435 TIP3     2600     TIP3     H1       HT       0.417000       1.00800           0
     36436 TIP3     2600     TIP3     H2       HT       0.417000       1.00800           0
     36437 TIP3     2601     TIP3     OH2      OT      -0.834000       15.9994           0
     36438 TIP3     2601     TIP3     H1       HT       0.417000       1.00800           0
     36439 TIP3     2601     TIP3     H2       HT       0.417000       1.00800           0
     36440 TIP3     2602     TIP3     OH2      OT      -0.834000       15.9994           0
     36441 TIP3     2602     TIP3     H1       HT       0.417000       1.00800           0
     36442 TIP3     2602     TIP3     H2       HT       0.417000       1.00800           0
     36443 TIP3     2603     TIP3     OH2      OT      -0.834000       15.9994           0
     36444 TIP3     2603     TIP3     H1       HT       0.417000       1.00800           0
     36445 TIP3     2603     TIP3     H2       HT       0.417000       1.00800           0
     36446 TIP3     2604     TIP3     OH2      OT      -0.834000       15.9994           0
     36447 TIP3     2604     TIP3     H1       HT       0.417000       1.00800           0
     36448 TIP3     2604     TIP3     H2       HT       0.417000       1.00800           0
     36449 TIP3     2605     TIP3     OH2      OT      -0.834000       15.9994           0
     36450 TIP3     2605     TIP3     H1       HT       0.417000       1.00800           0
     36451 TIP3     2605     TIP3     H2       HT       0.417000       1.00800           0
     36452 TIP3     2606     TIP3     OH2      OT      -0.834000       15.9994           0
     36453 TIP3     2606     TIP3     H1       HT       0.417000       1.00800           0
     36454 TIP3     2606     TIP3     H2       HT       0.417000       1.00800           0
     36455 TIP3     2607     TIP3     OH2      OT      -0.834000       15.9994           0
     36456 TIP3     2607     TIP3     H1       HT       0.417000       1.00800           0
     36457 TIP3     2607     TIP3     H2       HT       0.417000       1.00800           0
     36458 TIP3     2608     TIP3     OH2      OT      -0.834000       15.9994           0
     36459 TIP3     2608     TIP3     H1       HT       0.417000       1.00800           0
     36460 TIP3     2608     TIP3     H2       HT       0.417000       1.00800           0
     36461 TIP3     2609     TIP3     OH2      OT      -0.834000       15.9994           0
     36462 TIP3     2609     TIP3     H1       HT       0.417000       1.00800           0
     36463 TIP3     2609     TIP3     H2       HT       0.417000       1.00800           0
     36464 TIP3     2610     TIP3     OH2      OT      -0.834000       15.9994           0
     36465 TIP3     2610     TIP3     H1       HT       0.417000       1.00800           0
     36466 TIP3     2610     TIP3     H2       HT       0.417000       1.00800           0
     36467 TIP3     2611     TIP3     OH2      OT      -0.834000       15.9994           0
     36468 TIP3     2611     TIP3     H1       HT       0.417000       1.00800           0
     36469 TIP3     2611     TIP3     H2       HT       0.417000       1.00800           0
     36470 TIP3     2612     TIP3     OH2      OT      -0.834000       15.9994           0
     36471 TIP3     2612     TIP3     H1       HT       0.417000       1.00800           0
     36472 TIP3     2612     TIP3     H2       HT       0.417000       1.00800           0
     36473 TIP3     2613     TIP3     OH2      OT      -0.834000       15.9994           0
     36474 TIP3     2613     TIP3     H1       HT       0.417000       1.00800           0
     36475 TIP3     2613     TIP3     H2       HT       0.417000       1.00800           0
     36476 TIP3     2614     TIP3     OH2      OT      -0.834000       15.9994           0
     36477 TIP3     2614     TIP3     H1       HT       0.417000       1.00800           0
     36478 TIP3     2614     TIP3     H2       HT       0.417000       1.00800           0
     36479 TIP3     2615     TIP3     OH2      OT      -0.834000       15.9994           0
     36480 TIP3     2615     TIP3     H1       HT       0.417000       1.00800           0
     36481 TIP3     2615     TIP3     H2       HT       0.417000       1.00800           0
     36482 TIP3     2616     TIP3     OH2      OT      -0.834000       15.9994           0
     36483 TIP3     2616     TIP3     H1       HT       0.417000       1.00800           0
     36484 TIP3     2616     TIP3     H2       HT       0.417000       1.00800           0
     36485 TIP3     2617     TIP3     OH2      OT      -0.834000       15.9994           0
     36486 TIP3     2617     TIP3     H1       HT       0.417000       1.00800           0
     36487 TIP3     2617     TIP3     H2       HT       0.417000       1.00800           0
     36488 TIP3     2618     TIP3     OH2      OT      -0.834000       15.9994           0
     36489 TIP3     2618     TIP3     H1       HT       0.417000       1.00800           0
     36490 TIP3     2618     TIP3     H2       HT       0.417000       1.00800           0
     36491 TIP3     2619     TIP3     OH2      OT      -0.834000       15.9994           0
     36492 TIP3     2619     TIP3     H1       HT       0.417000       1.00800           0
     36493 TIP3     2619     TIP3     H2       HT       0.417000       1.00800           0
     36494 TIP3     2620     TIP3     OH2      OT      -0.834000       15.9994           0
     36495 TIP3     2620     TIP3     H1       HT       0.417000       1.00800           0
     36496 TIP3     2620     TIP3     H2       HT       0.417000       1.00800           0
     36497 TIP3     2621     TIP3     OH2      OT      -0.834000       15.9994           0
     36498 TIP3     2621     TIP3     H1       HT       0.417000       1.00800           0
     36499 TIP3     2621     TIP3     H2       HT       0.417000       1.00800           0
     36500 TIP3     2622     TIP3     OH2      OT      -0.834000       15.9994           0
     36501 TIP3     2622     TIP3     H1       HT       0.417000       1.00800           0
     36502 TIP3     2622     TIP3     H2       HT       0.417000       1.00800           0
     36503 TIP3     2623     TIP3     OH2      OT      -0.834000       15.9994           0
     36504 TIP3     2623     TIP3     H1       HT       0.417000       1.00800           0
     36505 TIP3     2623     TIP3     H2       HT       0.417000       1.00800           0
     36506 TIP3     2624     TIP3     OH2      OT      -0.834000       15.9994           0
     36507 TIP3     2624     TIP3     H1       HT       0.417000       1.00800           0
     36508 TIP3     2624     TIP3     H2       HT       0.417000       1.00800           0
     36509 TIP3     2625     TIP3     OH2      OT      -0.834000       15.9994           0
     36510 TIP3     2625     TIP3     H1       HT       0.417000       1.00800           0
     36511 TIP3     2625     TIP3     H2       HT       0.417000       1.00800           0
     36512 TIP3     2626     TIP3     OH2      OT      -0.834000       15.9994           0
     36513 TIP3     2626     TIP3     H1       HT       0.417000       1.00800           0
     36514 TIP3     2626     TIP3     H2       HT       0.417000       1.00800           0
     36515 TIP3     2627     TIP3     OH2      OT      -0.834000       15.9994           0
     36516 TIP3     2627     TIP3     H1       HT       0.417000       1.00800           0
     36517 TIP3     2627     TIP3     H2       HT       0.417000       1.00800           0
     36518 TIP3     2628     TIP3     OH2      OT      -0.834000       15.9994           0
     36519 TIP3     2628     TIP3     H1       HT       0.417000       1.00800           0
     36520 TIP3     2628     TIP3     H2       HT       0.417000       1.00800           0
     36521 TIP3     2629     TIP3     OH2      OT      -0.834000       15.9994           0
     36522 TIP3     2629     TIP3     H1       HT       0.417000       1.00800           0
     36523 TIP3     2629     TIP3     H2       HT       0.417000       1.00800           0
     36524 TIP3     2630     TIP3     OH2      OT      -0.834000       15.9994           0
     36525 TIP3     2630     TIP3     H1       HT       0.417000       1.00800           0
     36526 TIP3     2630     TIP3     H2       HT       0.417000       1.00800           0
     36527 TIP3     2631     TIP3     OH2      OT      -0.834000       15.9994           0
     36528 TIP3     2631     TIP3     H1       HT       0.417000       1.00800           0
     36529 TIP3     2631     TIP3     H2       HT       0.417000       1.00800           0
     36530 TIP3     2632     TIP3     OH2      OT      -0.834000       15.9994           0
     36531 TIP3     2632     TIP3     H1       HT       0.417000       1.00800           0
     36532 TIP3     2632     TIP3     H2       HT       0.417000       1.00800           0
     36533 TIP3     2633     TIP3     OH2      OT      -0.834000       15.9994           0
     36534 TIP3     2633     TIP3     H1       HT       0.417000       1.00800           0
     36535 TIP3     2633     TIP3     H2       HT       0.417000       1.00800           0
     36536 TIP3     2634     TIP3     OH2      OT      -0.834000       15.9994           0
     36537 TIP3     2634     TIP3     H1       HT       0.417000       1.00800           0
     36538 TIP3     2634     TIP3     H2       HT       0.417000       1.00800           0
     36539 TIP3     2635     TIP3     OH2      OT      -0.834000       15.9994           0
     36540 TIP3     2635     TIP3     H1       HT       0.417000       1.00800           0
     36541 TIP3     2635     TIP3     H2       HT       0.417000       1.00800           0
     36542 TIP3     2636     TIP3     OH2      OT      -0.834000       15.9994           0
     36543 TIP3     2636     TIP3     H1       HT       0.417000       1.00800           0
     36544 TIP3     2636     TIP3     H2       HT       0.417000       1.00800           0
     36545 TIP3     2637     TIP3     OH2      OT      -0.834000       15.9994           0
     36546 TIP3     2637     TIP3     H1       HT       0.417000       1.00800           0
     36547 TIP3     2637     TIP3     H2       HT       0.417000       1.00800           0
     36548 TIP3     2638     TIP3     OH2      OT      -0.834000       15.9994           0
     36549 TIP3     2638     TIP3     H1       HT       0.417000       1.00800           0
     36550 TIP3     2638     TIP3     H2       HT       0.417000       1.00800           0
     36551 TIP3     2639     TIP3     OH2      OT      -0.834000       15.9994           0
     36552 TIP3     2639     TIP3     H1       HT       0.417000       1.00800           0
     36553 TIP3     2639     TIP3     H2       HT       0.417000       1.00800           0
     36554 TIP3     2640     TIP3     OH2      OT      -0.834000       15.9994           0
     36555 TIP3     2640     TIP3     H1       HT       0.417000       1.00800           0
     36556 TIP3     2640     TIP3     H2       HT       0.417000       1.00800           0
     36557 TIP3     2641     TIP3     OH2      OT      -0.834000       15.9994           0
     36558 TIP3     2641     TIP3     H1       HT       0.417000       1.00800           0
     36559 TIP3     2641     TIP3     H2       HT       0.417000       1.00800           0
     36560 TIP3     2642     TIP3     OH2      OT      -0.834000       15.9994           0
     36561 TIP3     2642     TIP3     H1       HT       0.417000       1.00800           0
     36562 TIP3     2642     TIP3     H2       HT       0.417000       1.00800           0
     36563 TIP3     2643     TIP3     OH2      OT      -0.834000       15.9994           0
     36564 TIP3     2643     TIP3     H1       HT       0.417000       1.00800           0
     36565 TIP3     2643     TIP3     H2       HT       0.417000       1.00800           0
     36566 TIP3     2644     TIP3     OH2      OT      -0.834000       15.9994           0
     36567 TIP3     2644     TIP3     H1       HT       0.417000       1.00800           0
     36568 TIP3     2644     TIP3     H2       HT       0.417000       1.00800           0
     36569 TIP3     2645     TIP3     OH2      OT      -0.834000       15.9994           0
     36570 TIP3     2645     TIP3     H1       HT       0.417000       1.00800           0
     36571 TIP3     2645     TIP3     H2       HT       0.417000       1.00800           0
     36572 TIP3     2646     TIP3     OH2      OT      -0.834000       15.9994           0
     36573 TIP3     2646     TIP3     H1       HT       0.417000       1.00800           0
     36574 TIP3     2646     TIP3     H2       HT       0.417000       1.00800           0
     36575 TIP3     2647     TIP3     OH2      OT      -0.834000       15.9994           0
     36576 TIP3     2647     TIP3     H1       HT       0.417000       1.00800           0
     36577 TIP3     2647     TIP3     H2       HT       0.417000       1.00800           0
     36578 TIP3     2648     TIP3     OH2      OT      -0.834000       15.9994           0
     36579 TIP3     2648     TIP3     H1       HT       0.417000       1.00800           0
     36580 TIP3     2648     TIP3     H2       HT       0.417000       1.00800           0
     36581 TIP3     2649     TIP3     OH2      OT      -0.834000       15.9994           0
     36582 TIP3     2649     TIP3     H1       HT       0.417000       1.00800           0
     36583 TIP3     2649     TIP3     H2       HT       0.417000       1.00800           0
     36584 TIP3     2650     TIP3     OH2      OT      -0.834000       15.9994           0
     36585 TIP3     2650     TIP3     H1       HT       0.417000       1.00800           0
     36586 TIP3     2650     TIP3     H2       HT       0.417000       1.00800           0
     36587 TIP3     2651     TIP3     OH2      OT      -0.834000       15.9994           0
     36588 TIP3     2651     TIP3     H1       HT       0.417000       1.00800           0
     36589 TIP3     2651     TIP3     H2       HT       0.417000       1.00800           0
     36590 TIP3     2652     TIP3     OH2      OT      -0.834000       15.9994           0
     36591 TIP3     2652     TIP3     H1       HT       0.417000       1.00800           0
     36592 TIP3     2652     TIP3     H2       HT       0.417000       1.00800           0
     36593 TIP3     2653     TIP3     OH2      OT      -0.834000       15.9994           0
     36594 TIP3     2653     TIP3     H1       HT       0.417000       1.00800           0
     36595 TIP3     2653     TIP3     H2       HT       0.417000       1.00800           0
     36596 TIP3     2654     TIP3     OH2      OT      -0.834000       15.9994           0
     36597 TIP3     2654     TIP3     H1       HT       0.417000       1.00800           0
     36598 TIP3     2654     TIP3     H2       HT       0.417000       1.00800           0
     36599 TIP3     2655     TIP3     OH2      OT      -0.834000       15.9994           0
     36600 TIP3     2655     TIP3     H1       HT       0.417000       1.00800           0
     36601 TIP3     2655     TIP3     H2       HT       0.417000       1.00800           0
     36602 TIP3     2656     TIP3     OH2      OT      -0.834000       15.9994           0
     36603 TIP3     2656     TIP3     H1       HT       0.417000       1.00800           0
     36604 TIP3     2656     TIP3     H2       HT       0.417000       1.00800           0
     36605 TIP3     2657     TIP3     OH2      OT      -0.834000       15.9994           0
     36606 TIP3     2657     TIP3     H1       HT       0.417000       1.00800           0
     36607 TIP3     2657     TIP3     H2       HT       0.417000       1.00800           0
     36608 TIP3     2658     TIP3     OH2      OT      -0.834000       15.9994           0
     36609 TIP3     2658     TIP3     H1       HT       0.417000       1.00800           0
     36610 TIP3     2658     TIP3     H2       HT       0.417000       1.00800           0
     36611 TIP3     2659     TIP3     OH2      OT      -0.834000       15.9994           0
     36612 TIP3     2659     TIP3     H1       HT       0.417000       1.00800           0
     36613 TIP3     2659     TIP3     H2       HT       0.417000       1.00800           0
     36614 TIP3     2660     TIP3     OH2      OT      -0.834000       15.9994           0
     36615 TIP3     2660     TIP3     H1       HT       0.417000       1.00800           0
     36616 TIP3     2660     TIP3     H2       HT       0.417000       1.00800           0
     36617 TIP3     2661     TIP3     OH2      OT      -0.834000       15.9994           0
     36618 TIP3     2661     TIP3     H1       HT       0.417000       1.00800           0
     36619 TIP3     2661     TIP3     H2       HT       0.417000       1.00800           0
     36620 TIP3     2662     TIP3     OH2      OT      -0.834000       15.9994           0
     36621 TIP3     2662     TIP3     H1       HT       0.417000       1.00800           0
     36622 TIP3     2662     TIP3     H2       HT       0.417000       1.00800           0
     36623 TIP3     2663     TIP3     OH2      OT      -0.834000       15.9994           0
     36624 TIP3     2663     TIP3     H1       HT       0.417000       1.00800           0
     36625 TIP3     2663     TIP3     H2       HT       0.417000       1.00800           0
     36626 TIP3     2664     TIP3     OH2      OT      -0.834000       15.9994           0
     36627 TIP3     2664     TIP3     H1       HT       0.417000       1.00800           0
     36628 TIP3     2664     TIP3     H2       HT       0.417000       1.00800           0
     36629 TIP3     2665     TIP3     OH2      OT      -0.834000       15.9994           0
     36630 TIP3     2665     TIP3     H1       HT       0.417000       1.00800           0
     36631 TIP3     2665     TIP3     H2       HT       0.417000       1.00800           0
     36632 TIP3     2666     TIP3     OH2      OT      -0.834000       15.9994           0
     36633 TIP3     2666     TIP3     H1       HT       0.417000       1.00800           0
     36634 TIP3     2666     TIP3     H2       HT       0.417000       1.00800           0
     36635 TIP3     2667     TIP3     OH2      OT      -0.834000       15.9994           0
     36636 TIP3     2667     TIP3     H1       HT       0.417000       1.00800           0
     36637 TIP3     2667     TIP3     H2       HT       0.417000       1.00800           0
     36638 TIP3     2668     TIP3     OH2      OT      -0.834000       15.9994           0
     36639 TIP3     2668     TIP3     H1       HT       0.417000       1.00800           0
     36640 TIP3     2668     TIP3     H2       HT       0.417000       1.00800           0
     36641 TIP3     2669     TIP3     OH2      OT      -0.834000       15.9994           0
     36642 TIP3     2669     TIP3     H1       HT       0.417000       1.00800           0
     36643 TIP3     2669     TIP3     H2       HT       0.417000       1.00800           0
     36644 TIP3     2670     TIP3     OH2      OT      -0.834000       15.9994           0
     36645 TIP3     2670     TIP3     H1       HT       0.417000       1.00800           0
     36646 TIP3     2670     TIP3     H2       HT       0.417000       1.00800           0
     36647 TIP3     2671     TIP3     OH2      OT      -0.834000       15.9994           0
     36648 TIP3     2671     TIP3     H1       HT       0.417000       1.00800           0
     36649 TIP3     2671     TIP3     H2       HT       0.417000       1.00800           0
     36650 TIP3     2672     TIP3     OH2      OT      -0.834000       15.9994           0
     36651 TIP3     2672     TIP3     H1       HT       0.417000       1.00800           0
     36652 TIP3     2672     TIP3     H2       HT       0.417000       1.00800           0
     36653 TIP3     2673     TIP3     OH2      OT      -0.834000       15.9994           0
     36654 TIP3     2673     TIP3     H1       HT       0.417000       1.00800           0
     36655 TIP3     2673     TIP3     H2       HT       0.417000       1.00800           0
     36656 TIP3     2674     TIP3     OH2      OT      -0.834000       15.9994           0
     36657 TIP3     2674     TIP3     H1       HT       0.417000       1.00800           0
     36658 TIP3     2674     TIP3     H2       HT       0.417000       1.00800           0
     36659 TIP3     2675     TIP3     OH2      OT      -0.834000       15.9994           0
     36660 TIP3     2675     TIP3     H1       HT       0.417000       1.00800           0
     36661 TIP3     2675     TIP3     H2       HT       0.417000       1.00800           0
     36662 TIP3     2676     TIP3     OH2      OT      -0.834000       15.9994           0
     36663 TIP3     2676     TIP3     H1       HT       0.417000       1.00800           0
     36664 TIP3     2676     TIP3     H2       HT       0.417000       1.00800           0
     36665 TIP3     2677     TIP3     OH2      OT      -0.834000       15.9994           0
     36666 TIP3     2677     TIP3     H1       HT       0.417000       1.00800           0
     36667 TIP3     2677     TIP3     H2       HT       0.417000       1.00800           0
     36668 TIP3     2678     TIP3     OH2      OT      -0.834000       15.9994           0
     36669 TIP3     2678     TIP3     H1       HT       0.417000       1.00800           0
     36670 TIP3     2678     TIP3     H2       HT       0.417000       1.00800           0
     36671 TIP3     2679     TIP3     OH2      OT      -0.834000       15.9994           0
     36672 TIP3     2679     TIP3     H1       HT       0.417000       1.00800           0
     36673 TIP3     2679     TIP3     H2       HT       0.417000       1.00800           0
     36674 TIP3     2680     TIP3     OH2      OT      -0.834000       15.9994           0
     36675 TIP3     2680     TIP3     H1       HT       0.417000       1.00800           0
     36676 TIP3     2680     TIP3     H2       HT       0.417000       1.00800           0
     36677 TIP3     2681     TIP3     OH2      OT      -0.834000       15.9994           0
     36678 TIP3     2681     TIP3     H1       HT       0.417000       1.00800           0
     36679 TIP3     2681     TIP3     H2       HT       0.417000       1.00800           0
     36680 TIP3     2682     TIP3     OH2      OT      -0.834000       15.9994           0
     36681 TIP3     2682     TIP3     H1       HT       0.417000       1.00800           0
     36682 TIP3     2682     TIP3     H2       HT       0.417000       1.00800           0
     36683 TIP3     2683     TIP3     OH2      OT      -0.834000       15.9994           0
     36684 TIP3     2683     TIP3     H1       HT       0.417000       1.00800           0
     36685 TIP3     2683     TIP3     H2       HT       0.417000       1.00800           0
     36686 TIP3     2684     TIP3     OH2      OT      -0.834000       15.9994           0
     36687 TIP3     2684     TIP3     H1       HT       0.417000       1.00800           0
     36688 TIP3     2684     TIP3     H2       HT       0.417000       1.00800           0
     36689 TIP3     2685     TIP3     OH2      OT      -0.834000       15.9994           0
     36690 TIP3     2685     TIP3     H1       HT       0.417000       1.00800           0
     36691 TIP3     2685     TIP3     H2       HT       0.417000       1.00800           0
     36692 TIP3     2686     TIP3     OH2      OT      -0.834000       15.9994           0
     36693 TIP3     2686     TIP3     H1       HT       0.417000       1.00800           0
     36694 TIP3     2686     TIP3     H2       HT       0.417000       1.00800           0
     36695 TIP3     2687     TIP3     OH2      OT      -0.834000       15.9994           0
     36696 TIP3     2687     TIP3     H1       HT       0.417000       1.00800           0
     36697 TIP3     2687     TIP3     H2       HT       0.417000       1.00800           0
     36698 TIP3     2688     TIP3     OH2      OT      -0.834000       15.9994           0
     36699 TIP3     2688     TIP3     H1       HT       0.417000       1.00800           0
     36700 TIP3     2688     TIP3     H2       HT       0.417000       1.00800           0
     36701 TIP3     2689     TIP3     OH2      OT      -0.834000       15.9994           0
     36702 TIP3     2689     TIP3     H1       HT       0.417000       1.00800           0
     36703 TIP3     2689     TIP3     H2       HT       0.417000       1.00800           0
     36704 TIP3     2690     TIP3     OH2      OT      -0.834000       15.9994           0
     36705 TIP3     2690     TIP3     H1       HT       0.417000       1.00800           0
     36706 TIP3     2690     TIP3     H2       HT       0.417000       1.00800           0
     36707 TIP3     2691     TIP3     OH2      OT      -0.834000       15.9994           0
     36708 TIP3     2691     TIP3     H1       HT       0.417000       1.00800           0
     36709 TIP3     2691     TIP3     H2       HT       0.417000       1.00800           0
     36710 TIP3     2692     TIP3     OH2      OT      -0.834000       15.9994           0
     36711 TIP3     2692     TIP3     H1       HT       0.417000       1.00800           0
     36712 TIP3     2692     TIP3     H2       HT       0.417000       1.00800           0
     36713 TIP3     2693     TIP3     OH2      OT      -0.834000       15.9994           0
     36714 TIP3     2693     TIP3     H1       HT       0.417000       1.00800           0
     36715 TIP3     2693     TIP3     H2       HT       0.417000       1.00800           0
     36716 TIP3     2694     TIP3     OH2      OT      -0.834000       15.9994           0
     36717 TIP3     2694     TIP3     H1       HT       0.417000       1.00800           0
     36718 TIP3     2694     TIP3     H2       HT       0.417000       1.00800           0
     36719 TIP3     2695     TIP3     OH2      OT      -0.834000       15.9994           0
     36720 TIP3     2695     TIP3     H1       HT       0.417000       1.00800           0
     36721 TIP3     2695     TIP3     H2       HT       0.417000       1.00800           0
     36722 TIP3     2696     TIP3     OH2      OT      -0.834000       15.9994           0
     36723 TIP3     2696     TIP3     H1       HT       0.417000       1.00800           0
     36724 TIP3     2696     TIP3     H2       HT       0.417000       1.00800           0
     36725 TIP3     2697     TIP3     OH2      OT      -0.834000       15.9994           0
     36726 TIP3     2697     TIP3     H1       HT       0.417000       1.00800           0
     36727 TIP3     2697     TIP3     H2       HT       0.417000       1.00800           0
     36728 TIP3     2698     TIP3     OH2      OT      -0.834000       15.9994           0
     36729 TIP3     2698     TIP3     H1       HT       0.417000       1.00800           0
     36730 TIP3     2698     TIP3     H2       HT       0.417000       1.00800           0
     36731 TIP3     2699     TIP3     OH2      OT      -0.834000       15.9994           0
     36732 TIP3     2699     TIP3     H1       HT       0.417000       1.00800           0
     36733 TIP3     2699     TIP3     H2       HT       0.417000       1.00800           0
     36734 TIP3     2700     TIP3     OH2      OT      -0.834000       15.9994           0
     36735 TIP3     2700     TIP3     H1       HT       0.417000       1.00800           0
     36736 TIP3     2700     TIP3     H2       HT       0.417000       1.00800           0
     36737 TIP3     2701     TIP3     OH2      OT      -0.834000       15.9994           0
     36738 TIP3     2701     TIP3     H1       HT       0.417000       1.00800           0
     36739 TIP3     2701     TIP3     H2       HT       0.417000       1.00800           0
     36740 TIP3     2702     TIP3     OH2      OT      -0.834000       15.9994           0
     36741 TIP3     2702     TIP3     H1       HT       0.417000       1.00800           0
     36742 TIP3     2702     TIP3     H2       HT       0.417000       1.00800           0
     36743 TIP3     2703     TIP3     OH2      OT      -0.834000       15.9994           0
     36744 TIP3     2703     TIP3     H1       HT       0.417000       1.00800           0
     36745 TIP3     2703     TIP3     H2       HT       0.417000       1.00800           0
     36746 TIP3     2704     TIP3     OH2      OT      -0.834000       15.9994           0
     36747 TIP3     2704     TIP3     H1       HT       0.417000       1.00800           0
     36748 TIP3     2704     TIP3     H2       HT       0.417000       1.00800           0
     36749 TIP3     2705     TIP3     OH2      OT      -0.834000       15.9994           0
     36750 TIP3     2705     TIP3     H1       HT       0.417000       1.00800           0
     36751 TIP3     2705     TIP3     H2       HT       0.417000       1.00800           0
     36752 TIP3     2706     TIP3     OH2      OT      -0.834000       15.9994           0
     36753 TIP3     2706     TIP3     H1       HT       0.417000       1.00800           0
     36754 TIP3     2706     TIP3     H2       HT       0.417000       1.00800           0
     36755 TIP3     2707     TIP3     OH2      OT      -0.834000       15.9994           0
     36756 TIP3     2707     TIP3     H1       HT       0.417000       1.00800           0
     36757 TIP3     2707     TIP3     H2       HT       0.417000       1.00800           0
     36758 TIP3     2708     TIP3     OH2      OT      -0.834000       15.9994           0
     36759 TIP3     2708     TIP3     H1       HT       0.417000       1.00800           0
     36760 TIP3     2708     TIP3     H2       HT       0.417000       1.00800           0
     36761 TIP3     2709     TIP3     OH2      OT      -0.834000       15.9994           0
     36762 TIP3     2709     TIP3     H1       HT       0.417000       1.00800           0
     36763 TIP3     2709     TIP3     H2       HT       0.417000       1.00800           0
     36764 TIP3     2710     TIP3     OH2      OT      -0.834000       15.9994           0
     36765 TIP3     2710     TIP3     H1       HT       0.417000       1.00800           0
     36766 TIP3     2710     TIP3     H2       HT       0.417000       1.00800           0
     36767 TIP3     2711     TIP3     OH2      OT      -0.834000       15.9994           0
     36768 TIP3     2711     TIP3     H1       HT       0.417000       1.00800           0
     36769 TIP3     2711     TIP3     H2       HT       0.417000       1.00800           0
     36770 TIP3     2712     TIP3     OH2      OT      -0.834000       15.9994           0
     36771 TIP3     2712     TIP3     H1       HT       0.417000       1.00800           0
     36772 TIP3     2712     TIP3     H2       HT       0.417000       1.00800           0
     36773 TIP3     2713     TIP3     OH2      OT      -0.834000       15.9994           0
     36774 TIP3     2713     TIP3     H1       HT       0.417000       1.00800           0
     36775 TIP3     2713     TIP3     H2       HT       0.417000       1.00800           0
     36776 TIP3     2714     TIP3     OH2      OT      -0.834000       15.9994           0
     36777 TIP3     2714     TIP3     H1       HT       0.417000       1.00800           0
     36778 TIP3     2714     TIP3     H2       HT       0.417000       1.00800           0
     36779 TIP3     2715     TIP3     OH2      OT      -0.834000       15.9994           0
     36780 TIP3     2715     TIP3     H1       HT       0.417000       1.00800           0
     36781 TIP3     2715     TIP3     H2       HT       0.417000       1.00800           0
     36782 TIP3     2716     TIP3     OH2      OT      -0.834000       15.9994           0
     36783 TIP3     2716     TIP3     H1       HT       0.417000       1.00800           0
     36784 TIP3     2716     TIP3     H2       HT       0.417000       1.00800           0
     36785 TIP3     2717     TIP3     OH2      OT      -0.834000       15.9994           0
     36786 TIP3     2717     TIP3     H1       HT       0.417000       1.00800           0
     36787 TIP3     2717     TIP3     H2       HT       0.417000       1.00800           0
     36788 TIP3     2718     TIP3     OH2      OT      -0.834000       15.9994           0
     36789 TIP3     2718     TIP3     H1       HT       0.417000       1.00800           0
     36790 TIP3     2718     TIP3     H2       HT       0.417000       1.00800           0
     36791 TIP3     2719     TIP3     OH2      OT      -0.834000       15.9994           0
     36792 TIP3     2719     TIP3     H1       HT       0.417000       1.00800           0
     36793 TIP3     2719     TIP3     H2       HT       0.417000       1.00800           0
     36794 TIP3     2720     TIP3     OH2      OT      -0.834000       15.9994           0
     36795 TIP3     2720     TIP3     H1       HT       0.417000       1.00800           0
     36796 TIP3     2720     TIP3     H2       HT       0.417000       1.00800           0
     36797 TIP3     2721     TIP3     OH2      OT      -0.834000       15.9994           0
     36798 TIP3     2721     TIP3     H1       HT       0.417000       1.00800           0
     36799 TIP3     2721     TIP3     H2       HT       0.417000       1.00800           0
     36800 TIP3     2722     TIP3     OH2      OT      -0.834000       15.9994           0
     36801 TIP3     2722     TIP3     H1       HT       0.417000       1.00800           0
     36802 TIP3     2722     TIP3     H2       HT       0.417000       1.00800           0
     36803 TIP3     2723     TIP3     OH2      OT      -0.834000       15.9994           0
     36804 TIP3     2723     TIP3     H1       HT       0.417000       1.00800           0
     36805 TIP3     2723     TIP3     H2       HT       0.417000       1.00800           0
     36806 TIP3     2724     TIP3     OH2      OT      -0.834000       15.9994           0
     36807 TIP3     2724     TIP3     H1       HT       0.417000       1.00800           0
     36808 TIP3     2724     TIP3     H2       HT       0.417000       1.00800           0
     36809 TIP3     2725     TIP3     OH2      OT      -0.834000       15.9994           0
     36810 TIP3     2725     TIP3     H1       HT       0.417000       1.00800           0
     36811 TIP3     2725     TIP3     H2       HT       0.417000       1.00800           0
     36812 TIP3     2726     TIP3     OH2      OT      -0.834000       15.9994           0
     36813 TIP3     2726     TIP3     H1       HT       0.417000       1.00800           0
     36814 TIP3     2726     TIP3     H2       HT       0.417000       1.00800           0
     36815 TIP3     2727     TIP3     OH2      OT      -0.834000       15.9994           0
     36816 TIP3     2727     TIP3     H1       HT       0.417000       1.00800           0
     36817 TIP3     2727     TIP3     H2       HT       0.417000       1.00800           0
     36818 TIP3     2728     TIP3     OH2      OT      -0.834000       15.9994           0
     36819 TIP3     2728     TIP3     H1       HT       0.417000       1.00800           0
     36820 TIP3     2728     TIP3     H2       HT       0.417000       1.00800           0
     36821 TIP3     2729     TIP3     OH2      OT      -0.834000       15.9994           0
     36822 TIP3     2729     TIP3     H1       HT       0.417000       1.00800           0
     36823 TIP3     2729     TIP3     H2       HT       0.417000       1.00800           0
     36824 TIP3     2730     TIP3     OH2      OT      -0.834000       15.9994           0
     36825 TIP3     2730     TIP3     H1       HT       0.417000       1.00800           0
     36826 TIP3     2730     TIP3     H2       HT       0.417000       1.00800           0
     36827 TIP3     2731     TIP3     OH2      OT      -0.834000       15.9994           0
     36828 TIP3     2731     TIP3     H1       HT       0.417000       1.00800           0
     36829 TIP3     2731     TIP3     H2       HT       0.417000       1.00800           0
     36830 TIP3     2732     TIP3     OH2      OT      -0.834000       15.9994           0
     36831 TIP3     2732     TIP3     H1       HT       0.417000       1.00800           0
     36832 TIP3     2732     TIP3     H2       HT       0.417000       1.00800           0
     36833 TIP3     2733     TIP3     OH2      OT      -0.834000       15.9994           0
     36834 TIP3     2733     TIP3     H1       HT       0.417000       1.00800           0
     36835 TIP3     2733     TIP3     H2       HT       0.417000       1.00800           0
     36836 TIP3     2734     TIP3     OH2      OT      -0.834000       15.9994           0
     36837 TIP3     2734     TIP3     H1       HT       0.417000       1.00800           0
     36838 TIP3     2734     TIP3     H2       HT       0.417000       1.00800           0
     36839 TIP3     2735     TIP3     OH2      OT      -0.834000       15.9994           0
     36840 TIP3     2735     TIP3     H1       HT       0.417000       1.00800           0
     36841 TIP3     2735     TIP3     H2       HT       0.417000       1.00800           0
     36842 TIP3     2736     TIP3     OH2      OT      -0.834000       15.9994           0
     36843 TIP3     2736     TIP3     H1       HT       0.417000       1.00800           0
     36844 TIP3     2736     TIP3     H2       HT       0.417000       1.00800           0
     36845 TIP3     2737     TIP3     OH2      OT      -0.834000       15.9994           0
     36846 TIP3     2737     TIP3     H1       HT       0.417000       1.00800           0
     36847 TIP3     2737     TIP3     H2       HT       0.417000       1.00800           0
     36848 TIP3     2738     TIP3     OH2      OT      -0.834000       15.9994           0
     36849 TIP3     2738     TIP3     H1       HT       0.417000       1.00800           0
     36850 TIP3     2738     TIP3     H2       HT       0.417000       1.00800           0
     36851 TIP3     2739     TIP3     OH2      OT      -0.834000       15.9994           0
     36852 TIP3     2739     TIP3     H1       HT       0.417000       1.00800           0
     36853 TIP3     2739     TIP3     H2       HT       0.417000       1.00800           0
     36854 TIP3     2740     TIP3     OH2      OT      -0.834000       15.9994           0
     36855 TIP3     2740     TIP3     H1       HT       0.417000       1.00800           0
     36856 TIP3     2740     TIP3     H2       HT       0.417000       1.00800           0
     36857 TIP3     2741     TIP3     OH2      OT      -0.834000       15.9994           0
     36858 TIP3     2741     TIP3     H1       HT       0.417000       1.00800           0
     36859 TIP3     2741     TIP3     H2       HT       0.417000       1.00800           0
     36860 TIP3     2742     TIP3     OH2      OT      -0.834000       15.9994           0
     36861 TIP3     2742     TIP3     H1       HT       0.417000       1.00800           0
     36862 TIP3     2742     TIP3     H2       HT       0.417000       1.00800           0
     36863 TIP3     2743     TIP3     OH2      OT      -0.834000       15.9994           0
     36864 TIP3     2743     TIP3     H1       HT       0.417000       1.00800           0
     36865 TIP3     2743     TIP3     H2       HT       0.417000       1.00800           0
     36866 TIP3     2744     TIP3     OH2      OT      -0.834000       15.9994           0
     36867 TIP3     2744     TIP3     H1       HT       0.417000       1.00800           0
     36868 TIP3     2744     TIP3     H2       HT       0.417000       1.00800           0
     36869 TIP3     2745     TIP3     OH2      OT      -0.834000       15.9994           0
     36870 TIP3     2745     TIP3     H1       HT       0.417000       1.00800           0
     36871 TIP3     2745     TIP3     H2       HT       0.417000       1.00800           0
     36872 TIP3     2746     TIP3     OH2      OT      -0.834000       15.9994           0
     36873 TIP3     2746     TIP3     H1       HT       0.417000       1.00800           0
     36874 TIP3     2746     TIP3     H2       HT       0.417000       1.00800           0
     36875 TIP3     2747     TIP3     OH2      OT      -0.834000       15.9994           0
     36876 TIP3     2747     TIP3     H1       HT       0.417000       1.00800           0
     36877 TIP3     2747     TIP3     H2       HT       0.417000       1.00800           0
     36878 TIP3     2748     TIP3     OH2      OT      -0.834000       15.9994           0
     36879 TIP3     2748     TIP3     H1       HT       0.417000       1.00800           0
     36880 TIP3     2748     TIP3     H2       HT       0.417000       1.00800           0
     36881 TIP3     2749     TIP3     OH2      OT      -0.834000       15.9994           0
     36882 TIP3     2749     TIP3     H1       HT       0.417000       1.00800           0
     36883 TIP3     2749     TIP3     H2       HT       0.417000       1.00800           0
     36884 TIP3     2750     TIP3     OH2      OT      -0.834000       15.9994           0
     36885 TIP3     2750     TIP3     H1       HT       0.417000       1.00800           0
     36886 TIP3     2750     TIP3     H2       HT       0.417000       1.00800           0
     36887 TIP3     2751     TIP3     OH2      OT      -0.834000       15.9994           0
     36888 TIP3     2751     TIP3     H1       HT       0.417000       1.00800           0
     36889 TIP3     2751     TIP3     H2       HT       0.417000       1.00800           0
     36890 TIP3     2752     TIP3     OH2      OT      -0.834000       15.9994           0
     36891 TIP3     2752     TIP3     H1       HT       0.417000       1.00800           0
     36892 TIP3     2752     TIP3     H2       HT       0.417000       1.00800           0
     36893 TIP3     2753     TIP3     OH2      OT      -0.834000       15.9994           0
     36894 TIP3     2753     TIP3     H1       HT       0.417000       1.00800           0
     36895 TIP3     2753     TIP3     H2       HT       0.417000       1.00800           0
     36896 TIP3     2754     TIP3     OH2      OT      -0.834000       15.9994           0
     36897 TIP3     2754     TIP3     H1       HT       0.417000       1.00800           0
     36898 TIP3     2754     TIP3     H2       HT       0.417000       1.00800           0
     36899 TIP3     2755     TIP3     OH2      OT      -0.834000       15.9994           0
     36900 TIP3     2755     TIP3     H1       HT       0.417000       1.00800           0
     36901 TIP3     2755     TIP3     H2       HT       0.417000       1.00800           0
     36902 TIP3     2756     TIP3     OH2      OT      -0.834000       15.9994           0
     36903 TIP3     2756     TIP3     H1       HT       0.417000       1.00800           0
     36904 TIP3     2756     TIP3     H2       HT       0.417000       1.00800           0
     36905 TIP3     2757     TIP3     OH2      OT      -0.834000       15.9994           0
     36906 TIP3     2757     TIP3     H1       HT       0.417000       1.00800           0
     36907 TIP3     2757     TIP3     H2       HT       0.417000       1.00800           0
     36908 TIP3     2758     TIP3     OH2      OT      -0.834000       15.9994           0
     36909 TIP3     2758     TIP3     H1       HT       0.417000       1.00800           0
     36910 TIP3     2758     TIP3     H2       HT       0.417000       1.00800           0
     36911 TIP3     2759     TIP3     OH2      OT      -0.834000       15.9994           0
     36912 TIP3     2759     TIP3     H1       HT       0.417000       1.00800           0
     36913 TIP3     2759     TIP3     H2       HT       0.417000       1.00800           0
     36914 TIP3     2760     TIP3     OH2      OT      -0.834000       15.9994           0
     36915 TIP3     2760     TIP3     H1       HT       0.417000       1.00800           0
     36916 TIP3     2760     TIP3     H2       HT       0.417000       1.00800           0
     36917 TIP3     2761     TIP3     OH2      OT      -0.834000       15.9994           0
     36918 TIP3     2761     TIP3     H1       HT       0.417000       1.00800           0
     36919 TIP3     2761     TIP3     H2       HT       0.417000       1.00800           0
     36920 TIP3     2762     TIP3     OH2      OT      -0.834000       15.9994           0
     36921 TIP3     2762     TIP3     H1       HT       0.417000       1.00800           0
     36922 TIP3     2762     TIP3     H2       HT       0.417000       1.00800           0
     36923 TIP3     2763     TIP3     OH2      OT      -0.834000       15.9994           0
     36924 TIP3     2763     TIP3     H1       HT       0.417000       1.00800           0
     36925 TIP3     2763     TIP3     H2       HT       0.417000       1.00800           0
     36926 TIP3     2764     TIP3     OH2      OT      -0.834000       15.9994           0
     36927 TIP3     2764     TIP3     H1       HT       0.417000       1.00800           0
     36928 TIP3     2764     TIP3     H2       HT       0.417000       1.00800           0
     36929 TIP3     2765     TIP3     OH2      OT      -0.834000       15.9994           0
     36930 TIP3     2765     TIP3     H1       HT       0.417000       1.00800           0
     36931 TIP3     2765     TIP3     H2       HT       0.417000       1.00800           0
     36932 TIP3     2766     TIP3     OH2      OT      -0.834000       15.9994           0
     36933 TIP3     2766     TIP3     H1       HT       0.417000       1.00800           0
     36934 TIP3     2766     TIP3     H2       HT       0.417000       1.00800           0
     36935 TIP3     2767     TIP3     OH2      OT      -0.834000       15.9994           0
     36936 TIP3     2767     TIP3     H1       HT       0.417000       1.00800           0
     36937 TIP3     2767     TIP3     H2       HT       0.417000       1.00800           0
     36938 TIP3     2768     TIP3     OH2      OT      -0.834000       15.9994           0
     36939 TIP3     2768     TIP3     H1       HT       0.417000       1.00800           0
     36940 TIP3     2768     TIP3     H2       HT       0.417000       1.00800           0
     36941 TIP3     2769     TIP3     OH2      OT      -0.834000       15.9994           0
     36942 TIP3     2769     TIP3     H1       HT       0.417000       1.00800           0
     36943 TIP3     2769     TIP3     H2       HT       0.417000       1.00800           0
     36944 TIP3     2770     TIP3     OH2      OT      -0.834000       15.9994           0
     36945 TIP3     2770     TIP3     H1       HT       0.417000       1.00800           0
     36946 TIP3     2770     TIP3     H2       HT       0.417000       1.00800           0
     36947 TIP3     2771     TIP3     OH2      OT      -0.834000       15.9994           0
     36948 TIP3     2771     TIP3     H1       HT       0.417000       1.00800           0
     36949 TIP3     2771     TIP3     H2       HT       0.417000       1.00800           0
     36950 TIP3     2772     TIP3     OH2      OT      -0.834000       15.9994           0
     36951 TIP3     2772     TIP3     H1       HT       0.417000       1.00800           0
     36952 TIP3     2772     TIP3     H2       HT       0.417000       1.00800           0
     36953 TIP3     2773     TIP3     OH2      OT      -0.834000       15.9994           0
     36954 TIP3     2773     TIP3     H1       HT       0.417000       1.00800           0
     36955 TIP3     2773     TIP3     H2       HT       0.417000       1.00800           0
     36956 TIP3     2774     TIP3     OH2      OT      -0.834000       15.9994           0
     36957 TIP3     2774     TIP3     H1       HT       0.417000       1.00800           0
     36958 TIP3     2774     TIP3     H2       HT       0.417000       1.00800           0
     36959 TIP3     2775     TIP3     OH2      OT      -0.834000       15.9994           0
     36960 TIP3     2775     TIP3     H1       HT       0.417000       1.00800           0
     36961 TIP3     2775     TIP3     H2       HT       0.417000       1.00800           0
     36962 TIP3     2776     TIP3     OH2      OT      -0.834000       15.9994           0
     36963 TIP3     2776     TIP3     H1       HT       0.417000       1.00800           0
     36964 TIP3     2776     TIP3     H2       HT       0.417000       1.00800           0
     36965 TIP3     2777     TIP3     OH2      OT      -0.834000       15.9994           0
     36966 TIP3     2777     TIP3     H1       HT       0.417000       1.00800           0
     36967 TIP3     2777     TIP3     H2       HT       0.417000       1.00800           0
     36968 TIP3     2778     TIP3     OH2      OT      -0.834000       15.9994           0
     36969 TIP3     2778     TIP3     H1       HT       0.417000       1.00800           0
     36970 TIP3     2778     TIP3     H2       HT       0.417000       1.00800           0
     36971 TIP3     2779     TIP3     OH2      OT      -0.834000       15.9994           0
     36972 TIP3     2779     TIP3     H1       HT       0.417000       1.00800           0
     36973 TIP3     2779     TIP3     H2       HT       0.417000       1.00800           0
     36974 TIP3     2780     TIP3     OH2      OT      -0.834000       15.9994           0
     36975 TIP3     2780     TIP3     H1       HT       0.417000       1.00800           0
     36976 TIP3     2780     TIP3     H2       HT       0.417000       1.00800           0
     36977 TIP3     2781     TIP3     OH2      OT      -0.834000       15.9994           0
     36978 TIP3     2781     TIP3     H1       HT       0.417000       1.00800           0
     36979 TIP3     2781     TIP3     H2       HT       0.417000       1.00800           0
     36980 TIP3     2782     TIP3     OH2      OT      -0.834000       15.9994           0
     36981 TIP3     2782     TIP3     H1       HT       0.417000       1.00800           0
     36982 TIP3     2782     TIP3     H2       HT       0.417000       1.00800           0
     36983 TIP3     2783     TIP3     OH2      OT      -0.834000       15.9994           0
     36984 TIP3     2783     TIP3     H1       HT       0.417000       1.00800           0
     36985 TIP3     2783     TIP3     H2       HT       0.417000       1.00800           0
     36986 TIP3     2784     TIP3     OH2      OT      -0.834000       15.9994           0
     36987 TIP3     2784     TIP3     H1       HT       0.417000       1.00800           0
     36988 TIP3     2784     TIP3     H2       HT       0.417000       1.00800           0
     36989 TIP3     2785     TIP3     OH2      OT      -0.834000       15.9994           0
     36990 TIP3     2785     TIP3     H1       HT       0.417000       1.00800           0
     36991 TIP3     2785     TIP3     H2       HT       0.417000       1.00800           0
     36992 TIP3     2786     TIP3     OH2      OT      -0.834000       15.9994           0
     36993 TIP3     2786     TIP3     H1       HT       0.417000       1.00800           0
     36994 TIP3     2786     TIP3     H2       HT       0.417000       1.00800           0
     36995 TIP3     2787     TIP3     OH2      OT      -0.834000       15.9994           0
     36996 TIP3     2787     TIP3     H1       HT       0.417000       1.00800           0
     36997 TIP3     2787     TIP3     H2       HT       0.417000       1.00800           0
     36998 TIP3     2788     TIP3     OH2      OT      -0.834000       15.9994           0
     36999 TIP3     2788     TIP3     H1       HT       0.417000       1.00800           0
     37000 TIP3     2788     TIP3     H2       HT       0.417000       1.00800           0
     37001 TIP3     2789     TIP3     OH2      OT      -0.834000       15.9994           0
     37002 TIP3     2789     TIP3     H1       HT       0.417000       1.00800           0
     37003 TIP3     2789     TIP3     H2       HT       0.417000       1.00800           0
     37004 TIP3     2790     TIP3     OH2      OT      -0.834000       15.9994           0
     37005 TIP3     2790     TIP3     H1       HT       0.417000       1.00800           0
     37006 TIP3     2790     TIP3     H2       HT       0.417000       1.00800           0
     37007 TIP3     2791     TIP3     OH2      OT      -0.834000       15.9994           0
     37008 TIP3     2791     TIP3     H1       HT       0.417000       1.00800           0
     37009 TIP3     2791     TIP3     H2       HT       0.417000       1.00800           0
     37010 TIP3     2792     TIP3     OH2      OT      -0.834000       15.9994           0
     37011 TIP3     2792     TIP3     H1       HT       0.417000       1.00800           0
     37012 TIP3     2792     TIP3     H2       HT       0.417000       1.00800           0
     37013 TIP3     2793     TIP3     OH2      OT      -0.834000       15.9994           0
     37014 TIP3     2793     TIP3     H1       HT       0.417000       1.00800           0
     37015 TIP3     2793     TIP3     H2       HT       0.417000       1.00800           0
     37016 TIP3     2794     TIP3     OH2      OT      -0.834000       15.9994           0
     37017 TIP3     2794     TIP3     H1       HT       0.417000       1.00800           0
     37018 TIP3     2794     TIP3     H2       HT       0.417000       1.00800           0
     37019 TIP3     2795     TIP3     OH2      OT      -0.834000       15.9994           0
     37020 TIP3     2795     TIP3     H1       HT       0.417000       1.00800           0
     37021 TIP3     2795     TIP3     H2       HT       0.417000       1.00800           0
     37022 TIP3     2796     TIP3     OH2      OT      -0.834000       15.9994           0
     37023 TIP3     2796     TIP3     H1       HT       0.417000       1.00800           0
     37024 TIP3     2796     TIP3     H2       HT       0.417000       1.00800           0
     37025 TIP3     2797     TIP3     OH2      OT      -0.834000       15.9994           0
     37026 TIP3     2797     TIP3     H1       HT       0.417000       1.00800           0
     37027 TIP3     2797     TIP3     H2       HT       0.417000       1.00800           0
     37028 TIP3     2798     TIP3     OH2      OT      -0.834000       15.9994           0
     37029 TIP3     2798     TIP3     H1       HT       0.417000       1.00800           0
     37030 TIP3     2798     TIP3     H2       HT       0.417000       1.00800           0
     37031 TIP3     2799     TIP3     OH2      OT      -0.834000       15.9994           0
     37032 TIP3     2799     TIP3     H1       HT       0.417000       1.00800           0
     37033 TIP3     2799     TIP3     H2       HT       0.417000       1.00800           0
     37034 TIP3     2800     TIP3     OH2      OT      -0.834000       15.9994           0
     37035 TIP3     2800     TIP3     H1       HT       0.417000       1.00800           0
     37036 TIP3     2800     TIP3     H2       HT       0.417000       1.00800           0
     37037 TIP3     2801     TIP3     OH2      OT      -0.834000       15.9994           0
     37038 TIP3     2801     TIP3     H1       HT       0.417000       1.00800           0
     37039 TIP3     2801     TIP3     H2       HT       0.417000       1.00800           0
     37040 TIP3     2802     TIP3     OH2      OT      -0.834000       15.9994           0
     37041 TIP3     2802     TIP3     H1       HT       0.417000       1.00800           0
     37042 TIP3     2802     TIP3     H2       HT       0.417000       1.00800           0
     37043 TIP3     2803     TIP3     OH2      OT      -0.834000       15.9994           0
     37044 TIP3     2803     TIP3     H1       HT       0.417000       1.00800           0
     37045 TIP3     2803     TIP3     H2       HT       0.417000       1.00800           0
     37046 TIP3     2804     TIP3     OH2      OT      -0.834000       15.9994           0
     37047 TIP3     2804     TIP3     H1       HT       0.417000       1.00800           0
     37048 TIP3     2804     TIP3     H2       HT       0.417000       1.00800           0
     37049 TIP3     2805     TIP3     OH2      OT      -0.834000       15.9994           0
     37050 TIP3     2805     TIP3     H1       HT       0.417000       1.00800           0
     37051 TIP3     2805     TIP3     H2       HT       0.417000       1.00800           0
     37052 TIP3     2806     TIP3     OH2      OT      -0.834000       15.9994           0
     37053 TIP3     2806     TIP3     H1       HT       0.417000       1.00800           0
     37054 TIP3     2806     TIP3     H2       HT       0.417000       1.00800           0
     37055 TIP3     2807     TIP3     OH2      OT      -0.834000       15.9994           0
     37056 TIP3     2807     TIP3     H1       HT       0.417000       1.00800           0
     37057 TIP3     2807     TIP3     H2       HT       0.417000       1.00800           0
     37058 TIP3     2808     TIP3     OH2      OT      -0.834000       15.9994           0
     37059 TIP3     2808     TIP3     H1       HT       0.417000       1.00800           0
     37060 TIP3     2808     TIP3     H2       HT       0.417000       1.00800           0
     37061 TIP3     2809     TIP3     OH2      OT      -0.834000       15.9994           0
     37062 TIP3     2809     TIP3     H1       HT       0.417000       1.00800           0
     37063 TIP3     2809     TIP3     H2       HT       0.417000       1.00800           0
     37064 TIP3     2810     TIP3     OH2      OT      -0.834000       15.9994           0
     37065 TIP3     2810     TIP3     H1       HT       0.417000       1.00800           0
     37066 TIP3     2810     TIP3     H2       HT       0.417000       1.00800           0
     37067 TIP3     2811     TIP3     OH2      OT      -0.834000       15.9994           0
     37068 TIP3     2811     TIP3     H1       HT       0.417000       1.00800           0
     37069 TIP3     2811     TIP3     H2       HT       0.417000       1.00800           0
     37070 TIP3     2812     TIP3     OH2      OT      -0.834000       15.9994           0
     37071 TIP3     2812     TIP3     H1       HT       0.417000       1.00800           0
     37072 TIP3     2812     TIP3     H2       HT       0.417000       1.00800           0
     37073 TIP3     2813     TIP3     OH2      OT      -0.834000       15.9994           0
     37074 TIP3     2813     TIP3     H1       HT       0.417000       1.00800           0
     37075 TIP3     2813     TIP3     H2       HT       0.417000       1.00800           0
     37076 TIP3     2814     TIP3     OH2      OT      -0.834000       15.9994           0
     37077 TIP3     2814     TIP3     H1       HT       0.417000       1.00800           0
     37078 TIP3     2814     TIP3     H2       HT       0.417000       1.00800           0
     37079 TIP3     2815     TIP3     OH2      OT      -0.834000       15.9994           0
     37080 TIP3     2815     TIP3     H1       HT       0.417000       1.00800           0
     37081 TIP3     2815     TIP3     H2       HT       0.417000       1.00800           0
     37082 TIP3     2816     TIP3     OH2      OT      -0.834000       15.9994           0
     37083 TIP3     2816     TIP3     H1       HT       0.417000       1.00800           0
     37084 TIP3     2816     TIP3     H2       HT       0.417000       1.00800           0
     37085 TIP3     2817     TIP3     OH2      OT      -0.834000       15.9994           0
     37086 TIP3     2817     TIP3     H1       HT       0.417000       1.00800           0
     37087 TIP3     2817     TIP3     H2       HT       0.417000       1.00800           0
     37088 TIP3     2818     TIP3     OH2      OT      -0.834000       15.9994           0
     37089 TIP3     2818     TIP3     H1       HT       0.417000       1.00800           0
     37090 TIP3     2818     TIP3     H2       HT       0.417000       1.00800           0
     37091 TIP3     2819     TIP3     OH2      OT      -0.834000       15.9994           0
     37092 TIP3     2819     TIP3     H1       HT       0.417000       1.00800           0
     37093 TIP3     2819     TIP3     H2       HT       0.417000       1.00800           0
     37094 TIP3     2820     TIP3     OH2      OT      -0.834000       15.9994           0
     37095 TIP3     2820     TIP3     H1       HT       0.417000       1.00800           0
     37096 TIP3     2820     TIP3     H2       HT       0.417000       1.00800           0
     37097 TIP3     2821     TIP3     OH2      OT      -0.834000       15.9994           0
     37098 TIP3     2821     TIP3     H1       HT       0.417000       1.00800           0
     37099 TIP3     2821     TIP3     H2       HT       0.417000       1.00800           0
     37100 TIP3     2822     TIP3     OH2      OT      -0.834000       15.9994           0
     37101 TIP3     2822     TIP3     H1       HT       0.417000       1.00800           0
     37102 TIP3     2822     TIP3     H2       HT       0.417000       1.00800           0
     37103 TIP3     2823     TIP3     OH2      OT      -0.834000       15.9994           0
     37104 TIP3     2823     TIP3     H1       HT       0.417000       1.00800           0
     37105 TIP3     2823     TIP3     H2       HT       0.417000       1.00800           0
     37106 TIP3     2824     TIP3     OH2      OT      -0.834000       15.9994           0
     37107 TIP3     2824     TIP3     H1       HT       0.417000       1.00800           0
     37108 TIP3     2824     TIP3     H2       HT       0.417000       1.00800           0
     37109 TIP3     2825     TIP3     OH2      OT      -0.834000       15.9994           0
     37110 TIP3     2825     TIP3     H1       HT       0.417000       1.00800           0
     37111 TIP3     2825     TIP3     H2       HT       0.417000       1.00800           0
     37112 TIP3     2826     TIP3     OH2      OT      -0.834000       15.9994           0
     37113 TIP3     2826     TIP3     H1       HT       0.417000       1.00800           0
     37114 TIP3     2826     TIP3     H2       HT       0.417000       1.00800           0
     37115 TIP3     2827     TIP3     OH2      OT      -0.834000       15.9994           0
     37116 TIP3     2827     TIP3     H1       HT       0.417000       1.00800           0
     37117 TIP3     2827     TIP3     H2       HT       0.417000       1.00800           0
     37118 TIP3     2828     TIP3     OH2      OT      -0.834000       15.9994           0
     37119 TIP3     2828     TIP3     H1       HT       0.417000       1.00800           0
     37120 TIP3     2828     TIP3     H2       HT       0.417000       1.00800           0
     37121 TIP3     2829     TIP3     OH2      OT      -0.834000       15.9994           0
     37122 TIP3     2829     TIP3     H1       HT       0.417000       1.00800           0
     37123 TIP3     2829     TIP3     H2       HT       0.417000       1.00800           0
     37124 TIP3     2830     TIP3     OH2      OT      -0.834000       15.9994           0
     37125 TIP3     2830     TIP3     H1       HT       0.417000       1.00800           0
     37126 TIP3     2830     TIP3     H2       HT       0.417000       1.00800           0
     37127 TIP3     2831     TIP3     OH2      OT      -0.834000       15.9994           0
     37128 TIP3     2831     TIP3     H1       HT       0.417000       1.00800           0
     37129 TIP3     2831     TIP3     H2       HT       0.417000       1.00800           0
     37130 TIP3     2832     TIP3     OH2      OT      -0.834000       15.9994           0
     37131 TIP3     2832     TIP3     H1       HT       0.417000       1.00800           0
     37132 TIP3     2832     TIP3     H2       HT       0.417000       1.00800           0
     37133 TIP3     2833     TIP3     OH2      OT      -0.834000       15.9994           0
     37134 TIP3     2833     TIP3     H1       HT       0.417000       1.00800           0
     37135 TIP3     2833     TIP3     H2       HT       0.417000       1.00800           0
     37136 TIP3     2834     TIP3     OH2      OT      -0.834000       15.9994           0
     37137 TIP3     2834     TIP3     H1       HT       0.417000       1.00800           0
     37138 TIP3     2834     TIP3     H2       HT       0.417000       1.00800           0
     37139 TIP3     2835     TIP3     OH2      OT      -0.834000       15.9994           0
     37140 TIP3     2835     TIP3     H1       HT       0.417000       1.00800           0
     37141 TIP3     2835     TIP3     H2       HT       0.417000       1.00800           0
     37142 TIP3     2836     TIP3     OH2      OT      -0.834000       15.9994           0
     37143 TIP3     2836     TIP3     H1       HT       0.417000       1.00800           0
     37144 TIP3     2836     TIP3     H2       HT       0.417000       1.00800           0
     37145 TIP3     2837     TIP3     OH2      OT      -0.834000       15.9994           0
     37146 TIP3     2837     TIP3     H1       HT       0.417000       1.00800           0
     37147 TIP3     2837     TIP3     H2       HT       0.417000       1.00800           0
     37148 TIP3     2838     TIP3     OH2      OT      -0.834000       15.9994           0
     37149 TIP3     2838     TIP3     H1       HT       0.417000       1.00800           0
     37150 TIP3     2838     TIP3     H2       HT       0.417000       1.00800           0
     37151 TIP3     2839     TIP3     OH2      OT      -0.834000       15.9994           0
     37152 TIP3     2839     TIP3     H1       HT       0.417000       1.00800           0
     37153 TIP3     2839     TIP3     H2       HT       0.417000       1.00800           0
     37154 TIP3     2840     TIP3     OH2      OT      -0.834000       15.9994           0
     37155 TIP3     2840     TIP3     H1       HT       0.417000       1.00800           0
     37156 TIP3     2840     TIP3     H2       HT       0.417000       1.00800           0
     37157 TIP3     2841     TIP3     OH2      OT      -0.834000       15.9994           0
     37158 TIP3     2841     TIP3     H1       HT       0.417000       1.00800           0
     37159 TIP3     2841     TIP3     H2       HT       0.417000       1.00800           0
     37160 TIP3     2842     TIP3     OH2      OT      -0.834000       15.9994           0
     37161 TIP3     2842     TIP3     H1       HT       0.417000       1.00800           0
     37162 TIP3     2842     TIP3     H2       HT       0.417000       1.00800           0
     37163 TIP3     2843     TIP3     OH2      OT      -0.834000       15.9994           0
     37164 TIP3     2843     TIP3     H1       HT       0.417000       1.00800           0
     37165 TIP3     2843     TIP3     H2       HT       0.417000       1.00800           0
     37166 TIP3     2844     TIP3     OH2      OT      -0.834000       15.9994           0
     37167 TIP3     2844     TIP3     H1       HT       0.417000       1.00800           0
     37168 TIP3     2844     TIP3     H2       HT       0.417000       1.00800           0
     37169 TIP3     2845     TIP3     OH2      OT      -0.834000       15.9994           0
     37170 TIP3     2845     TIP3     H1       HT       0.417000       1.00800           0
     37171 TIP3     2845     TIP3     H2       HT       0.417000       1.00800           0
     37172 TIP3     2846     TIP3     OH2      OT      -0.834000       15.9994           0
     37173 TIP3     2846     TIP3     H1       HT       0.417000       1.00800           0
     37174 TIP3     2846     TIP3     H2       HT       0.417000       1.00800           0
     37175 TIP3     2847     TIP3     OH2      OT      -0.834000       15.9994           0
     37176 TIP3     2847     TIP3     H1       HT       0.417000       1.00800           0
     37177 TIP3     2847     TIP3     H2       HT       0.417000       1.00800           0
     37178 TIP3     2848     TIP3     OH2      OT      -0.834000       15.9994           0
     37179 TIP3     2848     TIP3     H1       HT       0.417000       1.00800           0
     37180 TIP3     2848     TIP3     H2       HT       0.417000       1.00800           0
     37181 TIP3     2849     TIP3     OH2      OT      -0.834000       15.9994           0
     37182 TIP3     2849     TIP3     H1       HT       0.417000       1.00800           0
     37183 TIP3     2849     TIP3     H2       HT       0.417000       1.00800           0
     37184 TIP3     2850     TIP3     OH2      OT      -0.834000       15.9994           0
     37185 TIP3     2850     TIP3     H1       HT       0.417000       1.00800           0
     37186 TIP3     2850     TIP3     H2       HT       0.417000       1.00800           0
     37187 TIP3     2851     TIP3     OH2      OT      -0.834000       15.9994           0
     37188 TIP3     2851     TIP3     H1       HT       0.417000       1.00800           0
     37189 TIP3     2851     TIP3     H2       HT       0.417000       1.00800           0
     37190 TIP3     2852     TIP3     OH2      OT      -0.834000       15.9994           0
     37191 TIP3     2852     TIP3     H1       HT       0.417000       1.00800           0
     37192 TIP3     2852     TIP3     H2       HT       0.417000       1.00800           0
     37193 TIP3     2853     TIP3     OH2      OT      -0.834000       15.9994           0
     37194 TIP3     2853     TIP3     H1       HT       0.417000       1.00800           0
     37195 TIP3     2853     TIP3     H2       HT       0.417000       1.00800           0
     37196 TIP3     2854     TIP3     OH2      OT      -0.834000       15.9994           0
     37197 TIP3     2854     TIP3     H1       HT       0.417000       1.00800           0
     37198 TIP3     2854     TIP3     H2       HT       0.417000       1.00800           0
     37199 TIP3     2855     TIP3     OH2      OT      -0.834000       15.9994           0
     37200 TIP3     2855     TIP3     H1       HT       0.417000       1.00800           0
     37201 TIP3     2855     TIP3     H2       HT       0.417000       1.00800           0
     37202 TIP3     2856     TIP3     OH2      OT      -0.834000       15.9994           0
     37203 TIP3     2856     TIP3     H1       HT       0.417000       1.00800           0
     37204 TIP3     2856     TIP3     H2       HT       0.417000       1.00800           0
     37205 TIP3     2857     TIP3     OH2      OT      -0.834000       15.9994           0
     37206 TIP3     2857     TIP3     H1       HT       0.417000       1.00800           0
     37207 TIP3     2857     TIP3     H2       HT       0.417000       1.00800           0
     37208 TIP3     2858     TIP3     OH2      OT      -0.834000       15.9994           0
     37209 TIP3     2858     TIP3     H1       HT       0.417000       1.00800           0
     37210 TIP3     2858     TIP3     H2       HT       0.417000       1.00800           0
     37211 TIP3     2859     TIP3     OH2      OT      -0.834000       15.9994           0
     37212 TIP3     2859     TIP3     H1       HT       0.417000       1.00800           0
     37213 TIP3     2859     TIP3     H2       HT       0.417000       1.00800           0
     37214 TIP3     2860     TIP3     OH2      OT      -0.834000       15.9994           0
     37215 TIP3     2860     TIP3     H1       HT       0.417000       1.00800           0
     37216 TIP3     2860     TIP3     H2       HT       0.417000       1.00800           0
     37217 TIP3     2861     TIP3     OH2      OT      -0.834000       15.9994           0
     37218 TIP3     2861     TIP3     H1       HT       0.417000       1.00800           0
     37219 TIP3     2861     TIP3     H2       HT       0.417000       1.00800           0
     37220 TIP3     2862     TIP3     OH2      OT      -0.834000       15.9994           0
     37221 TIP3     2862     TIP3     H1       HT       0.417000       1.00800           0
     37222 TIP3     2862     TIP3     H2       HT       0.417000       1.00800           0
     37223 TIP3     2863     TIP3     OH2      OT      -0.834000       15.9994           0
     37224 TIP3     2863     TIP3     H1       HT       0.417000       1.00800           0
     37225 TIP3     2863     TIP3     H2       HT       0.417000       1.00800           0
     37226 TIP3     2864     TIP3     OH2      OT      -0.834000       15.9994           0
     37227 TIP3     2864     TIP3     H1       HT       0.417000       1.00800           0
     37228 TIP3     2864     TIP3     H2       HT       0.417000       1.00800           0
     37229 TIP3     2865     TIP3     OH2      OT      -0.834000       15.9994           0
     37230 TIP3     2865     TIP3     H1       HT       0.417000       1.00800           0
     37231 TIP3     2865     TIP3     H2       HT       0.417000       1.00800           0
     37232 TIP3     2866     TIP3     OH2      OT      -0.834000       15.9994           0
     37233 TIP3     2866     TIP3     H1       HT       0.417000       1.00800           0
     37234 TIP3     2866     TIP3     H2       HT       0.417000       1.00800           0
     37235 TIP3     2867     TIP3     OH2      OT      -0.834000       15.9994           0
     37236 TIP3     2867     TIP3     H1       HT       0.417000       1.00800           0
     37237 TIP3     2867     TIP3     H2       HT       0.417000       1.00800           0
     37238 TIP3     2868     TIP3     OH2      OT      -0.834000       15.9994           0
     37239 TIP3     2868     TIP3     H1       HT       0.417000       1.00800           0
     37240 TIP3     2868     TIP3     H2       HT       0.417000       1.00800           0
     37241 TIP3     2869     TIP3     OH2      OT      -0.834000       15.9994           0
     37242 TIP3     2869     TIP3     H1       HT       0.417000       1.00800           0
     37243 TIP3     2869     TIP3     H2       HT       0.417000       1.00800           0
     37244 TIP3     2870     TIP3     OH2      OT      -0.834000       15.9994           0
     37245 TIP3     2870     TIP3     H1       HT       0.417000       1.00800           0
     37246 TIP3     2870     TIP3     H2       HT       0.417000       1.00800           0
     37247 TIP3     2871     TIP3     OH2      OT      -0.834000       15.9994           0
     37248 TIP3     2871     TIP3     H1       HT       0.417000       1.00800           0
     37249 TIP3     2871     TIP3     H2       HT       0.417000       1.00800           0
     37250 TIP3     2872     TIP3     OH2      OT      -0.834000       15.9994           0
     37251 TIP3     2872     TIP3     H1       HT       0.417000       1.00800           0
     37252 TIP3     2872     TIP3     H2       HT       0.417000       1.00800           0
     37253 TIP3     2873     TIP3     OH2      OT      -0.834000       15.9994           0
     37254 TIP3     2873     TIP3     H1       HT       0.417000       1.00800           0
     37255 TIP3     2873     TIP3     H2       HT       0.417000       1.00800           0
     37256 TIP3     2874     TIP3     OH2      OT      -0.834000       15.9994           0
     37257 TIP3     2874     TIP3     H1       HT       0.417000       1.00800           0
     37258 TIP3     2874     TIP3     H2       HT       0.417000       1.00800           0
     37259 TIP3     2875     TIP3     OH2      OT      -0.834000       15.9994           0
     37260 TIP3     2875     TIP3     H1       HT       0.417000       1.00800           0
     37261 TIP3     2875     TIP3     H2       HT       0.417000       1.00800           0
     37262 TIP3     2876     TIP3     OH2      OT      -0.834000       15.9994           0
     37263 TIP3     2876     TIP3     H1       HT       0.417000       1.00800           0
     37264 TIP3     2876     TIP3     H2       HT       0.417000       1.00800           0
     37265 TIP3     2877     TIP3     OH2      OT      -0.834000       15.9994           0
     37266 TIP3     2877     TIP3     H1       HT       0.417000       1.00800           0
     37267 TIP3     2877     TIP3     H2       HT       0.417000       1.00800           0
     37268 TIP3     2878     TIP3     OH2      OT      -0.834000       15.9994           0
     37269 TIP3     2878     TIP3     H1       HT       0.417000       1.00800           0
     37270 TIP3     2878     TIP3     H2       HT       0.417000       1.00800           0
     37271 TIP3     2879     TIP3     OH2      OT      -0.834000       15.9994           0
     37272 TIP3     2879     TIP3     H1       HT       0.417000       1.00800           0
     37273 TIP3     2879     TIP3     H2       HT       0.417000       1.00800           0
     37274 TIP3     2880     TIP3     OH2      OT      -0.834000       15.9994           0
     37275 TIP3     2880     TIP3     H1       HT       0.417000       1.00800           0
     37276 TIP3     2880     TIP3     H2       HT       0.417000       1.00800           0
     37277 TIP3     2881     TIP3     OH2      OT      -0.834000       15.9994           0
     37278 TIP3     2881     TIP3     H1       HT       0.417000       1.00800           0
     37279 TIP3     2881     TIP3     H2       HT       0.417000       1.00800           0
     37280 TIP3     2882     TIP3     OH2      OT      -0.834000       15.9994           0
     37281 TIP3     2882     TIP3     H1       HT       0.417000       1.00800           0
     37282 TIP3     2882     TIP3     H2       HT       0.417000       1.00800           0
     37283 TIP3     2883     TIP3     OH2      OT      -0.834000       15.9994           0
     37284 TIP3     2883     TIP3     H1       HT       0.417000       1.00800           0
     37285 TIP3     2883     TIP3     H2       HT       0.417000       1.00800           0
     37286 TIP3     2884     TIP3     OH2      OT      -0.834000       15.9994           0
     37287 TIP3     2884     TIP3     H1       HT       0.417000       1.00800           0
     37288 TIP3     2884     TIP3     H2       HT       0.417000       1.00800           0
     37289 TIP3     2885     TIP3     OH2      OT      -0.834000       15.9994           0
     37290 TIP3     2885     TIP3     H1       HT       0.417000       1.00800           0
     37291 TIP3     2885     TIP3     H2       HT       0.417000       1.00800           0
     37292 TIP3     2886     TIP3     OH2      OT      -0.834000       15.9994           0
     37293 TIP3     2886     TIP3     H1       HT       0.417000       1.00800           0
     37294 TIP3     2886     TIP3     H2       HT       0.417000       1.00800           0
     37295 TIP3     2887     TIP3     OH2      OT      -0.834000       15.9994           0
     37296 TIP3     2887     TIP3     H1       HT       0.417000       1.00800           0
     37297 TIP3     2887     TIP3     H2       HT       0.417000       1.00800           0
     37298 TIP3     2888     TIP3     OH2      OT      -0.834000       15.9994           0
     37299 TIP3     2888     TIP3     H1       HT       0.417000       1.00800           0
     37300 TIP3     2888     TIP3     H2       HT       0.417000       1.00800           0
     37301 TIP3     2889     TIP3     OH2      OT      -0.834000       15.9994           0
     37302 TIP3     2889     TIP3     H1       HT       0.417000       1.00800           0
     37303 TIP3     2889     TIP3     H2       HT       0.417000       1.00800           0
     37304 TIP3     2890     TIP3     OH2      OT      -0.834000       15.9994           0
     37305 TIP3     2890     TIP3     H1       HT       0.417000       1.00800           0
     37306 TIP3     2890     TIP3     H2       HT       0.417000       1.00800           0
     37307 TIP3     2891     TIP3     OH2      OT      -0.834000       15.9994           0
     37308 TIP3     2891     TIP3     H1       HT       0.417000       1.00800           0
     37309 TIP3     2891     TIP3     H2       HT       0.417000       1.00800           0
     37310 TIP3     2892     TIP3     OH2      OT      -0.834000       15.9994           0
     37311 TIP3     2892     TIP3     H1       HT       0.417000       1.00800           0
     37312 TIP3     2892     TIP3     H2       HT       0.417000       1.00800           0
     37313 TIP3     2893     TIP3     OH2      OT      -0.834000       15.9994           0
     37314 TIP3     2893     TIP3     H1       HT       0.417000       1.00800           0
     37315 TIP3     2893     TIP3     H2       HT       0.417000       1.00800           0
     37316 TIP3     2894     TIP3     OH2      OT      -0.834000       15.9994           0
     37317 TIP3     2894     TIP3     H1       HT       0.417000       1.00800           0
     37318 TIP3     2894     TIP3     H2       HT       0.417000       1.00800           0
     37319 TIP3     2895     TIP3     OH2      OT      -0.834000       15.9994           0
     37320 TIP3     2895     TIP3     H1       HT       0.417000       1.00800           0
     37321 TIP3     2895     TIP3     H2       HT       0.417000       1.00800           0
     37322 TIP3     2896     TIP3     OH2      OT      -0.834000       15.9994           0
     37323 TIP3     2896     TIP3     H1       HT       0.417000       1.00800           0
     37324 TIP3     2896     TIP3     H2       HT       0.417000       1.00800           0
     37325 TIP3     2897     TIP3     OH2      OT      -0.834000       15.9994           0
     37326 TIP3     2897     TIP3     H1       HT       0.417000       1.00800           0
     37327 TIP3     2897     TIP3     H2       HT       0.417000       1.00800           0
     37328 TIP3     2898     TIP3     OH2      OT      -0.834000       15.9994           0
     37329 TIP3     2898     TIP3     H1       HT       0.417000       1.00800           0
     37330 TIP3     2898     TIP3     H2       HT       0.417000       1.00800           0
     37331 TIP3     2899     TIP3     OH2      OT      -0.834000       15.9994           0
     37332 TIP3     2899     TIP3     H1       HT       0.417000       1.00800           0
     37333 TIP3     2899     TIP3     H2       HT       0.417000       1.00800           0
     37334 TIP3     2900     TIP3     OH2      OT      -0.834000       15.9994           0
     37335 TIP3     2900     TIP3     H1       HT       0.417000       1.00800           0
     37336 TIP3     2900     TIP3     H2       HT       0.417000       1.00800           0
     37337 TIP3     2901     TIP3     OH2      OT      -0.834000       15.9994           0
     37338 TIP3     2901     TIP3     H1       HT       0.417000       1.00800           0
     37339 TIP3     2901     TIP3     H2       HT       0.417000       1.00800           0
     37340 TIP3     2902     TIP3     OH2      OT      -0.834000       15.9994           0
     37341 TIP3     2902     TIP3     H1       HT       0.417000       1.00800           0
     37342 TIP3     2902     TIP3     H2       HT       0.417000       1.00800           0
     37343 TIP3     2903     TIP3     OH2      OT      -0.834000       15.9994           0
     37344 TIP3     2903     TIP3     H1       HT       0.417000       1.00800           0
     37345 TIP3     2903     TIP3     H2       HT       0.417000       1.00800           0
     37346 TIP3     2904     TIP3     OH2      OT      -0.834000       15.9994           0
     37347 TIP3     2904     TIP3     H1       HT       0.417000       1.00800           0
     37348 TIP3     2904     TIP3     H2       HT       0.417000       1.00800           0
     37349 TIP3     2905     TIP3     OH2      OT      -0.834000       15.9994           0
     37350 TIP3     2905     TIP3     H1       HT       0.417000       1.00800           0
     37351 TIP3     2905     TIP3     H2       HT       0.417000       1.00800           0
     37352 TIP3     2906     TIP3     OH2      OT      -0.834000       15.9994           0
     37353 TIP3     2906     TIP3     H1       HT       0.417000       1.00800           0
     37354 TIP3     2906     TIP3     H2       HT       0.417000       1.00800           0
     37355 TIP3     2907     TIP3     OH2      OT      -0.834000       15.9994           0
     37356 TIP3     2907     TIP3     H1       HT       0.417000       1.00800           0
     37357 TIP3     2907     TIP3     H2       HT       0.417000       1.00800           0
     37358 TIP3     2908     TIP3     OH2      OT      -0.834000       15.9994           0
     37359 TIP3     2908     TIP3     H1       HT       0.417000       1.00800           0
     37360 TIP3     2908     TIP3     H2       HT       0.417000       1.00800           0
     37361 TIP3     2909     TIP3     OH2      OT      -0.834000       15.9994           0
     37362 TIP3     2909     TIP3     H1       HT       0.417000       1.00800           0
     37363 TIP3     2909     TIP3     H2       HT       0.417000       1.00800           0
     37364 TIP3     2910     TIP3     OH2      OT      -0.834000       15.9994           0
     37365 TIP3     2910     TIP3     H1       HT       0.417000       1.00800           0
     37366 TIP3     2910     TIP3     H2       HT       0.417000       1.00800           0
     37367 TIP3     2911     TIP3     OH2      OT      -0.834000       15.9994           0
     37368 TIP3     2911     TIP3     H1       HT       0.417000       1.00800           0
     37369 TIP3     2911     TIP3     H2       HT       0.417000       1.00800           0
     37370 TIP3     2912     TIP3     OH2      OT      -0.834000       15.9994           0
     37371 TIP3     2912     TIP3     H1       HT       0.417000       1.00800           0
     37372 TIP3     2912     TIP3     H2       HT       0.417000       1.00800           0
     37373 TIP3     2913     TIP3     OH2      OT      -0.834000       15.9994           0
     37374 TIP3     2913     TIP3     H1       HT       0.417000       1.00800           0
     37375 TIP3     2913     TIP3     H2       HT       0.417000       1.00800           0
     37376 TIP3     2914     TIP3     OH2      OT      -0.834000       15.9994           0
     37377 TIP3     2914     TIP3     H1       HT       0.417000       1.00800           0
     37378 TIP3     2914     TIP3     H2       HT       0.417000       1.00800           0
     37379 TIP3     2915     TIP3     OH2      OT      -0.834000       15.9994           0
     37380 TIP3     2915     TIP3     H1       HT       0.417000       1.00800           0
     37381 TIP3     2915     TIP3     H2       HT       0.417000       1.00800           0
     37382 TIP3     2916     TIP3     OH2      OT      -0.834000       15.9994           0
     37383 TIP3     2916     TIP3     H1       HT       0.417000       1.00800           0
     37384 TIP3     2916     TIP3     H2       HT       0.417000       1.00800           0
     37385 TIP3     2917     TIP3     OH2      OT      -0.834000       15.9994           0
     37386 TIP3     2917     TIP3     H1       HT       0.417000       1.00800           0
     37387 TIP3     2917     TIP3     H2       HT       0.417000       1.00800           0
     37388 TIP3     2918     TIP3     OH2      OT      -0.834000       15.9994           0
     37389 TIP3     2918     TIP3     H1       HT       0.417000       1.00800           0
     37390 TIP3     2918     TIP3     H2       HT       0.417000       1.00800           0
     37391 TIP3     2919     TIP3     OH2      OT      -0.834000       15.9994           0
     37392 TIP3     2919     TIP3     H1       HT       0.417000       1.00800           0
     37393 TIP3     2919     TIP3     H2       HT       0.417000       1.00800           0
     37394 TIP3     2920     TIP3     OH2      OT      -0.834000       15.9994           0
     37395 TIP3     2920     TIP3     H1       HT       0.417000       1.00800           0
     37396 TIP3     2920     TIP3     H2       HT       0.417000       1.00800           0
     37397 TIP3     2921     TIP3     OH2      OT      -0.834000       15.9994           0
     37398 TIP3     2921     TIP3     H1       HT       0.417000       1.00800           0
     37399 TIP3     2921     TIP3     H2       HT       0.417000       1.00800           0
     37400 TIP3     2922     TIP3     OH2      OT      -0.834000       15.9994           0
     37401 TIP3     2922     TIP3     H1       HT       0.417000       1.00800           0
     37402 TIP3     2922     TIP3     H2       HT       0.417000       1.00800           0
     37403 TIP3     2923     TIP3     OH2      OT      -0.834000       15.9994           0
     37404 TIP3     2923     TIP3     H1       HT       0.417000       1.00800           0
     37405 TIP3     2923     TIP3     H2       HT       0.417000       1.00800           0
     37406 TIP3     2924     TIP3     OH2      OT      -0.834000       15.9994           0
     37407 TIP3     2924     TIP3     H1       HT       0.417000       1.00800           0
     37408 TIP3     2924     TIP3     H2       HT       0.417000       1.00800           0
     37409 TIP3     2925     TIP3     OH2      OT      -0.834000       15.9994           0
     37410 TIP3     2925     TIP3     H1       HT       0.417000       1.00800           0
     37411 TIP3     2925     TIP3     H2       HT       0.417000       1.00800           0
     37412 TIP3     2926     TIP3     OH2      OT      -0.834000       15.9994           0
     37413 TIP3     2926     TIP3     H1       HT       0.417000       1.00800           0
     37414 TIP3     2926     TIP3     H2       HT       0.417000       1.00800           0
     37415 TIP3     2927     TIP3     OH2      OT      -0.834000       15.9994           0
     37416 TIP3     2927     TIP3     H1       HT       0.417000       1.00800           0
     37417 TIP3     2927     TIP3     H2       HT       0.417000       1.00800           0
     37418 TIP3     2928     TIP3     OH2      OT      -0.834000       15.9994           0
     37419 TIP3     2928     TIP3     H1       HT       0.417000       1.00800           0
     37420 TIP3     2928     TIP3     H2       HT       0.417000       1.00800           0
     37421 TIP3     2929     TIP3     OH2      OT      -0.834000       15.9994           0
     37422 TIP3     2929     TIP3     H1       HT       0.417000       1.00800           0
     37423 TIP3     2929     TIP3     H2       HT       0.417000       1.00800           0
     37424 TIP3     2930     TIP3     OH2      OT      -0.834000       15.9994           0
     37425 TIP3     2930     TIP3     H1       HT       0.417000       1.00800           0
     37426 TIP3     2930     TIP3     H2       HT       0.417000       1.00800           0
     37427 TIP3     2931     TIP3     OH2      OT      -0.834000       15.9994           0
     37428 TIP3     2931     TIP3     H1       HT       0.417000       1.00800           0
     37429 TIP3     2931     TIP3     H2       HT       0.417000       1.00800           0
     37430 TIP3     2932     TIP3     OH2      OT      -0.834000       15.9994           0
     37431 TIP3     2932     TIP3     H1       HT       0.417000       1.00800           0
     37432 TIP3     2932     TIP3     H2       HT       0.417000       1.00800           0
     37433 TIP3     2933     TIP3     OH2      OT      -0.834000       15.9994           0
     37434 TIP3     2933     TIP3     H1       HT       0.417000       1.00800           0
     37435 TIP3     2933     TIP3     H2       HT       0.417000       1.00800           0
     37436 TIP3     2934     TIP3     OH2      OT      -0.834000       15.9994           0
     37437 TIP3     2934     TIP3     H1       HT       0.417000       1.00800           0
     37438 TIP3     2934     TIP3     H2       HT       0.417000       1.00800           0
     37439 TIP3     2935     TIP3     OH2      OT      -0.834000       15.9994           0
     37440 TIP3     2935     TIP3     H1       HT       0.417000       1.00800           0
     37441 TIP3     2935     TIP3     H2       HT       0.417000       1.00800           0
     37442 TIP3     2936     TIP3     OH2      OT      -0.834000       15.9994           0
     37443 TIP3     2936     TIP3     H1       HT       0.417000       1.00800           0
     37444 TIP3     2936     TIP3     H2       HT       0.417000       1.00800           0
     37445 TIP3     2937     TIP3     OH2      OT      -0.834000       15.9994           0
     37446 TIP3     2937     TIP3     H1       HT       0.417000       1.00800           0
     37447 TIP3     2937     TIP3     H2       HT       0.417000       1.00800           0
     37448 TIP3     2938     TIP3     OH2      OT      -0.834000       15.9994           0
     37449 TIP3     2938     TIP3     H1       HT       0.417000       1.00800           0
     37450 TIP3     2938     TIP3     H2       HT       0.417000       1.00800           0
     37451 TIP3     2939     TIP3     OH2      OT      -0.834000       15.9994           0
     37452 TIP3     2939     TIP3     H1       HT       0.417000       1.00800           0
     37453 TIP3     2939     TIP3     H2       HT       0.417000       1.00800           0
     37454 TIP3     2940     TIP3     OH2      OT      -0.834000       15.9994           0
     37455 TIP3     2940     TIP3     H1       HT       0.417000       1.00800           0
     37456 TIP3     2940     TIP3     H2       HT       0.417000       1.00800           0
     37457 TIP3     2941     TIP3     OH2      OT      -0.834000       15.9994           0
     37458 TIP3     2941     TIP3     H1       HT       0.417000       1.00800           0
     37459 TIP3     2941     TIP3     H2       HT       0.417000       1.00800           0
     37460 TIP3     2942     TIP3     OH2      OT      -0.834000       15.9994           0
     37461 TIP3     2942     TIP3     H1       HT       0.417000       1.00800           0
     37462 TIP3     2942     TIP3     H2       HT       0.417000       1.00800           0
     37463 TIP3     2943     TIP3     OH2      OT      -0.834000       15.9994           0
     37464 TIP3     2943     TIP3     H1       HT       0.417000       1.00800           0
     37465 TIP3     2943     TIP3     H2       HT       0.417000       1.00800           0
     37466 TIP3     2944     TIP3     OH2      OT      -0.834000       15.9994           0
     37467 TIP3     2944     TIP3     H1       HT       0.417000       1.00800           0
     37468 TIP3     2944     TIP3     H2       HT       0.417000       1.00800           0
     37469 TIP3     2945     TIP3     OH2      OT      -0.834000       15.9994           0
     37470 TIP3     2945     TIP3     H1       HT       0.417000       1.00800           0
     37471 TIP3     2945     TIP3     H2       HT       0.417000       1.00800           0
     37472 TIP3     2946     TIP3     OH2      OT      -0.834000       15.9994           0
     37473 TIP3     2946     TIP3     H1       HT       0.417000       1.00800           0
     37474 TIP3     2946     TIP3     H2       HT       0.417000       1.00800           0
     37475 TIP3     2947     TIP3     OH2      OT      -0.834000       15.9994           0
     37476 TIP3     2947     TIP3     H1       HT       0.417000       1.00800           0
     37477 TIP3     2947     TIP3     H2       HT       0.417000       1.00800           0
     37478 TIP3     2948     TIP3     OH2      OT      -0.834000       15.9994           0
     37479 TIP3     2948     TIP3     H1       HT       0.417000       1.00800           0
     37480 TIP3     2948     TIP3     H2       HT       0.417000       1.00800           0
     37481 TIP3     2949     TIP3     OH2      OT      -0.834000       15.9994           0
     37482 TIP3     2949     TIP3     H1       HT       0.417000       1.00800           0
     37483 TIP3     2949     TIP3     H2       HT       0.417000       1.00800           0
     37484 TIP3     2950     TIP3     OH2      OT      -0.834000       15.9994           0
     37485 TIP3     2950     TIP3     H1       HT       0.417000       1.00800           0
     37486 TIP3     2950     TIP3     H2       HT       0.417000       1.00800           0
     37487 TIP3     2951     TIP3     OH2      OT      -0.834000       15.9994           0
     37488 TIP3     2951     TIP3     H1       HT       0.417000       1.00800           0
     37489 TIP3     2951     TIP3     H2       HT       0.417000       1.00800           0
     37490 TIP3     2952     TIP3     OH2      OT      -0.834000       15.9994           0
     37491 TIP3     2952     TIP3     H1       HT       0.417000       1.00800           0
     37492 TIP3     2952     TIP3     H2       HT       0.417000       1.00800           0
     37493 TIP3     2953     TIP3     OH2      OT      -0.834000       15.9994           0
     37494 TIP3     2953     TIP3     H1       HT       0.417000       1.00800           0
     37495 TIP3     2953     TIP3     H2       HT       0.417000       1.00800           0
     37496 TIP3     2954     TIP3     OH2      OT      -0.834000       15.9994           0
     37497 TIP3     2954     TIP3     H1       HT       0.417000       1.00800           0
     37498 TIP3     2954     TIP3     H2       HT       0.417000       1.00800           0
     37499 TIP3     2955     TIP3     OH2      OT      -0.834000       15.9994           0
     37500 TIP3     2955     TIP3     H1       HT       0.417000       1.00800           0
     37501 TIP3     2955     TIP3     H2       HT       0.417000       1.00800           0
     37502 TIP3     2956     TIP3     OH2      OT      -0.834000       15.9994           0
     37503 TIP3     2956     TIP3     H1       HT       0.417000       1.00800           0
     37504 TIP3     2956     TIP3     H2       HT       0.417000       1.00800           0
     37505 TIP3     2957     TIP3     OH2      OT      -0.834000       15.9994           0
     37506 TIP3     2957     TIP3     H1       HT       0.417000       1.00800           0
     37507 TIP3     2957     TIP3     H2       HT       0.417000       1.00800           0
     37508 TIP3     2958     TIP3     OH2      OT      -0.834000       15.9994           0
     37509 TIP3     2958     TIP3     H1       HT       0.417000       1.00800           0
     37510 TIP3     2958     TIP3     H2       HT       0.417000       1.00800           0
     37511 TIP3     2959     TIP3     OH2      OT      -0.834000       15.9994           0
     37512 TIP3     2959     TIP3     H1       HT       0.417000       1.00800           0
     37513 TIP3     2959     TIP3     H2       HT       0.417000       1.00800           0
     37514 TIP3     2960     TIP3     OH2      OT      -0.834000       15.9994           0
     37515 TIP3     2960     TIP3     H1       HT       0.417000       1.00800           0
     37516 TIP3     2960     TIP3     H2       HT       0.417000       1.00800           0
     37517 TIP3     2961     TIP3     OH2      OT      -0.834000       15.9994           0
     37518 TIP3     2961     TIP3     H1       HT       0.417000       1.00800           0
     37519 TIP3     2961     TIP3     H2       HT       0.417000       1.00800           0
     37520 TIP3     2962     TIP3     OH2      OT      -0.834000       15.9994           0
     37521 TIP3     2962     TIP3     H1       HT       0.417000       1.00800           0
     37522 TIP3     2962     TIP3     H2       HT       0.417000       1.00800           0
     37523 TIP3     2963     TIP3     OH2      OT      -0.834000       15.9994           0
     37524 TIP3     2963     TIP3     H1       HT       0.417000       1.00800           0
     37525 TIP3     2963     TIP3     H2       HT       0.417000       1.00800           0
     37526 TIP3     2964     TIP3     OH2      OT      -0.834000       15.9994           0
     37527 TIP3     2964     TIP3     H1       HT       0.417000       1.00800           0
     37528 TIP3     2964     TIP3     H2       HT       0.417000       1.00800           0
     37529 TIP3     2965     TIP3     OH2      OT      -0.834000       15.9994           0
     37530 TIP3     2965     TIP3     H1       HT       0.417000       1.00800           0
     37531 TIP3     2965     TIP3     H2       HT       0.417000       1.00800           0
     37532 TIP3     2966     TIP3     OH2      OT      -0.834000       15.9994           0
     37533 TIP3     2966     TIP3     H1       HT       0.417000       1.00800           0
     37534 TIP3     2966     TIP3     H2       HT       0.417000       1.00800           0
     37535 TIP3     2967     TIP3     OH2      OT      -0.834000       15.9994           0
     37536 TIP3     2967     TIP3     H1       HT       0.417000       1.00800           0
     37537 TIP3     2967     TIP3     H2       HT       0.417000       1.00800           0
     37538 TIP3     2968     TIP3     OH2      OT      -0.834000       15.9994           0
     37539 TIP3     2968     TIP3     H1       HT       0.417000       1.00800           0
     37540 TIP3     2968     TIP3     H2       HT       0.417000       1.00800           0
     37541 TIP3     2969     TIP3     OH2      OT      -0.834000       15.9994           0
     37542 TIP3     2969     TIP3     H1       HT       0.417000       1.00800           0
     37543 TIP3     2969     TIP3     H2       HT       0.417000       1.00800           0
     37544 TIP3     2970     TIP3     OH2      OT      -0.834000       15.9994           0
     37545 TIP3     2970     TIP3     H1       HT       0.417000       1.00800           0
     37546 TIP3     2970     TIP3     H2       HT       0.417000       1.00800           0
     37547 TIP3     2971     TIP3     OH2      OT      -0.834000       15.9994           0
     37548 TIP3     2971     TIP3     H1       HT       0.417000       1.00800           0
     37549 TIP3     2971     TIP3     H2       HT       0.417000       1.00800           0
     37550 TIP3     2972     TIP3     OH2      OT      -0.834000       15.9994           0
     37551 TIP3     2972     TIP3     H1       HT       0.417000       1.00800           0
     37552 TIP3     2972     TIP3     H2       HT       0.417000       1.00800           0
     37553 TIP3     2973     TIP3     OH2      OT      -0.834000       15.9994           0
     37554 TIP3     2973     TIP3     H1       HT       0.417000       1.00800           0
     37555 TIP3     2973     TIP3     H2       HT       0.417000       1.00800           0
     37556 TIP3     2974     TIP3     OH2      OT      -0.834000       15.9994           0
     37557 TIP3     2974     TIP3     H1       HT       0.417000       1.00800           0
     37558 TIP3     2974     TIP3     H2       HT       0.417000       1.00800           0
     37559 TIP3     2975     TIP3     OH2      OT      -0.834000       15.9994           0
     37560 TIP3     2975     TIP3     H1       HT       0.417000       1.00800           0
     37561 TIP3     2975     TIP3     H2       HT       0.417000       1.00800           0
     37562 TIP3     2976     TIP3     OH2      OT      -0.834000       15.9994           0
     37563 TIP3     2976     TIP3     H1       HT       0.417000       1.00800           0
     37564 TIP3     2976     TIP3     H2       HT       0.417000       1.00800           0
     37565 TIP3     2977     TIP3     OH2      OT      -0.834000       15.9994           0
     37566 TIP3     2977     TIP3     H1       HT       0.417000       1.00800           0
     37567 TIP3     2977     TIP3     H2       HT       0.417000       1.00800           0
     37568 TIP3     2978     TIP3     OH2      OT      -0.834000       15.9994           0
     37569 TIP3     2978     TIP3     H1       HT       0.417000       1.00800           0
     37570 TIP3     2978     TIP3     H2       HT       0.417000       1.00800           0
     37571 TIP3     2979     TIP3     OH2      OT      -0.834000       15.9994           0
     37572 TIP3     2979     TIP3     H1       HT       0.417000       1.00800           0
     37573 TIP3     2979     TIP3     H2       HT       0.417000       1.00800           0
     37574 TIP3     2980     TIP3     OH2      OT      -0.834000       15.9994           0
     37575 TIP3     2980     TIP3     H1       HT       0.417000       1.00800           0
     37576 TIP3     2980     TIP3     H2       HT       0.417000       1.00800           0
     37577 TIP3     2981     TIP3     OH2      OT      -0.834000       15.9994           0
     37578 TIP3     2981     TIP3     H1       HT       0.417000       1.00800           0
     37579 TIP3     2981     TIP3     H2       HT       0.417000       1.00800           0
     37580 TIP3     2982     TIP3     OH2      OT      -0.834000       15.9994           0
     37581 TIP3     2982     TIP3     H1       HT       0.417000       1.00800           0
     37582 TIP3     2982     TIP3     H2       HT       0.417000       1.00800           0
     37583 TIP3     2983     TIP3     OH2      OT      -0.834000       15.9994           0
     37584 TIP3     2983     TIP3     H1       HT       0.417000       1.00800           0
     37585 TIP3     2983     TIP3     H2       HT       0.417000       1.00800           0
     37586 TIP3     2984     TIP3     OH2      OT      -0.834000       15.9994           0
     37587 TIP3     2984     TIP3     H1       HT       0.417000       1.00800           0
     37588 TIP3     2984     TIP3     H2       HT       0.417000       1.00800           0
     37589 TIP3     2985     TIP3     OH2      OT      -0.834000       15.9994           0
     37590 TIP3     2985     TIP3     H1       HT       0.417000       1.00800           0
     37591 TIP3     2985     TIP3     H2       HT       0.417000       1.00800           0
     37592 TIP3     2986     TIP3     OH2      OT      -0.834000       15.9994           0
     37593 TIP3     2986     TIP3     H1       HT       0.417000       1.00800           0
     37594 TIP3     2986     TIP3     H2       HT       0.417000       1.00800           0
     37595 TIP3     2987     TIP3     OH2      OT      -0.834000       15.9994           0
     37596 TIP3     2987     TIP3     H1       HT       0.417000       1.00800           0
     37597 TIP3     2987     TIP3     H2       HT       0.417000       1.00800           0
     37598 TIP3     2988     TIP3     OH2      OT      -0.834000       15.9994           0
     37599 TIP3     2988     TIP3     H1       HT       0.417000       1.00800           0
     37600 TIP3     2988     TIP3     H2       HT       0.417000       1.00800           0
     37601 TIP3     2989     TIP3     OH2      OT      -0.834000       15.9994           0
     37602 TIP3     2989     TIP3     H1       HT       0.417000       1.00800           0
     37603 TIP3     2989     TIP3     H2       HT       0.417000       1.00800           0
     37604 TIP3     2990     TIP3     OH2      OT      -0.834000       15.9994           0
     37605 TIP3     2990     TIP3     H1       HT       0.417000       1.00800           0
     37606 TIP3     2990     TIP3     H2       HT       0.417000       1.00800           0
     37607 TIP3     2991     TIP3     OH2      OT      -0.834000       15.9994           0
     37608 TIP3     2991     TIP3     H1       HT       0.417000       1.00800           0
     37609 TIP3     2991     TIP3     H2       HT       0.417000       1.00800           0
     37610 TIP3     2992     TIP3     OH2      OT      -0.834000       15.9994           0
     37611 TIP3     2992     TIP3     H1       HT       0.417000       1.00800           0
     37612 TIP3     2992     TIP3     H2       HT       0.417000       1.00800           0
     37613 TIP3     2993     TIP3     OH2      OT      -0.834000       15.9994           0
     37614 TIP3     2993     TIP3     H1       HT       0.417000       1.00800           0
     37615 TIP3     2993     TIP3     H2       HT       0.417000       1.00800           0
     37616 TIP3     2994     TIP3     OH2      OT      -0.834000       15.9994           0
     37617 TIP3     2994     TIP3     H1       HT       0.417000       1.00800           0
     37618 TIP3     2994     TIP3     H2       HT       0.417000       1.00800           0
     37619 TIP3     2995     TIP3     OH2      OT      -0.834000       15.9994           0
     37620 TIP3     2995     TIP3     H1       HT       0.417000       1.00800           0
     37621 TIP3     2995     TIP3     H2       HT       0.417000       1.00800           0
     37622 TIP3     2996     TIP3     OH2      OT      -0.834000       15.9994           0
     37623 TIP3     2996     TIP3     H1       HT       0.417000       1.00800           0
     37624 TIP3     2996     TIP3     H2       HT       0.417000       1.00800           0
     37625 TIP3     2997     TIP3     OH2      OT      -0.834000       15.9994           0
     37626 TIP3     2997     TIP3     H1       HT       0.417000       1.00800           0
     37627 TIP3     2997     TIP3     H2       HT       0.417000       1.00800           0
     37628 TIP3     2998     TIP3     OH2      OT      -0.834000       15.9994           0
     37629 TIP3     2998     TIP3     H1       HT       0.417000       1.00800           0
     37630 TIP3     2998     TIP3     H2       HT       0.417000       1.00800           0
     37631 TIP3     2999     TIP3     OH2      OT      -0.834000       15.9994           0
     37632 TIP3     2999     TIP3     H1       HT       0.417000       1.00800           0
     37633 TIP3     2999     TIP3     H2       HT       0.417000       1.00800           0
     37634 TIP3     3000     TIP3     OH2      OT      -0.834000       15.9994           0
     37635 TIP3     3000     TIP3     H1       HT       0.417000       1.00800           0
     37636 TIP3     3000     TIP3     H2       HT       0.417000       1.00800           0
     37637 TIP3     3001     TIP3     OH2      OT      -0.834000       15.9994           0
     37638 TIP3     3001     TIP3     H1       HT       0.417000       1.00800           0
     37639 TIP3     3001     TIP3     H2       HT       0.417000       1.00800           0
     37640 TIP3     3002     TIP3     OH2      OT      -0.834000       15.9994           0
     37641 TIP3     3002     TIP3     H1       HT       0.417000       1.00800           0
     37642 TIP3     3002     TIP3     H2       HT       0.417000       1.00800           0
     37643 TIP3     3003     TIP3     OH2      OT      -0.834000       15.9994           0
     37644 TIP3     3003     TIP3     H1       HT       0.417000       1.00800           0
     37645 TIP3     3003     TIP3     H2       HT       0.417000       1.00800           0
     37646 TIP3     3004     TIP3     OH2      OT      -0.834000       15.9994           0
     37647 TIP3     3004     TIP3     H1       HT       0.417000       1.00800           0
     37648 TIP3     3004     TIP3     H2       HT       0.417000       1.00800           0
     37649 TIP3     3005     TIP3     OH2      OT      -0.834000       15.9994           0
     37650 TIP3     3005     TIP3     H1       HT       0.417000       1.00800           0
     37651 TIP3     3005     TIP3     H2       HT       0.417000       1.00800           0
     37652 TIP3     3006     TIP3     OH2      OT      -0.834000       15.9994           0
     37653 TIP3     3006     TIP3     H1       HT       0.417000       1.00800           0
     37654 TIP3     3006     TIP3     H2       HT       0.417000       1.00800           0
     37655 TIP3     3007     TIP3     OH2      OT      -0.834000       15.9994           0
     37656 TIP3     3007     TIP3     H1       HT       0.417000       1.00800           0
     37657 TIP3     3007     TIP3     H2       HT       0.417000       1.00800           0
     37658 TIP3     3008     TIP3     OH2      OT      -0.834000       15.9994           0
     37659 TIP3     3008     TIP3     H1       HT       0.417000       1.00800           0
     37660 TIP3     3008     TIP3     H2       HT       0.417000       1.00800           0
     37661 TIP3     3009     TIP3     OH2      OT      -0.834000       15.9994           0
     37662 TIP3     3009     TIP3     H1       HT       0.417000       1.00800           0
     37663 TIP3     3009     TIP3     H2       HT       0.417000       1.00800           0
     37664 TIP3     3010     TIP3     OH2      OT      -0.834000       15.9994           0
     37665 TIP3     3010     TIP3     H1       HT       0.417000       1.00800           0
     37666 TIP3     3010     TIP3     H2       HT       0.417000       1.00800           0
     37667 TIP3     3011     TIP3     OH2      OT      -0.834000       15.9994           0
     37668 TIP3     3011     TIP3     H1       HT       0.417000       1.00800           0
     37669 TIP3     3011     TIP3     H2       HT       0.417000       1.00800           0
     37670 TIP3     3012     TIP3     OH2      OT      -0.834000       15.9994           0
     37671 TIP3     3012     TIP3     H1       HT       0.417000       1.00800           0
     37672 TIP3     3012     TIP3     H2       HT       0.417000       1.00800           0
     37673 TIP3     3013     TIP3     OH2      OT      -0.834000       15.9994           0
     37674 TIP3     3013     TIP3     H1       HT       0.417000       1.00800           0
     37675 TIP3     3013     TIP3     H2       HT       0.417000       1.00800           0
     37676 TIP3     3014     TIP3     OH2      OT      -0.834000       15.9994           0
     37677 TIP3     3014     TIP3     H1       HT       0.417000       1.00800           0
     37678 TIP3     3014     TIP3     H2       HT       0.417000       1.00800           0
     37679 TIP3     3015     TIP3     OH2      OT      -0.834000       15.9994           0
     37680 TIP3     3015     TIP3     H1       HT       0.417000       1.00800           0
     37681 TIP3     3015     TIP3     H2       HT       0.417000       1.00800           0
     37682 TIP3     3016     TIP3     OH2      OT      -0.834000       15.9994           0
     37683 TIP3     3016     TIP3     H1       HT       0.417000       1.00800           0
     37684 TIP3     3016     TIP3     H2       HT       0.417000       1.00800           0
     37685 TIP3     3017     TIP3     OH2      OT      -0.834000       15.9994           0
     37686 TIP3     3017     TIP3     H1       HT       0.417000       1.00800           0
     37687 TIP3     3017     TIP3     H2       HT       0.417000       1.00800           0
     37688 TIP3     3018     TIP3     OH2      OT      -0.834000       15.9994           0
     37689 TIP3     3018     TIP3     H1       HT       0.417000       1.00800           0
     37690 TIP3     3018     TIP3     H2       HT       0.417000       1.00800           0
     37691 TIP3     3019     TIP3     OH2      OT      -0.834000       15.9994           0
     37692 TIP3     3019     TIP3     H1       HT       0.417000       1.00800           0
     37693 TIP3     3019     TIP3     H2       HT       0.417000       1.00800           0
     37694 TIP3     3020     TIP3     OH2      OT      -0.834000       15.9994           0
     37695 TIP3     3020     TIP3     H1       HT       0.417000       1.00800           0
     37696 TIP3     3020     TIP3     H2       HT       0.417000       1.00800           0
     37697 TIP3     3021     TIP3     OH2      OT      -0.834000       15.9994           0
     37698 TIP3     3021     TIP3     H1       HT       0.417000       1.00800           0
     37699 TIP3     3021     TIP3     H2       HT       0.417000       1.00800           0
     37700 TIP3     3022     TIP3     OH2      OT      -0.834000       15.9994           0
     37701 TIP3     3022     TIP3     H1       HT       0.417000       1.00800           0
     37702 TIP3     3022     TIP3     H2       HT       0.417000       1.00800           0
     37703 TIP3     3023     TIP3     OH2      OT      -0.834000       15.9994           0
     37704 TIP3     3023     TIP3     H1       HT       0.417000       1.00800           0
     37705 TIP3     3023     TIP3     H2       HT       0.417000       1.00800           0
     37706 TIP3     3024     TIP3     OH2      OT      -0.834000       15.9994           0
     37707 TIP3     3024     TIP3     H1       HT       0.417000       1.00800           0
     37708 TIP3     3024     TIP3     H2       HT       0.417000       1.00800           0
     37709 TIP3     3025     TIP3     OH2      OT      -0.834000       15.9994           0
     37710 TIP3     3025     TIP3     H1       HT       0.417000       1.00800           0
     37711 TIP3     3025     TIP3     H2       HT       0.417000       1.00800           0
     37712 TIP3     3026     TIP3     OH2      OT      -0.834000       15.9994           0
     37713 TIP3     3026     TIP3     H1       HT       0.417000       1.00800           0
     37714 TIP3     3026     TIP3     H2       HT       0.417000       1.00800           0
     37715 TIP3     3027     TIP3     OH2      OT      -0.834000       15.9994           0
     37716 TIP3     3027     TIP3     H1       HT       0.417000       1.00800           0
     37717 TIP3     3027     TIP3     H2       HT       0.417000       1.00800           0
     37718 TIP3     3028     TIP3     OH2      OT      -0.834000       15.9994           0
     37719 TIP3     3028     TIP3     H1       HT       0.417000       1.00800           0
     37720 TIP3     3028     TIP3     H2       HT       0.417000       1.00800           0
     37721 TIP3     3029     TIP3     OH2      OT      -0.834000       15.9994           0
     37722 TIP3     3029     TIP3     H1       HT       0.417000       1.00800           0
     37723 TIP3     3029     TIP3     H2       HT       0.417000       1.00800           0
     37724 TIP3     3030     TIP3     OH2      OT      -0.834000       15.9994           0
     37725 TIP3     3030     TIP3     H1       HT       0.417000       1.00800           0
     37726 TIP3     3030     TIP3     H2       HT       0.417000       1.00800           0
     37727 TIP3     3031     TIP3     OH2      OT      -0.834000       15.9994           0
     37728 TIP3     3031     TIP3     H1       HT       0.417000       1.00800           0
     37729 TIP3     3031     TIP3     H2       HT       0.417000       1.00800           0
     37730 TIP3     3032     TIP3     OH2      OT      -0.834000       15.9994           0
     37731 TIP3     3032     TIP3     H1       HT       0.417000       1.00800           0
     37732 TIP3     3032     TIP3     H2       HT       0.417000       1.00800           0
     37733 TIP3     3033     TIP3     OH2      OT      -0.834000       15.9994           0
     37734 TIP3     3033     TIP3     H1       HT       0.417000       1.00800           0
     37735 TIP3     3033     TIP3     H2       HT       0.417000       1.00800           0
     37736 TIP3     3034     TIP3     OH2      OT      -0.834000       15.9994           0
     37737 TIP3     3034     TIP3     H1       HT       0.417000       1.00800           0
     37738 TIP3     3034     TIP3     H2       HT       0.417000       1.00800           0
     37739 TIP3     3035     TIP3     OH2      OT      -0.834000       15.9994           0
     37740 TIP3     3035     TIP3     H1       HT       0.417000       1.00800           0
     37741 TIP3     3035     TIP3     H2       HT       0.417000       1.00800           0
     37742 TIP3     3036     TIP3     OH2      OT      -0.834000       15.9994           0
     37743 TIP3     3036     TIP3     H1       HT       0.417000       1.00800           0
     37744 TIP3     3036     TIP3     H2       HT       0.417000       1.00800           0
     37745 TIP3     3037     TIP3     OH2      OT      -0.834000       15.9994           0
     37746 TIP3     3037     TIP3     H1       HT       0.417000       1.00800           0
     37747 TIP3     3037     TIP3     H2       HT       0.417000       1.00800           0
     37748 TIP3     3038     TIP3     OH2      OT      -0.834000       15.9994           0
     37749 TIP3     3038     TIP3     H1       HT       0.417000       1.00800           0
     37750 TIP3     3038     TIP3     H2       HT       0.417000       1.00800           0
     37751 TIP3     3039     TIP3     OH2      OT      -0.834000       15.9994           0
     37752 TIP3     3039     TIP3     H1       HT       0.417000       1.00800           0
     37753 TIP3     3039     TIP3     H2       HT       0.417000       1.00800           0
     37754 TIP3     3040     TIP3     OH2      OT      -0.834000       15.9994           0
     37755 TIP3     3040     TIP3     H1       HT       0.417000       1.00800           0
     37756 TIP3     3040     TIP3     H2       HT       0.417000       1.00800           0
     37757 TIP3     3041     TIP3     OH2      OT      -0.834000       15.9994           0
     37758 TIP3     3041     TIP3     H1       HT       0.417000       1.00800           0
     37759 TIP3     3041     TIP3     H2       HT       0.417000       1.00800           0
     37760 TIP3     3042     TIP3     OH2      OT      -0.834000       15.9994           0
     37761 TIP3     3042     TIP3     H1       HT       0.417000       1.00800           0
     37762 TIP3     3042     TIP3     H2       HT       0.417000       1.00800           0
     37763 TIP3     3043     TIP3     OH2      OT      -0.834000       15.9994           0
     37764 TIP3     3043     TIP3     H1       HT       0.417000       1.00800           0
     37765 TIP3     3043     TIP3     H2       HT       0.417000       1.00800           0
     37766 TIP3     3044     TIP3     OH2      OT      -0.834000       15.9994           0
     37767 TIP3     3044     TIP3     H1       HT       0.417000       1.00800           0
     37768 TIP3     3044     TIP3     H2       HT       0.417000       1.00800           0
     37769 TIP3     3045     TIP3     OH2      OT      -0.834000       15.9994           0
     37770 TIP3     3045     TIP3     H1       HT       0.417000       1.00800           0
     37771 TIP3     3045     TIP3     H2       HT       0.417000       1.00800           0
     37772 TIP3     3046     TIP3     OH2      OT      -0.834000       15.9994           0
     37773 TIP3     3046     TIP3     H1       HT       0.417000       1.00800           0
     37774 TIP3     3046     TIP3     H2       HT       0.417000       1.00800           0
     37775 TIP3     3047     TIP3     OH2      OT      -0.834000       15.9994           0
     37776 TIP3     3047     TIP3     H1       HT       0.417000       1.00800           0
     37777 TIP3     3047     TIP3     H2       HT       0.417000       1.00800           0
     37778 TIP3     3048     TIP3     OH2      OT      -0.834000       15.9994           0
     37779 TIP3     3048     TIP3     H1       HT       0.417000       1.00800           0
     37780 TIP3     3048     TIP3     H2       HT       0.417000       1.00800           0
     37781 TIP3     3049     TIP3     OH2      OT      -0.834000       15.9994           0
     37782 TIP3     3049     TIP3     H1       HT       0.417000       1.00800           0
     37783 TIP3     3049     TIP3     H2       HT       0.417000       1.00800           0
     37784 TIP3     3050     TIP3     OH2      OT      -0.834000       15.9994           0
     37785 TIP3     3050     TIP3     H1       HT       0.417000       1.00800           0
     37786 TIP3     3050     TIP3     H2       HT       0.417000       1.00800           0
     37787 TIP3     3051     TIP3     OH2      OT      -0.834000       15.9994           0
     37788 TIP3     3051     TIP3     H1       HT       0.417000       1.00800           0
     37789 TIP3     3051     TIP3     H2       HT       0.417000       1.00800           0
     37790 TIP3     3052     TIP3     OH2      OT      -0.834000       15.9994           0
     37791 TIP3     3052     TIP3     H1       HT       0.417000       1.00800           0
     37792 TIP3     3052     TIP3     H2       HT       0.417000       1.00800           0
     37793 TIP3     3053     TIP3     OH2      OT      -0.834000       15.9994           0
     37794 TIP3     3053     TIP3     H1       HT       0.417000       1.00800           0
     37795 TIP3     3053     TIP3     H2       HT       0.417000       1.00800           0
     37796 TIP3     3054     TIP3     OH2      OT      -0.834000       15.9994           0
     37797 TIP3     3054     TIP3     H1       HT       0.417000       1.00800           0
     37798 TIP3     3054     TIP3     H2       HT       0.417000       1.00800           0
     37799 TIP3     3055     TIP3     OH2      OT      -0.834000       15.9994           0
     37800 TIP3     3055     TIP3     H1       HT       0.417000       1.00800           0
     37801 TIP3     3055     TIP3     H2       HT       0.417000       1.00800           0
     37802 TIP3     3056     TIP3     OH2      OT      -0.834000       15.9994           0
     37803 TIP3     3056     TIP3     H1       HT       0.417000       1.00800           0
     37804 TIP3     3056     TIP3     H2       HT       0.417000       1.00800           0
     37805 TIP3     3057     TIP3     OH2      OT      -0.834000       15.9994           0
     37806 TIP3     3057     TIP3     H1       HT       0.417000       1.00800           0
     37807 TIP3     3057     TIP3     H2       HT       0.417000       1.00800           0
     37808 TIP3     3058     TIP3     OH2      OT      -0.834000       15.9994           0
     37809 TIP3     3058     TIP3     H1       HT       0.417000       1.00800           0
     37810 TIP3     3058     TIP3     H2       HT       0.417000       1.00800           0
     37811 TIP3     3059     TIP3     OH2      OT      -0.834000       15.9994           0
     37812 TIP3     3059     TIP3     H1       HT       0.417000       1.00800           0
     37813 TIP3     3059     TIP3     H2       HT       0.417000       1.00800           0
     37814 TIP3     3060     TIP3     OH2      OT      -0.834000       15.9994           0
     37815 TIP3     3060     TIP3     H1       HT       0.417000       1.00800           0
     37816 TIP3     3060     TIP3     H2       HT       0.417000       1.00800           0
     37817 TIP3     3061     TIP3     OH2      OT      -0.834000       15.9994           0
     37818 TIP3     3061     TIP3     H1       HT       0.417000       1.00800           0
     37819 TIP3     3061     TIP3     H2       HT       0.417000       1.00800           0
     37820 TIP3     3062     TIP3     OH2      OT      -0.834000       15.9994           0
     37821 TIP3     3062     TIP3     H1       HT       0.417000       1.00800           0
     37822 TIP3     3062     TIP3     H2       HT       0.417000       1.00800           0
     37823 TIP3     3063     TIP3     OH2      OT      -0.834000       15.9994           0
     37824 TIP3     3063     TIP3     H1       HT       0.417000       1.00800           0
     37825 TIP3     3063     TIP3     H2       HT       0.417000       1.00800           0
     37826 TIP3     3064     TIP3     OH2      OT      -0.834000       15.9994           0
     37827 TIP3     3064     TIP3     H1       HT       0.417000       1.00800           0
     37828 TIP3     3064     TIP3     H2       HT       0.417000       1.00800           0
     37829 TIP3     3065     TIP3     OH2      OT      -0.834000       15.9994           0
     37830 TIP3     3065     TIP3     H1       HT       0.417000       1.00800           0
     37831 TIP3     3065     TIP3     H2       HT       0.417000       1.00800           0
     37832 TIP3     3066     TIP3     OH2      OT      -0.834000       15.9994           0
     37833 TIP3     3066     TIP3     H1       HT       0.417000       1.00800           0
     37834 TIP3     3066     TIP3     H2       HT       0.417000       1.00800           0
     37835 TIP3     3067     TIP3     OH2      OT      -0.834000       15.9994           0
     37836 TIP3     3067     TIP3     H1       HT       0.417000       1.00800           0
     37837 TIP3     3067     TIP3     H2       HT       0.417000       1.00800           0
     37838 TIP3     3068     TIP3     OH2      OT      -0.834000       15.9994           0
     37839 TIP3     3068     TIP3     H1       HT       0.417000       1.00800           0
     37840 TIP3     3068     TIP3     H2       HT       0.417000       1.00800           0
     37841 TIP3     3069     TIP3     OH2      OT      -0.834000       15.9994           0
     37842 TIP3     3069     TIP3     H1       HT       0.417000       1.00800           0
     37843 TIP3     3069     TIP3     H2       HT       0.417000       1.00800           0
     37844 TIP3     3070     TIP3     OH2      OT      -0.834000       15.9994           0
     37845 TIP3     3070     TIP3     H1       HT       0.417000       1.00800           0
     37846 TIP3     3070     TIP3     H2       HT       0.417000       1.00800           0
     37847 TIP3     3071     TIP3     OH2      OT      -0.834000       15.9994           0
     37848 TIP3     3071     TIP3     H1       HT       0.417000       1.00800           0
     37849 TIP3     3071     TIP3     H2       HT       0.417000       1.00800           0
     37850 TIP3     3072     TIP3     OH2      OT      -0.834000       15.9994           0
     37851 TIP3     3072     TIP3     H1       HT       0.417000       1.00800           0
     37852 TIP3     3072     TIP3     H2       HT       0.417000       1.00800           0
     37853 TIP3     3073     TIP3     OH2      OT      -0.834000       15.9994           0
     37854 TIP3     3073     TIP3     H1       HT       0.417000       1.00800           0
     37855 TIP3     3073     TIP3     H2       HT       0.417000       1.00800           0
     37856 TIP3     3074     TIP3     OH2      OT      -0.834000       15.9994           0
     37857 TIP3     3074     TIP3     H1       HT       0.417000       1.00800           0
     37858 TIP3     3074     TIP3     H2       HT       0.417000       1.00800           0
     37859 TIP3     3075     TIP3     OH2      OT      -0.834000       15.9994           0
     37860 TIP3     3075     TIP3     H1       HT       0.417000       1.00800           0
     37861 TIP3     3075     TIP3     H2       HT       0.417000       1.00800           0
     37862 TIP3     3076     TIP3     OH2      OT      -0.834000       15.9994           0
     37863 TIP3     3076     TIP3     H1       HT       0.417000       1.00800           0
     37864 TIP3     3076     TIP3     H2       HT       0.417000       1.00800           0
     37865 TIP3     3077     TIP3     OH2      OT      -0.834000       15.9994           0
     37866 TIP3     3077     TIP3     H1       HT       0.417000       1.00800           0
     37867 TIP3     3077     TIP3     H2       HT       0.417000       1.00800           0
     37868 TIP3     3078     TIP3     OH2      OT      -0.834000       15.9994           0
     37869 TIP3     3078     TIP3     H1       HT       0.417000       1.00800           0
     37870 TIP3     3078     TIP3     H2       HT       0.417000       1.00800           0
     37871 TIP3     3079     TIP3     OH2      OT      -0.834000       15.9994           0
     37872 TIP3     3079     TIP3     H1       HT       0.417000       1.00800           0
     37873 TIP3     3079     TIP3     H2       HT       0.417000       1.00800           0
     37874 TIP3     3080     TIP3     OH2      OT      -0.834000       15.9994           0
     37875 TIP3     3080     TIP3     H1       HT       0.417000       1.00800           0
     37876 TIP3     3080     TIP3     H2       HT       0.417000       1.00800           0
     37877 TIP3     3081     TIP3     OH2      OT      -0.834000       15.9994           0
     37878 TIP3     3081     TIP3     H1       HT       0.417000       1.00800           0
     37879 TIP3     3081     TIP3     H2       HT       0.417000       1.00800           0
     37880 TIP3     3082     TIP3     OH2      OT      -0.834000       15.9994           0
     37881 TIP3     3082     TIP3     H1       HT       0.417000       1.00800           0
     37882 TIP3     3082     TIP3     H2       HT       0.417000       1.00800           0
     37883 TIP3     3083     TIP3     OH2      OT      -0.834000       15.9994           0
     37884 TIP3     3083     TIP3     H1       HT       0.417000       1.00800           0
     37885 TIP3     3083     TIP3     H2       HT       0.417000       1.00800           0
     37886 TIP3     3084     TIP3     OH2      OT      -0.834000       15.9994           0
     37887 TIP3     3084     TIP3     H1       HT       0.417000       1.00800           0
     37888 TIP3     3084     TIP3     H2       HT       0.417000       1.00800           0
     37889 TIP3     3085     TIP3     OH2      OT      -0.834000       15.9994           0
     37890 TIP3     3085     TIP3     H1       HT       0.417000       1.00800           0
     37891 TIP3     3085     TIP3     H2       HT       0.417000       1.00800           0
     37892 TIP3     3086     TIP3     OH2      OT      -0.834000       15.9994           0
     37893 TIP3     3086     TIP3     H1       HT       0.417000       1.00800           0
     37894 TIP3     3086     TIP3     H2       HT       0.417000       1.00800           0
     37895 TIP3     3087     TIP3     OH2      OT      -0.834000       15.9994           0
     37896 TIP3     3087     TIP3     H1       HT       0.417000       1.00800           0
     37897 TIP3     3087     TIP3     H2       HT       0.417000       1.00800           0
     37898 TIP3     3088     TIP3     OH2      OT      -0.834000       15.9994           0
     37899 TIP3     3088     TIP3     H1       HT       0.417000       1.00800           0
     37900 TIP3     3088     TIP3     H2       HT       0.417000       1.00800           0
     37901 TIP3     3089     TIP3     OH2      OT      -0.834000       15.9994           0
     37902 TIP3     3089     TIP3     H1       HT       0.417000       1.00800           0
     37903 TIP3     3089     TIP3     H2       HT       0.417000       1.00800           0
     37904 TIP3     3090     TIP3     OH2      OT      -0.834000       15.9994           0
     37905 TIP3     3090     TIP3     H1       HT       0.417000       1.00800           0
     37906 TIP3     3090     TIP3     H2       HT       0.417000       1.00800           0
     37907 TIP3     3091     TIP3     OH2      OT      -0.834000       15.9994           0
     37908 TIP3     3091     TIP3     H1       HT       0.417000       1.00800           0
     37909 TIP3     3091     TIP3     H2       HT       0.417000       1.00800           0
     37910 TIP3     3092     TIP3     OH2      OT      -0.834000       15.9994           0
     37911 TIP3     3092     TIP3     H1       HT       0.417000       1.00800           0
     37912 TIP3     3092     TIP3     H2       HT       0.417000       1.00800           0
     37913 TIP3     3093     TIP3     OH2      OT      -0.834000       15.9994           0
     37914 TIP3     3093     TIP3     H1       HT       0.417000       1.00800           0
     37915 TIP3     3093     TIP3     H2       HT       0.417000       1.00800           0
     37916 TIP3     3094     TIP3     OH2      OT      -0.834000       15.9994           0
     37917 TIP3     3094     TIP3     H1       HT       0.417000       1.00800           0
     37918 TIP3     3094     TIP3     H2       HT       0.417000       1.00800           0
     37919 TIP3     3095     TIP3     OH2      OT      -0.834000       15.9994           0
     37920 TIP3     3095     TIP3     H1       HT       0.417000       1.00800           0
     37921 TIP3     3095     TIP3     H2       HT       0.417000       1.00800           0
     37922 TIP3     3096     TIP3     OH2      OT      -0.834000       15.9994           0
     37923 TIP3     3096     TIP3     H1       HT       0.417000       1.00800           0
     37924 TIP3     3096     TIP3     H2       HT       0.417000       1.00800           0
     37925 TIP3     3097     TIP3     OH2      OT      -0.834000       15.9994           0
     37926 TIP3     3097     TIP3     H1       HT       0.417000       1.00800           0
     37927 TIP3     3097     TIP3     H2       HT       0.417000       1.00800           0
     37928 TIP3     3098     TIP3     OH2      OT      -0.834000       15.9994           0
     37929 TIP3     3098     TIP3     H1       HT       0.417000       1.00800           0
     37930 TIP3     3098     TIP3     H2       HT       0.417000       1.00800           0
     37931 TIP3     3099     TIP3     OH2      OT      -0.834000       15.9994           0
     37932 TIP3     3099     TIP3     H1       HT       0.417000       1.00800           0
     37933 TIP3     3099     TIP3     H2       HT       0.417000       1.00800           0
     37934 TIP3     3100     TIP3     OH2      OT      -0.834000       15.9994           0
     37935 TIP3     3100     TIP3     H1       HT       0.417000       1.00800           0
     37936 TIP3     3100     TIP3     H2       HT       0.417000       1.00800           0
     37937 TIP3     3101     TIP3     OH2      OT      -0.834000       15.9994           0
     37938 TIP3     3101     TIP3     H1       HT       0.417000       1.00800           0
     37939 TIP3     3101     TIP3     H2       HT       0.417000       1.00800           0
     37940 TIP3     3102     TIP3     OH2      OT      -0.834000       15.9994           0
     37941 TIP3     3102     TIP3     H1       HT       0.417000       1.00800           0
     37942 TIP3     3102     TIP3     H2       HT       0.417000       1.00800           0
     37943 TIP3     3103     TIP3     OH2      OT      -0.834000       15.9994           0
     37944 TIP3     3103     TIP3     H1       HT       0.417000       1.00800           0
     37945 TIP3     3103     TIP3     H2       HT       0.417000       1.00800           0
     37946 TIP3     3104     TIP3     OH2      OT      -0.834000       15.9994           0
     37947 TIP3     3104     TIP3     H1       HT       0.417000       1.00800           0
     37948 TIP3     3104     TIP3     H2       HT       0.417000       1.00800           0
     37949 TIP3     3105     TIP3     OH2      OT      -0.834000       15.9994           0
     37950 TIP3     3105     TIP3     H1       HT       0.417000       1.00800           0
     37951 TIP3     3105     TIP3     H2       HT       0.417000       1.00800           0
     37952 TIP3     3106     TIP3     OH2      OT      -0.834000       15.9994           0
     37953 TIP3     3106     TIP3     H1       HT       0.417000       1.00800           0
     37954 TIP3     3106     TIP3     H2       HT       0.417000       1.00800           0
     37955 TIP3     3107     TIP3     OH2      OT      -0.834000       15.9994           0
     37956 TIP3     3107     TIP3     H1       HT       0.417000       1.00800           0
     37957 TIP3     3107     TIP3     H2       HT       0.417000       1.00800           0
     37958 TIP3     3108     TIP3     OH2      OT      -0.834000       15.9994           0
     37959 TIP3     3108     TIP3     H1       HT       0.417000       1.00800           0
     37960 TIP3     3108     TIP3     H2       HT       0.417000       1.00800           0
     37961 TIP3     3109     TIP3     OH2      OT      -0.834000       15.9994           0
     37962 TIP3     3109     TIP3     H1       HT       0.417000       1.00800           0
     37963 TIP3     3109     TIP3     H2       HT       0.417000       1.00800           0
     37964 TIP3     3110     TIP3     OH2      OT      -0.834000       15.9994           0
     37965 TIP3     3110     TIP3     H1       HT       0.417000       1.00800           0
     37966 TIP3     3110     TIP3     H2       HT       0.417000       1.00800           0
     37967 TIP3     3111     TIP3     OH2      OT      -0.834000       15.9994           0
     37968 TIP3     3111     TIP3     H1       HT       0.417000       1.00800           0
     37969 TIP3     3111     TIP3     H2       HT       0.417000       1.00800           0
     37970 TIP3     3112     TIP3     OH2      OT      -0.834000       15.9994           0
     37971 TIP3     3112     TIP3     H1       HT       0.417000       1.00800           0
     37972 TIP3     3112     TIP3     H2       HT       0.417000       1.00800           0
     37973 TIP3     3113     TIP3     OH2      OT      -0.834000       15.9994           0
     37974 TIP3     3113     TIP3     H1       HT       0.417000       1.00800           0
     37975 TIP3     3113     TIP3     H2       HT       0.417000       1.00800           0
     37976 TIP3     3114     TIP3     OH2      OT      -0.834000       15.9994           0
     37977 TIP3     3114     TIP3     H1       HT       0.417000       1.00800           0
     37978 TIP3     3114     TIP3     H2       HT       0.417000       1.00800           0
     37979 TIP3     3115     TIP3     OH2      OT      -0.834000       15.9994           0
     37980 TIP3     3115     TIP3     H1       HT       0.417000       1.00800           0
     37981 TIP3     3115     TIP3     H2       HT       0.417000       1.00800           0
     37982 TIP3     3116     TIP3     OH2      OT      -0.834000       15.9994           0
     37983 TIP3     3116     TIP3     H1       HT       0.417000       1.00800           0
     37984 TIP3     3116     TIP3     H2       HT       0.417000       1.00800           0
     37985 TIP3     3117     TIP3     OH2      OT      -0.834000       15.9994           0
     37986 TIP3     3117     TIP3     H1       HT       0.417000       1.00800           0
     37987 TIP3     3117     TIP3     H2       HT       0.417000       1.00800           0
     37988 TIP3     3118     TIP3     OH2      OT      -0.834000       15.9994           0
     37989 TIP3     3118     TIP3     H1       HT       0.417000       1.00800           0
     37990 TIP3     3118     TIP3     H2       HT       0.417000       1.00800           0
     37991 TIP3     3119     TIP3     OH2      OT      -0.834000       15.9994           0
     37992 TIP3     3119     TIP3     H1       HT       0.417000       1.00800           0
     37993 TIP3     3119     TIP3     H2       HT       0.417000       1.00800           0
     37994 TIP3     3120     TIP3     OH2      OT      -0.834000       15.9994           0
     37995 TIP3     3120     TIP3     H1       HT       0.417000       1.00800           0
     37996 TIP3     3120     TIP3     H2       HT       0.417000       1.00800           0
     37997 TIP3     3121     TIP3     OH2      OT      -0.834000       15.9994           0
     37998 TIP3     3121     TIP3     H1       HT       0.417000       1.00800           0
     37999 TIP3     3121     TIP3     H2       HT       0.417000       1.00800           0
     38000 TIP3     3122     TIP3     OH2      OT      -0.834000       15.9994           0
     38001 TIP3     3122     TIP3     H1       HT       0.417000       1.00800           0
     38002 TIP3     3122     TIP3     H2       HT       0.417000       1.00800           0
     38003 TIP3     3123     TIP3     OH2      OT      -0.834000       15.9994           0
     38004 TIP3     3123     TIP3     H1       HT       0.417000       1.00800           0
     38005 TIP3     3123     TIP3     H2       HT       0.417000       1.00800           0
     38006 TIP3     3124     TIP3     OH2      OT      -0.834000       15.9994           0
     38007 TIP3     3124     TIP3     H1       HT       0.417000       1.00800           0
     38008 TIP3     3124     TIP3     H2       HT       0.417000       1.00800           0
     38009 TIP3     3125     TIP3     OH2      OT      -0.834000       15.9994           0
     38010 TIP3     3125     TIP3     H1       HT       0.417000       1.00800           0
     38011 TIP3     3125     TIP3     H2       HT       0.417000       1.00800           0
     38012 TIP3     3126     TIP3     OH2      OT      -0.834000       15.9994           0
     38013 TIP3     3126     TIP3     H1       HT       0.417000       1.00800           0
     38014 TIP3     3126     TIP3     H2       HT       0.417000       1.00800           0
     38015 TIP3     3127     TIP3     OH2      OT      -0.834000       15.9994           0
     38016 TIP3     3127     TIP3     H1       HT       0.417000       1.00800           0
     38017 TIP3     3127     TIP3     H2       HT       0.417000       1.00800           0
     38018 TIP3     3128     TIP3     OH2      OT      -0.834000       15.9994           0
     38019 TIP3     3128     TIP3     H1       HT       0.417000       1.00800           0
     38020 TIP3     3128     TIP3     H2       HT       0.417000       1.00800           0
     38021 TIP3     3129     TIP3     OH2      OT      -0.834000       15.9994           0
     38022 TIP3     3129     TIP3     H1       HT       0.417000       1.00800           0
     38023 TIP3     3129     TIP3     H2       HT       0.417000       1.00800           0
     38024 TIP3     3130     TIP3     OH2      OT      -0.834000       15.9994           0
     38025 TIP3     3130     TIP3     H1       HT       0.417000       1.00800           0
     38026 TIP3     3130     TIP3     H2       HT       0.417000       1.00800           0
     38027 TIP3     3131     TIP3     OH2      OT      -0.834000       15.9994           0
     38028 TIP3     3131     TIP3     H1       HT       0.417000       1.00800           0
     38029 TIP3     3131     TIP3     H2       HT       0.417000       1.00800           0
     38030 TIP3     3132     TIP3     OH2      OT      -0.834000       15.9994           0
     38031 TIP3     3132     TIP3     H1       HT       0.417000       1.00800           0
     38032 TIP3     3132     TIP3     H2       HT       0.417000       1.00800           0
     38033 TIP3     3133     TIP3     OH2      OT      -0.834000       15.9994           0
     38034 TIP3     3133     TIP3     H1       HT       0.417000       1.00800           0
     38035 TIP3     3133     TIP3     H2       HT       0.417000       1.00800           0
     38036 TIP3     3134     TIP3     OH2      OT      -0.834000       15.9994           0
     38037 TIP3     3134     TIP3     H1       HT       0.417000       1.00800           0
     38038 TIP3     3134     TIP3     H2       HT       0.417000       1.00800           0
     38039 TIP3     3135     TIP3     OH2      OT      -0.834000       15.9994           0
     38040 TIP3     3135     TIP3     H1       HT       0.417000       1.00800           0
     38041 TIP3     3135     TIP3     H2       HT       0.417000       1.00800           0
     38042 TIP3     3136     TIP3     OH2      OT      -0.834000       15.9994           0
     38043 TIP3     3136     TIP3     H1       HT       0.417000       1.00800           0
     38044 TIP3     3136     TIP3     H2       HT       0.417000       1.00800           0
     38045 TIP3     3137     TIP3     OH2      OT      -0.834000       15.9994           0
     38046 TIP3     3137     TIP3     H1       HT       0.417000       1.00800           0
     38047 TIP3     3137     TIP3     H2       HT       0.417000       1.00800           0
     38048 TIP3     3138     TIP3     OH2      OT      -0.834000       15.9994           0
     38049 TIP3     3138     TIP3     H1       HT       0.417000       1.00800           0
     38050 TIP3     3138     TIP3     H2       HT       0.417000       1.00800           0
     38051 TIP3     3139     TIP3     OH2      OT      -0.834000       15.9994           0
     38052 TIP3     3139     TIP3     H1       HT       0.417000       1.00800           0
     38053 TIP3     3139     TIP3     H2       HT       0.417000       1.00800           0
     38054 TIP3     3140     TIP3     OH2      OT      -0.834000       15.9994           0
     38055 TIP3     3140     TIP3     H1       HT       0.417000       1.00800           0
     38056 TIP3     3140     TIP3     H2       HT       0.417000       1.00800           0
     38057 TIP3     3141     TIP3     OH2      OT      -0.834000       15.9994           0
     38058 TIP3     3141     TIP3     H1       HT       0.417000       1.00800           0
     38059 TIP3     3141     TIP3     H2       HT       0.417000       1.00800           0
     38060 TIP3     3142     TIP3     OH2      OT      -0.834000       15.9994           0
     38061 TIP3     3142     TIP3     H1       HT       0.417000       1.00800           0
     38062 TIP3     3142     TIP3     H2       HT       0.417000       1.00800           0
     38063 TIP3     3143     TIP3     OH2      OT      -0.834000       15.9994           0
     38064 TIP3     3143     TIP3     H1       HT       0.417000       1.00800           0
     38065 TIP3     3143     TIP3     H2       HT       0.417000       1.00800           0
     38066 TIP3     3144     TIP3     OH2      OT      -0.834000       15.9994           0
     38067 TIP3     3144     TIP3     H1       HT       0.417000       1.00800           0
     38068 TIP3     3144     TIP3     H2       HT       0.417000       1.00800           0
     38069 TIP3     3145     TIP3     OH2      OT      -0.834000       15.9994           0
     38070 TIP3     3145     TIP3     H1       HT       0.417000       1.00800           0
     38071 TIP3     3145     TIP3     H2       HT       0.417000       1.00800           0
     38072 TIP3     3146     TIP3     OH2      OT      -0.834000       15.9994           0
     38073 TIP3     3146     TIP3     H1       HT       0.417000       1.00800           0
     38074 TIP3     3146     TIP3     H2       HT       0.417000       1.00800           0
     38075 TIP3     3147     TIP3     OH2      OT      -0.834000       15.9994           0
     38076 TIP3     3147     TIP3     H1       HT       0.417000       1.00800           0
     38077 TIP3     3147     TIP3     H2       HT       0.417000       1.00800           0
     38078 TIP3     3148     TIP3     OH2      OT      -0.834000       15.9994           0
     38079 TIP3     3148     TIP3     H1       HT       0.417000       1.00800           0
     38080 TIP3     3148     TIP3     H2       HT       0.417000       1.00800           0
     38081 TIP3     3149     TIP3     OH2      OT      -0.834000       15.9994           0
     38082 TIP3     3149     TIP3     H1       HT       0.417000       1.00800           0
     38083 TIP3     3149     TIP3     H2       HT       0.417000       1.00800           0
     38084 TIP3     3150     TIP3     OH2      OT      -0.834000       15.9994           0
     38085 TIP3     3150     TIP3     H1       HT       0.417000       1.00800           0
     38086 TIP3     3150     TIP3     H2       HT       0.417000       1.00800           0
     38087 TIP3     3151     TIP3     OH2      OT      -0.834000       15.9994           0
     38088 TIP3     3151     TIP3     H1       HT       0.417000       1.00800           0
     38089 TIP3     3151     TIP3     H2       HT       0.417000       1.00800           0
     38090 TIP3     3152     TIP3     OH2      OT      -0.834000       15.9994           0
     38091 TIP3     3152     TIP3     H1       HT       0.417000       1.00800           0
     38092 TIP3     3152     TIP3     H2       HT       0.417000       1.00800           0
     38093 TIP3     3153     TIP3     OH2      OT      -0.834000       15.9994           0
     38094 TIP3     3153     TIP3     H1       HT       0.417000       1.00800           0
     38095 TIP3     3153     TIP3     H2       HT       0.417000       1.00800           0
     38096 TIP3     3154     TIP3     OH2      OT      -0.834000       15.9994           0
     38097 TIP3     3154     TIP3     H1       HT       0.417000       1.00800           0
     38098 TIP3     3154     TIP3     H2       HT       0.417000       1.00800           0
     38099 TIP3     3155     TIP3     OH2      OT      -0.834000       15.9994           0
     38100 TIP3     3155     TIP3     H1       HT       0.417000       1.00800           0
     38101 TIP3     3155     TIP3     H2       HT       0.417000       1.00800           0
     38102 TIP3     3156     TIP3     OH2      OT      -0.834000       15.9994           0
     38103 TIP3     3156     TIP3     H1       HT       0.417000       1.00800           0
     38104 TIP3     3156     TIP3     H2       HT       0.417000       1.00800           0
     38105 TIP3     3157     TIP3     OH2      OT      -0.834000       15.9994           0
     38106 TIP3     3157     TIP3     H1       HT       0.417000       1.00800           0
     38107 TIP3     3157     TIP3     H2       HT       0.417000       1.00800           0
     38108 TIP3     3158     TIP3     OH2      OT      -0.834000       15.9994           0
     38109 TIP3     3158     TIP3     H1       HT       0.417000       1.00800           0
     38110 TIP3     3158     TIP3     H2       HT       0.417000       1.00800           0
     38111 TIP3     3159     TIP3     OH2      OT      -0.834000       15.9994           0
     38112 TIP3     3159     TIP3     H1       HT       0.417000       1.00800           0
     38113 TIP3     3159     TIP3     H2       HT       0.417000       1.00800           0
     38114 TIP3     3160     TIP3     OH2      OT      -0.834000       15.9994           0
     38115 TIP3     3160     TIP3     H1       HT       0.417000       1.00800           0
     38116 TIP3     3160     TIP3     H2       HT       0.417000       1.00800           0
     38117 TIP3     3161     TIP3     OH2      OT      -0.834000       15.9994           0
     38118 TIP3     3161     TIP3     H1       HT       0.417000       1.00800           0
     38119 TIP3     3161     TIP3     H2       HT       0.417000       1.00800           0
     38120 TIP3     3162     TIP3     OH2      OT      -0.834000       15.9994           0
     38121 TIP3     3162     TIP3     H1       HT       0.417000       1.00800           0
     38122 TIP3     3162     TIP3     H2       HT       0.417000       1.00800           0
     38123 TIP3     3163     TIP3     OH2      OT      -0.834000       15.9994           0
     38124 TIP3     3163     TIP3     H1       HT       0.417000       1.00800           0
     38125 TIP3     3163     TIP3     H2       HT       0.417000       1.00800           0
     38126 TIP3     3164     TIP3     OH2      OT      -0.834000       15.9994           0
     38127 TIP3     3164     TIP3     H1       HT       0.417000       1.00800           0
     38128 TIP3     3164     TIP3     H2       HT       0.417000       1.00800           0
     38129 TIP3     3165     TIP3     OH2      OT      -0.834000       15.9994           0
     38130 TIP3     3165     TIP3     H1       HT       0.417000       1.00800           0
     38131 TIP3     3165     TIP3     H2       HT       0.417000       1.00800           0
     38132 TIP3     3166     TIP3     OH2      OT      -0.834000       15.9994           0
     38133 TIP3     3166     TIP3     H1       HT       0.417000       1.00800           0
     38134 TIP3     3166     TIP3     H2       HT       0.417000       1.00800           0
     38135 TIP3     3167     TIP3     OH2      OT      -0.834000       15.9994           0
     38136 TIP3     3167     TIP3     H1       HT       0.417000       1.00800           0
     38137 TIP3     3167     TIP3     H2       HT       0.417000       1.00800           0
     38138 TIP3     3168     TIP3     OH2      OT      -0.834000       15.9994           0
     38139 TIP3     3168     TIP3     H1       HT       0.417000       1.00800           0
     38140 TIP3     3168     TIP3     H2       HT       0.417000       1.00800           0
     38141 TIP3     3169     TIP3     OH2      OT      -0.834000       15.9994           0
     38142 TIP3     3169     TIP3     H1       HT       0.417000       1.00800           0
     38143 TIP3     3169     TIP3     H2       HT       0.417000       1.00800           0
     38144 TIP3     3170     TIP3     OH2      OT      -0.834000       15.9994           0
     38145 TIP3     3170     TIP3     H1       HT       0.417000       1.00800           0
     38146 TIP3     3170     TIP3     H2       HT       0.417000       1.00800           0
     38147 TIP3     3171     TIP3     OH2      OT      -0.834000       15.9994           0
     38148 TIP3     3171     TIP3     H1       HT       0.417000       1.00800           0
     38149 TIP3     3171     TIP3     H2       HT       0.417000       1.00800           0
     38150 TIP3     3172     TIP3     OH2      OT      -0.834000       15.9994           0
     38151 TIP3     3172     TIP3     H1       HT       0.417000       1.00800           0
     38152 TIP3     3172     TIP3     H2       HT       0.417000       1.00800           0
     38153 TIP3     3173     TIP3     OH2      OT      -0.834000       15.9994           0
     38154 TIP3     3173     TIP3     H1       HT       0.417000       1.00800           0
     38155 TIP3     3173     TIP3     H2       HT       0.417000       1.00800           0
     38156 TIP3     3174     TIP3     OH2      OT      -0.834000       15.9994           0
     38157 TIP3     3174     TIP3     H1       HT       0.417000       1.00800           0
     38158 TIP3     3174     TIP3     H2       HT       0.417000       1.00800           0
     38159 TIP3     3175     TIP3     OH2      OT      -0.834000       15.9994           0
     38160 TIP3     3175     TIP3     H1       HT       0.417000       1.00800           0
     38161 TIP3     3175     TIP3     H2       HT       0.417000       1.00800           0
     38162 TIP3     3176     TIP3     OH2      OT      -0.834000       15.9994           0
     38163 TIP3     3176     TIP3     H1       HT       0.417000       1.00800           0
     38164 TIP3     3176     TIP3     H2       HT       0.417000       1.00800           0
     38165 TIP3     3177     TIP3     OH2      OT      -0.834000       15.9994           0
     38166 TIP3     3177     TIP3     H1       HT       0.417000       1.00800           0
     38167 TIP3     3177     TIP3     H2       HT       0.417000       1.00800           0
     38168 TIP3     3178     TIP3     OH2      OT      -0.834000       15.9994           0
     38169 TIP3     3178     TIP3     H1       HT       0.417000       1.00800           0
     38170 TIP3     3178     TIP3     H2       HT       0.417000       1.00800           0
     38171 TIP3     3179     TIP3     OH2      OT      -0.834000       15.9994           0
     38172 TIP3     3179     TIP3     H1       HT       0.417000       1.00800           0
     38173 TIP3     3179     TIP3     H2       HT       0.417000       1.00800           0
     38174 TIP3     3180     TIP3     OH2      OT      -0.834000       15.9994           0
     38175 TIP3     3180     TIP3     H1       HT       0.417000       1.00800           0
     38176 TIP3     3180     TIP3     H2       HT       0.417000       1.00800           0
     38177 TIP3     3181     TIP3     OH2      OT      -0.834000       15.9994           0
     38178 TIP3     3181     TIP3     H1       HT       0.417000       1.00800           0
     38179 TIP3     3181     TIP3     H2       HT       0.417000       1.00800           0
     38180 TIP3     3182     TIP3     OH2      OT      -0.834000       15.9994           0
     38181 TIP3     3182     TIP3     H1       HT       0.417000       1.00800           0
     38182 TIP3     3182     TIP3     H2       HT       0.417000       1.00800           0
     38183 TIP3     3183     TIP3     OH2      OT      -0.834000       15.9994           0
     38184 TIP3     3183     TIP3     H1       HT       0.417000       1.00800           0
     38185 TIP3     3183     TIP3     H2       HT       0.417000       1.00800           0
     38186 TIP3     3184     TIP3     OH2      OT      -0.834000       15.9994           0
     38187 TIP3     3184     TIP3     H1       HT       0.417000       1.00800           0
     38188 TIP3     3184     TIP3     H2       HT       0.417000       1.00800           0
     38189 TIP3     3185     TIP3     OH2      OT      -0.834000       15.9994           0
     38190 TIP3     3185     TIP3     H1       HT       0.417000       1.00800           0
     38191 TIP3     3185     TIP3     H2       HT       0.417000       1.00800           0
     38192 TIP3     3186     TIP3     OH2      OT      -0.834000       15.9994           0
     38193 TIP3     3186     TIP3     H1       HT       0.417000       1.00800           0
     38194 TIP3     3186     TIP3     H2       HT       0.417000       1.00800           0
     38195 TIP3     3187     TIP3     OH2      OT      -0.834000       15.9994           0
     38196 TIP3     3187     TIP3     H1       HT       0.417000       1.00800           0
     38197 TIP3     3187     TIP3     H2       HT       0.417000       1.00800           0
     38198 TIP3     3188     TIP3     OH2      OT      -0.834000       15.9994           0
     38199 TIP3     3188     TIP3     H1       HT       0.417000       1.00800           0
     38200 TIP3     3188     TIP3     H2       HT       0.417000       1.00800           0
     38201 TIP3     3189     TIP3     OH2      OT      -0.834000       15.9994           0
     38202 TIP3     3189     TIP3     H1       HT       0.417000       1.00800           0
     38203 TIP3     3189     TIP3     H2       HT       0.417000       1.00800           0
     38204 TIP3     3190     TIP3     OH2      OT      -0.834000       15.9994           0
     38205 TIP3     3190     TIP3     H1       HT       0.417000       1.00800           0
     38206 TIP3     3190     TIP3     H2       HT       0.417000       1.00800           0
     38207 TIP3     3191     TIP3     OH2      OT      -0.834000       15.9994           0
     38208 TIP3     3191     TIP3     H1       HT       0.417000       1.00800           0
     38209 TIP3     3191     TIP3     H2       HT       0.417000       1.00800           0
     38210 TIP3     3192     TIP3     OH2      OT      -0.834000       15.9994           0
     38211 TIP3     3192     TIP3     H1       HT       0.417000       1.00800           0
     38212 TIP3     3192     TIP3     H2       HT       0.417000       1.00800           0
     38213 TIP3     3193     TIP3     OH2      OT      -0.834000       15.9994           0
     38214 TIP3     3193     TIP3     H1       HT       0.417000       1.00800           0
     38215 TIP3     3193     TIP3     H2       HT       0.417000       1.00800           0
     38216 TIP3     3194     TIP3     OH2      OT      -0.834000       15.9994           0
     38217 TIP3     3194     TIP3     H1       HT       0.417000       1.00800           0
     38218 TIP3     3194     TIP3     H2       HT       0.417000       1.00800           0
     38219 TIP3     3195     TIP3     OH2      OT      -0.834000       15.9994           0
     38220 TIP3     3195     TIP3     H1       HT       0.417000       1.00800           0
     38221 TIP3     3195     TIP3     H2       HT       0.417000       1.00800           0
     38222 TIP3     3196     TIP3     OH2      OT      -0.834000       15.9994           0
     38223 TIP3     3196     TIP3     H1       HT       0.417000       1.00800           0
     38224 TIP3     3196     TIP3     H2       HT       0.417000       1.00800           0
     38225 TIP3     3197     TIP3     OH2      OT      -0.834000       15.9994           0
     38226 TIP3     3197     TIP3     H1       HT       0.417000       1.00800           0
     38227 TIP3     3197     TIP3     H2       HT       0.417000       1.00800           0
     38228 TIP3     3198     TIP3     OH2      OT      -0.834000       15.9994           0
     38229 TIP3     3198     TIP3     H1       HT       0.417000       1.00800           0
     38230 TIP3     3198     TIP3     H2       HT       0.417000       1.00800           0
     38231 TIP3     3199     TIP3     OH2      OT      -0.834000       15.9994           0
     38232 TIP3     3199     TIP3     H1       HT       0.417000       1.00800           0
     38233 TIP3     3199     TIP3     H2       HT       0.417000       1.00800           0
     38234 TIP3     3200     TIP3     OH2      OT      -0.834000       15.9994           0
     38235 TIP3     3200     TIP3     H1       HT       0.417000       1.00800           0
     38236 TIP3     3200     TIP3     H2       HT       0.417000       1.00800           0
     38237 TIP3     3201     TIP3     OH2      OT      -0.834000       15.9994           0
     38238 TIP3     3201     TIP3     H1       HT       0.417000       1.00800           0
     38239 TIP3     3201     TIP3     H2       HT       0.417000       1.00800           0
     38240 TIP3     3202     TIP3     OH2      OT      -0.834000       15.9994           0
     38241 TIP3     3202     TIP3     H1       HT       0.417000       1.00800           0
     38242 TIP3     3202     TIP3     H2       HT       0.417000       1.00800           0
     38243 TIP3     3203     TIP3     OH2      OT      -0.834000       15.9994           0
     38244 TIP3     3203     TIP3     H1       HT       0.417000       1.00800           0
     38245 TIP3     3203     TIP3     H2       HT       0.417000       1.00800           0
     38246 TIP3     3204     TIP3     OH2      OT      -0.834000       15.9994           0
     38247 TIP3     3204     TIP3     H1       HT       0.417000       1.00800           0
     38248 TIP3     3204     TIP3     H2       HT       0.417000       1.00800           0
     38249 TIP3     3205     TIP3     OH2      OT      -0.834000       15.9994           0
     38250 TIP3     3205     TIP3     H1       HT       0.417000       1.00800           0
     38251 TIP3     3205     TIP3     H2       HT       0.417000       1.00800           0
     38252 TIP3     3206     TIP3     OH2      OT      -0.834000       15.9994           0
     38253 TIP3     3206     TIP3     H1       HT       0.417000       1.00800           0
     38254 TIP3     3206     TIP3     H2       HT       0.417000       1.00800           0
     38255 TIP3     3207     TIP3     OH2      OT      -0.834000       15.9994           0
     38256 TIP3     3207     TIP3     H1       HT       0.417000       1.00800           0
     38257 TIP3     3207     TIP3     H2       HT       0.417000       1.00800           0
     38258 TIP3     3208     TIP3     OH2      OT      -0.834000       15.9994           0
     38259 TIP3     3208     TIP3     H1       HT       0.417000       1.00800           0
     38260 TIP3     3208     TIP3     H2       HT       0.417000       1.00800           0
     38261 TIP3     3209     TIP3     OH2      OT      -0.834000       15.9994           0
     38262 TIP3     3209     TIP3     H1       HT       0.417000       1.00800           0
     38263 TIP3     3209     TIP3     H2       HT       0.417000       1.00800           0
     38264 TIP3     3210     TIP3     OH2      OT      -0.834000       15.9994           0
     38265 TIP3     3210     TIP3     H1       HT       0.417000       1.00800           0
     38266 TIP3     3210     TIP3     H2       HT       0.417000       1.00800           0
     38267 TIP3     3211     TIP3     OH2      OT      -0.834000       15.9994           0
     38268 TIP3     3211     TIP3     H1       HT       0.417000       1.00800           0
     38269 TIP3     3211     TIP3     H2       HT       0.417000       1.00800           0
     38270 TIP3     3212     TIP3     OH2      OT      -0.834000       15.9994           0
     38271 TIP3     3212     TIP3     H1       HT       0.417000       1.00800           0
     38272 TIP3     3212     TIP3     H2       HT       0.417000       1.00800           0
     38273 TIP3     3213     TIP3     OH2      OT      -0.834000       15.9994           0
     38274 TIP3     3213     TIP3     H1       HT       0.417000       1.00800           0
     38275 TIP3     3213     TIP3     H2       HT       0.417000       1.00800           0
     38276 TIP3     3214     TIP3     OH2      OT      -0.834000       15.9994           0
     38277 TIP3     3214     TIP3     H1       HT       0.417000       1.00800           0
     38278 TIP3     3214     TIP3     H2       HT       0.417000       1.00800           0
     38279 TIP3     3215     TIP3     OH2      OT      -0.834000       15.9994           0
     38280 TIP3     3215     TIP3     H1       HT       0.417000       1.00800           0
     38281 TIP3     3215     TIP3     H2       HT       0.417000       1.00800           0
     38282 TIP3     3216     TIP3     OH2      OT      -0.834000       15.9994           0
     38283 TIP3     3216     TIP3     H1       HT       0.417000       1.00800           0
     38284 TIP3     3216     TIP3     H2       HT       0.417000       1.00800           0
     38285 TIP3     3217     TIP3     OH2      OT      -0.834000       15.9994           0
     38286 TIP3     3217     TIP3     H1       HT       0.417000       1.00800           0
     38287 TIP3     3217     TIP3     H2       HT       0.417000       1.00800           0
     38288 TIP3     3218     TIP3     OH2      OT      -0.834000       15.9994           0
     38289 TIP3     3218     TIP3     H1       HT       0.417000       1.00800           0
     38290 TIP3     3218     TIP3     H2       HT       0.417000       1.00800           0
     38291 TIP3     3219     TIP3     OH2      OT      -0.834000       15.9994           0
     38292 TIP3     3219     TIP3     H1       HT       0.417000       1.00800           0
     38293 TIP3     3219     TIP3     H2       HT       0.417000       1.00800           0
     38294 TIP3     3220     TIP3     OH2      OT      -0.834000       15.9994           0
     38295 TIP3     3220     TIP3     H1       HT       0.417000       1.00800           0
     38296 TIP3     3220     TIP3     H2       HT       0.417000       1.00800           0
     38297 TIP3     3221     TIP3     OH2      OT      -0.834000       15.9994           0
     38298 TIP3     3221     TIP3     H1       HT       0.417000       1.00800           0
     38299 TIP3     3221     TIP3     H2       HT       0.417000       1.00800           0
     38300 TIP3     3222     TIP3     OH2      OT      -0.834000       15.9994           0
     38301 TIP3     3222     TIP3     H1       HT       0.417000       1.00800           0
     38302 TIP3     3222     TIP3     H2       HT       0.417000       1.00800           0
     38303 TIP3     3223     TIP3     OH2      OT      -0.834000       15.9994           0
     38304 TIP3     3223     TIP3     H1       HT       0.417000       1.00800           0
     38305 TIP3     3223     TIP3     H2       HT       0.417000       1.00800           0
     38306 TIP3     3224     TIP3     OH2      OT      -0.834000       15.9994           0
     38307 TIP3     3224     TIP3     H1       HT       0.417000       1.00800           0
     38308 TIP3     3224     TIP3     H2       HT       0.417000       1.00800           0
     38309 TIP3     3225     TIP3     OH2      OT      -0.834000       15.9994           0
     38310 TIP3     3225     TIP3     H1       HT       0.417000       1.00800           0
     38311 TIP3     3225     TIP3     H2       HT       0.417000       1.00800           0
     38312 TIP3     3226     TIP3     OH2      OT      -0.834000       15.9994           0
     38313 TIP3     3226     TIP3     H1       HT       0.417000       1.00800           0
     38314 TIP3     3226     TIP3     H2       HT       0.417000       1.00800           0
     38315 TIP3     3227     TIP3     OH2      OT      -0.834000       15.9994           0
     38316 TIP3     3227     TIP3     H1       HT       0.417000       1.00800           0
     38317 TIP3     3227     TIP3     H2       HT       0.417000       1.00800           0
     38318 TIP3     3228     TIP3     OH2      OT      -0.834000       15.9994           0
     38319 TIP3     3228     TIP3     H1       HT       0.417000       1.00800           0
     38320 TIP3     3228     TIP3     H2       HT       0.417000       1.00800           0
     38321 TIP3     3229     TIP3     OH2      OT      -0.834000       15.9994           0
     38322 TIP3     3229     TIP3     H1       HT       0.417000       1.00800           0
     38323 TIP3     3229     TIP3     H2       HT       0.417000       1.00800           0
     38324 TIP3     3230     TIP3     OH2      OT      -0.834000       15.9994           0
     38325 TIP3     3230     TIP3     H1       HT       0.417000       1.00800           0
     38326 TIP3     3230     TIP3     H2       HT       0.417000       1.00800           0
     38327 TIP3     3231     TIP3     OH2      OT      -0.834000       15.9994           0
     38328 TIP3     3231     TIP3     H1       HT       0.417000       1.00800           0
     38329 TIP3     3231     TIP3     H2       HT       0.417000       1.00800           0
     38330 TIP3     3232     TIP3     OH2      OT      -0.834000       15.9994           0
     38331 TIP3     3232     TIP3     H1       HT       0.417000       1.00800           0
     38332 TIP3     3232     TIP3     H2       HT       0.417000       1.00800           0
     38333 TIP3     3233     TIP3     OH2      OT      -0.834000       15.9994           0
     38334 TIP3     3233     TIP3     H1       HT       0.417000       1.00800           0
     38335 TIP3     3233     TIP3     H2       HT       0.417000       1.00800           0
     38336 TIP3     3234     TIP3     OH2      OT      -0.834000       15.9994           0
     38337 TIP3     3234     TIP3     H1       HT       0.417000       1.00800           0
     38338 TIP3     3234     TIP3     H2       HT       0.417000       1.00800           0
     38339 TIP3     3235     TIP3     OH2      OT      -0.834000       15.9994           0
     38340 TIP3     3235     TIP3     H1       HT       0.417000       1.00800           0
     38341 TIP3     3235     TIP3     H2       HT       0.417000       1.00800           0
     38342 TIP3     3236     TIP3     OH2      OT      -0.834000       15.9994           0
     38343 TIP3     3236     TIP3     H1       HT       0.417000       1.00800           0
     38344 TIP3     3236     TIP3     H2       HT       0.417000       1.00800           0
     38345 TIP3     3237     TIP3     OH2      OT      -0.834000       15.9994           0
     38346 TIP3     3237     TIP3     H1       HT       0.417000       1.00800           0
     38347 TIP3     3237     TIP3     H2       HT       0.417000       1.00800           0
     38348 TIP3     3238     TIP3     OH2      OT      -0.834000       15.9994           0
     38349 TIP3     3238     TIP3     H1       HT       0.417000       1.00800           0
     38350 TIP3     3238     TIP3     H2       HT       0.417000       1.00800           0
     38351 TIP3     3239     TIP3     OH2      OT      -0.834000       15.9994           0
     38352 TIP3     3239     TIP3     H1       HT       0.417000       1.00800           0
     38353 TIP3     3239     TIP3     H2       HT       0.417000       1.00800           0
     38354 TIP3     3240     TIP3     OH2      OT      -0.834000       15.9994           0
     38355 TIP3     3240     TIP3     H1       HT       0.417000       1.00800           0
     38356 TIP3     3240     TIP3     H2       HT       0.417000       1.00800           0
     38357 TIP3     3241     TIP3     OH2      OT      -0.834000       15.9994           0
     38358 TIP3     3241     TIP3     H1       HT       0.417000       1.00800           0
     38359 TIP3     3241     TIP3     H2       HT       0.417000       1.00800           0
     38360 TIP3     3242     TIP3     OH2      OT      -0.834000       15.9994           0
     38361 TIP3     3242     TIP3     H1       HT       0.417000       1.00800           0
     38362 TIP3     3242     TIP3     H2       HT       0.417000       1.00800           0
     38363 TIP3     3243     TIP3     OH2      OT      -0.834000       15.9994           0
     38364 TIP3     3243     TIP3     H1       HT       0.417000       1.00800           0
     38365 TIP3     3243     TIP3     H2       HT       0.417000       1.00800           0
     38366 TIP3     3244     TIP3     OH2      OT      -0.834000       15.9994           0
     38367 TIP3     3244     TIP3     H1       HT       0.417000       1.00800           0
     38368 TIP3     3244     TIP3     H2       HT       0.417000       1.00800           0
     38369 TIP3     3245     TIP3     OH2      OT      -0.834000       15.9994           0
     38370 TIP3     3245     TIP3     H1       HT       0.417000       1.00800           0
     38371 TIP3     3245     TIP3     H2       HT       0.417000       1.00800           0
     38372 TIP3     3246     TIP3     OH2      OT      -0.834000       15.9994           0
     38373 TIP3     3246     TIP3     H1       HT       0.417000       1.00800           0
     38374 TIP3     3246     TIP3     H2       HT       0.417000       1.00800           0
     38375 TIP3     3247     TIP3     OH2      OT      -0.834000       15.9994           0
     38376 TIP3     3247     TIP3     H1       HT       0.417000       1.00800           0
     38377 TIP3     3247     TIP3     H2       HT       0.417000       1.00800           0
     38378 TIP3     3248     TIP3     OH2      OT      -0.834000       15.9994           0
     38379 TIP3     3248     TIP3     H1       HT       0.417000       1.00800           0
     38380 TIP3     3248     TIP3     H2       HT       0.417000       1.00800           0
     38381 TIP3     3249     TIP3     OH2      OT      -0.834000       15.9994           0
     38382 TIP3     3249     TIP3     H1       HT       0.417000       1.00800           0
     38383 TIP3     3249     TIP3     H2       HT       0.417000       1.00800           0
     38384 TIP3     3250     TIP3     OH2      OT      -0.834000       15.9994           0
     38385 TIP3     3250     TIP3     H1       HT       0.417000       1.00800           0
     38386 TIP3     3250     TIP3     H2       HT       0.417000       1.00800           0
     38387 TIP3     3251     TIP3     OH2      OT      -0.834000       15.9994           0
     38388 TIP3     3251     TIP3     H1       HT       0.417000       1.00800           0
     38389 TIP3     3251     TIP3     H2       HT       0.417000       1.00800           0
     38390 TIP3     3252     TIP3     OH2      OT      -0.834000       15.9994           0
     38391 TIP3     3252     TIP3     H1       HT       0.417000       1.00800           0
     38392 TIP3     3252     TIP3     H2       HT       0.417000       1.00800           0
     38393 TIP3     3253     TIP3     OH2      OT      -0.834000       15.9994           0
     38394 TIP3     3253     TIP3     H1       HT       0.417000       1.00800           0
     38395 TIP3     3253     TIP3     H2       HT       0.417000       1.00800           0
     38396 TIP3     3254     TIP3     OH2      OT      -0.834000       15.9994           0
     38397 TIP3     3254     TIP3     H1       HT       0.417000       1.00800           0
     38398 TIP3     3254     TIP3     H2       HT       0.417000       1.00800           0
     38399 TIP3     3255     TIP3     OH2      OT      -0.834000       15.9994           0
     38400 TIP3     3255     TIP3     H1       HT       0.417000       1.00800           0
     38401 TIP3     3255     TIP3     H2       HT       0.417000       1.00800           0
     38402 TIP3     3256     TIP3     OH2      OT      -0.834000       15.9994           0
     38403 TIP3     3256     TIP3     H1       HT       0.417000       1.00800           0
     38404 TIP3     3256     TIP3     H2       HT       0.417000       1.00800           0
     38405 TIP3     3257     TIP3     OH2      OT      -0.834000       15.9994           0
     38406 TIP3     3257     TIP3     H1       HT       0.417000       1.00800           0
     38407 TIP3     3257     TIP3     H2       HT       0.417000       1.00800           0
     38408 TIP3     3258     TIP3     OH2      OT      -0.834000       15.9994           0
     38409 TIP3     3258     TIP3     H1       HT       0.417000       1.00800           0
     38410 TIP3     3258     TIP3     H2       HT       0.417000       1.00800           0
     38411 TIP3     3259     TIP3     OH2      OT      -0.834000       15.9994           0
     38412 TIP3     3259     TIP3     H1       HT       0.417000       1.00800           0
     38413 TIP3     3259     TIP3     H2       HT       0.417000       1.00800           0
     38414 TIP3     3260     TIP3     OH2      OT      -0.834000       15.9994           0
     38415 TIP3     3260     TIP3     H1       HT       0.417000       1.00800           0
     38416 TIP3     3260     TIP3     H2       HT       0.417000       1.00800           0
     38417 TIP3     3261     TIP3     OH2      OT      -0.834000       15.9994           0
     38418 TIP3     3261     TIP3     H1       HT       0.417000       1.00800           0
     38419 TIP3     3261     TIP3     H2       HT       0.417000       1.00800           0
     38420 TIP3     3262     TIP3     OH2      OT      -0.834000       15.9994           0
     38421 TIP3     3262     TIP3     H1       HT       0.417000       1.00800           0
     38422 TIP3     3262     TIP3     H2       HT       0.417000       1.00800           0
     38423 TIP3     3263     TIP3     OH2      OT      -0.834000       15.9994           0
     38424 TIP3     3263     TIP3     H1       HT       0.417000       1.00800           0
     38425 TIP3     3263     TIP3     H2       HT       0.417000       1.00800           0
     38426 TIP3     3264     TIP3     OH2      OT      -0.834000       15.9994           0
     38427 TIP3     3264     TIP3     H1       HT       0.417000       1.00800           0
     38428 TIP3     3264     TIP3     H2       HT       0.417000       1.00800           0
     38429 TIP3     3265     TIP3     OH2      OT      -0.834000       15.9994           0
     38430 TIP3     3265     TIP3     H1       HT       0.417000       1.00800           0
     38431 TIP3     3265     TIP3     H2       HT       0.417000       1.00800           0
     38432 TIP3     3266     TIP3     OH2      OT      -0.834000       15.9994           0
     38433 TIP3     3266     TIP3     H1       HT       0.417000       1.00800           0
     38434 TIP3     3266     TIP3     H2       HT       0.417000       1.00800           0
     38435 TIP3     3267     TIP3     OH2      OT      -0.834000       15.9994           0
     38436 TIP3     3267     TIP3     H1       HT       0.417000       1.00800           0
     38437 TIP3     3267     TIP3     H2       HT       0.417000       1.00800           0
     38438 TIP3     3268     TIP3     OH2      OT      -0.834000       15.9994           0
     38439 TIP3     3268     TIP3     H1       HT       0.417000       1.00800           0
     38440 TIP3     3268     TIP3     H2       HT       0.417000       1.00800           0
     38441 TIP3     3269     TIP3     OH2      OT      -0.834000       15.9994           0
     38442 TIP3     3269     TIP3     H1       HT       0.417000       1.00800           0
     38443 TIP3     3269     TIP3     H2       HT       0.417000       1.00800           0
     38444 TIP3     3270     TIP3     OH2      OT      -0.834000       15.9994           0
     38445 TIP3     3270     TIP3     H1       HT       0.417000       1.00800           0
     38446 TIP3     3270     TIP3     H2       HT       0.417000       1.00800           0
     38447 TIP3     3271     TIP3     OH2      OT      -0.834000       15.9994           0
     38448 TIP3     3271     TIP3     H1       HT       0.417000       1.00800           0
     38449 TIP3     3271     TIP3     H2       HT       0.417000       1.00800           0
     38450 TIP3     3272     TIP3     OH2      OT      -0.834000       15.9994           0
     38451 TIP3     3272     TIP3     H1       HT       0.417000       1.00800           0
     38452 TIP3     3272     TIP3     H2       HT       0.417000       1.00800           0
     38453 TIP3     3273     TIP3     OH2      OT      -0.834000       15.9994           0
     38454 TIP3     3273     TIP3     H1       HT       0.417000       1.00800           0
     38455 TIP3     3273     TIP3     H2       HT       0.417000       1.00800           0
     38456 TIP3     3274     TIP3     OH2      OT      -0.834000       15.9994           0
     38457 TIP3     3274     TIP3     H1       HT       0.417000       1.00800           0
     38458 TIP3     3274     TIP3     H2       HT       0.417000       1.00800           0
     38459 TIP3     3275     TIP3     OH2      OT      -0.834000       15.9994           0
     38460 TIP3     3275     TIP3     H1       HT       0.417000       1.00800           0
     38461 TIP3     3275     TIP3     H2       HT       0.417000       1.00800           0
     38462 TIP3     3276     TIP3     OH2      OT      -0.834000       15.9994           0
     38463 TIP3     3276     TIP3     H1       HT       0.417000       1.00800           0
     38464 TIP3     3276     TIP3     H2       HT       0.417000       1.00800           0
     38465 TIP3     3277     TIP3     OH2      OT      -0.834000       15.9994           0
     38466 TIP3     3277     TIP3     H1       HT       0.417000       1.00800           0
     38467 TIP3     3277     TIP3     H2       HT       0.417000       1.00800           0
     38468 TIP3     3278     TIP3     OH2      OT      -0.834000       15.9994           0
     38469 TIP3     3278     TIP3     H1       HT       0.417000       1.00800           0
     38470 TIP3     3278     TIP3     H2       HT       0.417000       1.00800           0
     38471 TIP3     3279     TIP3     OH2      OT      -0.834000       15.9994           0
     38472 TIP3     3279     TIP3     H1       HT       0.417000       1.00800           0
     38473 TIP3     3279     TIP3     H2       HT       0.417000       1.00800           0
     38474 TIP3     3280     TIP3     OH2      OT      -0.834000       15.9994           0
     38475 TIP3     3280     TIP3     H1       HT       0.417000       1.00800           0
     38476 TIP3     3280     TIP3     H2       HT       0.417000       1.00800           0
     38477 TIP3     3281     TIP3     OH2      OT      -0.834000       15.9994           0
     38478 TIP3     3281     TIP3     H1       HT       0.417000       1.00800           0
     38479 TIP3     3281     TIP3     H2       HT       0.417000       1.00800           0
     38480 TIP3     3282     TIP3     OH2      OT      -0.834000       15.9994           0
     38481 TIP3     3282     TIP3     H1       HT       0.417000       1.00800           0
     38482 TIP3     3282     TIP3     H2       HT       0.417000       1.00800           0
     38483 TIP3     3283     TIP3     OH2      OT      -0.834000       15.9994           0
     38484 TIP3     3283     TIP3     H1       HT       0.417000       1.00800           0
     38485 TIP3     3283     TIP3     H2       HT       0.417000       1.00800           0
     38486 TIP3     3284     TIP3     OH2      OT      -0.834000       15.9994           0
     38487 TIP3     3284     TIP3     H1       HT       0.417000       1.00800           0
     38488 TIP3     3284     TIP3     H2       HT       0.417000       1.00800           0
     38489 TIP3     3285     TIP3     OH2      OT      -0.834000       15.9994           0
     38490 TIP3     3285     TIP3     H1       HT       0.417000       1.00800           0
     38491 TIP3     3285     TIP3     H2       HT       0.417000       1.00800           0
     38492 TIP3     3286     TIP3     OH2      OT      -0.834000       15.9994           0
     38493 TIP3     3286     TIP3     H1       HT       0.417000       1.00800           0
     38494 TIP3     3286     TIP3     H2       HT       0.417000       1.00800           0
     38495 TIP3     3287     TIP3     OH2      OT      -0.834000       15.9994           0
     38496 TIP3     3287     TIP3     H1       HT       0.417000       1.00800           0
     38497 TIP3     3287     TIP3     H2       HT       0.417000       1.00800           0
     38498 TIP3     3288     TIP3     OH2      OT      -0.834000       15.9994           0
     38499 TIP3     3288     TIP3     H1       HT       0.417000       1.00800           0
     38500 TIP3     3288     TIP3     H2       HT       0.417000       1.00800           0
     38501 TIP3     3289     TIP3     OH2      OT      -0.834000       15.9994           0
     38502 TIP3     3289     TIP3     H1       HT       0.417000       1.00800           0
     38503 TIP3     3289     TIP3     H2       HT       0.417000       1.00800           0
     38504 TIP3     3290     TIP3     OH2      OT      -0.834000       15.9994           0
     38505 TIP3     3290     TIP3     H1       HT       0.417000       1.00800           0
     38506 TIP3     3290     TIP3     H2       HT       0.417000       1.00800           0
     38507 TIP3     3291     TIP3     OH2      OT      -0.834000       15.9994           0
     38508 TIP3     3291     TIP3     H1       HT       0.417000       1.00800           0
     38509 TIP3     3291     TIP3     H2       HT       0.417000       1.00800           0
     38510 TIP3     3292     TIP3     OH2      OT      -0.834000       15.9994           0
     38511 TIP3     3292     TIP3     H1       HT       0.417000       1.00800           0
     38512 TIP3     3292     TIP3     H2       HT       0.417000       1.00800           0
     38513 TIP3     3293     TIP3     OH2      OT      -0.834000       15.9994           0
     38514 TIP3     3293     TIP3     H1       HT       0.417000       1.00800           0
     38515 TIP3     3293     TIP3     H2       HT       0.417000       1.00800           0
     38516 TIP3     3294     TIP3     OH2      OT      -0.834000       15.9994           0
     38517 TIP3     3294     TIP3     H1       HT       0.417000       1.00800           0
     38518 TIP3     3294     TIP3     H2       HT       0.417000       1.00800           0
     38519 TIP3     3295     TIP3     OH2      OT      -0.834000       15.9994           0
     38520 TIP3     3295     TIP3     H1       HT       0.417000       1.00800           0
     38521 TIP3     3295     TIP3     H2       HT       0.417000       1.00800           0
     38522 TIP3     3296     TIP3     OH2      OT      -0.834000       15.9994           0
     38523 TIP3     3296     TIP3     H1       HT       0.417000       1.00800           0
     38524 TIP3     3296     TIP3     H2       HT       0.417000       1.00800           0
     38525 TIP3     3297     TIP3     OH2      OT      -0.834000       15.9994           0
     38526 TIP3     3297     TIP3     H1       HT       0.417000       1.00800           0
     38527 TIP3     3297     TIP3     H2       HT       0.417000       1.00800           0
     38528 TIP3     3298     TIP3     OH2      OT      -0.834000       15.9994           0
     38529 TIP3     3298     TIP3     H1       HT       0.417000       1.00800           0
     38530 TIP3     3298     TIP3     H2       HT       0.417000       1.00800           0
     38531 TIP3     3299     TIP3     OH2      OT      -0.834000       15.9994           0
     38532 TIP3     3299     TIP3     H1       HT       0.417000       1.00800           0
     38533 TIP3     3299     TIP3     H2       HT       0.417000       1.00800           0
     38534 TIP3     3300     TIP3     OH2      OT      -0.834000       15.9994           0
     38535 TIP3     3300     TIP3     H1       HT       0.417000       1.00800           0
     38536 TIP3     3300     TIP3     H2       HT       0.417000       1.00800           0
     38537 TIP3     3301     TIP3     OH2      OT      -0.834000       15.9994           0
     38538 TIP3     3301     TIP3     H1       HT       0.417000       1.00800           0
     38539 TIP3     3301     TIP3     H2       HT       0.417000       1.00800           0
     38540 TIP3     3302     TIP3     OH2      OT      -0.834000       15.9994           0
     38541 TIP3     3302     TIP3     H1       HT       0.417000       1.00800           0
     38542 TIP3     3302     TIP3     H2       HT       0.417000       1.00800           0
     38543 TIP3     3303     TIP3     OH2      OT      -0.834000       15.9994           0
     38544 TIP3     3303     TIP3     H1       HT       0.417000       1.00800           0
     38545 TIP3     3303     TIP3     H2       HT       0.417000       1.00800           0
     38546 TIP3     3304     TIP3     OH2      OT      -0.834000       15.9994           0
     38547 TIP3     3304     TIP3     H1       HT       0.417000       1.00800           0
     38548 TIP3     3304     TIP3     H2       HT       0.417000       1.00800           0
     38549 TIP3     3305     TIP3     OH2      OT      -0.834000       15.9994           0
     38550 TIP3     3305     TIP3     H1       HT       0.417000       1.00800           0
     38551 TIP3     3305     TIP3     H2       HT       0.417000       1.00800           0
     38552 TIP3     3306     TIP3     OH2      OT      -0.834000       15.9994           0
     38553 TIP3     3306     TIP3     H1       HT       0.417000       1.00800           0
     38554 TIP3     3306     TIP3     H2       HT       0.417000       1.00800           0
     38555 TIP3     3307     TIP3     OH2      OT      -0.834000       15.9994           0
     38556 TIP3     3307     TIP3     H1       HT       0.417000       1.00800           0
     38557 TIP3     3307     TIP3     H2       HT       0.417000       1.00800           0
     38558 TIP3     3308     TIP3     OH2      OT      -0.834000       15.9994           0
     38559 TIP3     3308     TIP3     H1       HT       0.417000       1.00800           0
     38560 TIP3     3308     TIP3     H2       HT       0.417000       1.00800           0
     38561 TIP3     3309     TIP3     OH2      OT      -0.834000       15.9994           0
     38562 TIP3     3309     TIP3     H1       HT       0.417000       1.00800           0
     38563 TIP3     3309     TIP3     H2       HT       0.417000       1.00800           0
     38564 TIP3     3310     TIP3     OH2      OT      -0.834000       15.9994           0
     38565 TIP3     3310     TIP3     H1       HT       0.417000       1.00800           0
     38566 TIP3     3310     TIP3     H2       HT       0.417000       1.00800           0
     38567 TIP3     3311     TIP3     OH2      OT      -0.834000       15.9994           0
     38568 TIP3     3311     TIP3     H1       HT       0.417000       1.00800           0
     38569 TIP3     3311     TIP3     H2       HT       0.417000       1.00800           0
     38570 TIP3     3312     TIP3     OH2      OT      -0.834000       15.9994           0
     38571 TIP3     3312     TIP3     H1       HT       0.417000       1.00800           0
     38572 TIP3     3312     TIP3     H2       HT       0.417000       1.00800           0
     38573 TIP3     3313     TIP3     OH2      OT      -0.834000       15.9994           0
     38574 TIP3     3313     TIP3     H1       HT       0.417000       1.00800           0
     38575 TIP3     3313     TIP3     H2       HT       0.417000       1.00800           0
     38576 TIP3     3314     TIP3     OH2      OT      -0.834000       15.9994           0
     38577 TIP3     3314     TIP3     H1       HT       0.417000       1.00800           0
     38578 TIP3     3314     TIP3     H2       HT       0.417000       1.00800           0
     38579 TIP3     3315     TIP3     OH2      OT      -0.834000       15.9994           0
     38580 TIP3     3315     TIP3     H1       HT       0.417000       1.00800           0
     38581 TIP3     3315     TIP3     H2       HT       0.417000       1.00800           0
     38582 TIP3     3316     TIP3     OH2      OT      -0.834000       15.9994           0
     38583 TIP3     3316     TIP3     H1       HT       0.417000       1.00800           0
     38584 TIP3     3316     TIP3     H2       HT       0.417000       1.00800           0
     38585 TIP3     3317     TIP3     OH2      OT      -0.834000       15.9994           0
     38586 TIP3     3317     TIP3     H1       HT       0.417000       1.00800           0
     38587 TIP3     3317     TIP3     H2       HT       0.417000       1.00800           0
     38588 TIP3     3318     TIP3     OH2      OT      -0.834000       15.9994           0
     38589 TIP3     3318     TIP3     H1       HT       0.417000       1.00800           0
     38590 TIP3     3318     TIP3     H2       HT       0.417000       1.00800           0
     38591 TIP3     3319     TIP3     OH2      OT      -0.834000       15.9994           0
     38592 TIP3     3319     TIP3     H1       HT       0.417000       1.00800           0
     38593 TIP3     3319     TIP3     H2       HT       0.417000       1.00800           0
     38594 TIP3     3320     TIP3     OH2      OT      -0.834000       15.9994           0
     38595 TIP3     3320     TIP3     H1       HT       0.417000       1.00800           0
     38596 TIP3     3320     TIP3     H2       HT       0.417000       1.00800           0
     38597 TIP3     3321     TIP3     OH2      OT      -0.834000       15.9994           0
     38598 TIP3     3321     TIP3     H1       HT       0.417000       1.00800           0
     38599 TIP3     3321     TIP3     H2       HT       0.417000       1.00800           0
     38600 TIP3     3322     TIP3     OH2      OT      -0.834000       15.9994           0
     38601 TIP3     3322     TIP3     H1       HT       0.417000       1.00800           0
     38602 TIP3     3322     TIP3     H2       HT       0.417000       1.00800           0
     38603 TIP3     3323     TIP3     OH2      OT      -0.834000       15.9994           0
     38604 TIP3     3323     TIP3     H1       HT       0.417000       1.00800           0
     38605 TIP3     3323     TIP3     H2       HT       0.417000       1.00800           0
     38606 TIP3     3324     TIP3     OH2      OT      -0.834000       15.9994           0
     38607 TIP3     3324     TIP3     H1       HT       0.417000       1.00800           0
     38608 TIP3     3324     TIP3     H2       HT       0.417000       1.00800           0
     38609 TIP3     3325     TIP3     OH2      OT      -0.834000       15.9994           0
     38610 TIP3     3325     TIP3     H1       HT       0.417000       1.00800           0
     38611 TIP3     3325     TIP3     H2       HT       0.417000       1.00800           0
     38612 TIP3     3326     TIP3     OH2      OT      -0.834000       15.9994           0
     38613 TIP3     3326     TIP3     H1       HT       0.417000       1.00800           0
     38614 TIP3     3326     TIP3     H2       HT       0.417000       1.00800           0
     38615 TIP3     3327     TIP3     OH2      OT      -0.834000       15.9994           0
     38616 TIP3     3327     TIP3     H1       HT       0.417000       1.00800           0
     38617 TIP3     3327     TIP3     H2       HT       0.417000       1.00800           0
     38618 TIP3     3328     TIP3     OH2      OT      -0.834000       15.9994           0
     38619 TIP3     3328     TIP3     H1       HT       0.417000       1.00800           0
     38620 TIP3     3328     TIP3     H2       HT       0.417000       1.00800           0
     38621 TIP3     3329     TIP3     OH2      OT      -0.834000       15.9994           0
     38622 TIP3     3329     TIP3     H1       HT       0.417000       1.00800           0
     38623 TIP3     3329     TIP3     H2       HT       0.417000       1.00800           0
     38624 TIP3     3330     TIP3     OH2      OT      -0.834000       15.9994           0
     38625 TIP3     3330     TIP3     H1       HT       0.417000       1.00800           0
     38626 TIP3     3330     TIP3     H2       HT       0.417000       1.00800           0
     38627 TIP3     3331     TIP3     OH2      OT      -0.834000       15.9994           0
     38628 TIP3     3331     TIP3     H1       HT       0.417000       1.00800           0
     38629 TIP3     3331     TIP3     H2       HT       0.417000       1.00800           0
     38630 TIP3     3332     TIP3     OH2      OT      -0.834000       15.9994           0
     38631 TIP3     3332     TIP3     H1       HT       0.417000       1.00800           0
     38632 TIP3     3332     TIP3     H2       HT       0.417000       1.00800           0
     38633 TIP3     3333     TIP3     OH2      OT      -0.834000       15.9994           0
     38634 TIP3     3333     TIP3     H1       HT       0.417000       1.00800           0
     38635 TIP3     3333     TIP3     H2       HT       0.417000       1.00800           0
     38636 TIP3     3334     TIP3     OH2      OT      -0.834000       15.9994           0
     38637 TIP3     3334     TIP3     H1       HT       0.417000       1.00800           0
     38638 TIP3     3334     TIP3     H2       HT       0.417000       1.00800           0
     38639 TIP3     3335     TIP3     OH2      OT      -0.834000       15.9994           0
     38640 TIP3     3335     TIP3     H1       HT       0.417000       1.00800           0
     38641 TIP3     3335     TIP3     H2       HT       0.417000       1.00800           0
     38642 TIP3     3336     TIP3     OH2      OT      -0.834000       15.9994           0
     38643 TIP3     3336     TIP3     H1       HT       0.417000       1.00800           0
     38644 TIP3     3336     TIP3     H2       HT       0.417000       1.00800           0
     38645 TIP3     3337     TIP3     OH2      OT      -0.834000       15.9994           0
     38646 TIP3     3337     TIP3     H1       HT       0.417000       1.00800           0
     38647 TIP3     3337     TIP3     H2       HT       0.417000       1.00800           0
     38648 TIP3     3338     TIP3     OH2      OT      -0.834000       15.9994           0
     38649 TIP3     3338     TIP3     H1       HT       0.417000       1.00800           0
     38650 TIP3     3338     TIP3     H2       HT       0.417000       1.00800           0
     38651 TIP3     3339     TIP3     OH2      OT      -0.834000       15.9994           0
     38652 TIP3     3339     TIP3     H1       HT       0.417000       1.00800           0
     38653 TIP3     3339     TIP3     H2       HT       0.417000       1.00800           0
     38654 TIP3     3340     TIP3     OH2      OT      -0.834000       15.9994           0
     38655 TIP3     3340     TIP3     H1       HT       0.417000       1.00800           0
     38656 TIP3     3340     TIP3     H2       HT       0.417000       1.00800           0
     38657 TIP3     3341     TIP3     OH2      OT      -0.834000       15.9994           0
     38658 TIP3     3341     TIP3     H1       HT       0.417000       1.00800           0
     38659 TIP3     3341     TIP3     H2       HT       0.417000       1.00800           0
     38660 TIP3     3342     TIP3     OH2      OT      -0.834000       15.9994           0
     38661 TIP3     3342     TIP3     H1       HT       0.417000       1.00800           0
     38662 TIP3     3342     TIP3     H2       HT       0.417000       1.00800           0
     38663 TIP3     3343     TIP3     OH2      OT      -0.834000       15.9994           0
     38664 TIP3     3343     TIP3     H1       HT       0.417000       1.00800           0
     38665 TIP3     3343     TIP3     H2       HT       0.417000       1.00800           0
     38666 TIP3     3344     TIP3     OH2      OT      -0.834000       15.9994           0
     38667 TIP3     3344     TIP3     H1       HT       0.417000       1.00800           0
     38668 TIP3     3344     TIP3     H2       HT       0.417000       1.00800           0
     38669 TIP3     3345     TIP3     OH2      OT      -0.834000       15.9994           0
     38670 TIP3     3345     TIP3     H1       HT       0.417000       1.00800           0
     38671 TIP3     3345     TIP3     H2       HT       0.417000       1.00800           0
     38672 TIP3     3346     TIP3     OH2      OT      -0.834000       15.9994           0
     38673 TIP3     3346     TIP3     H1       HT       0.417000       1.00800           0
     38674 TIP3     3346     TIP3     H2       HT       0.417000       1.00800           0
     38675 TIP3     3347     TIP3     OH2      OT      -0.834000       15.9994           0
     38676 TIP3     3347     TIP3     H1       HT       0.417000       1.00800           0
     38677 TIP3     3347     TIP3     H2       HT       0.417000       1.00800           0
     38678 TIP3     3348     TIP3     OH2      OT      -0.834000       15.9994           0
     38679 TIP3     3348     TIP3     H1       HT       0.417000       1.00800           0
     38680 TIP3     3348     TIP3     H2       HT       0.417000       1.00800           0
     38681 TIP3     3349     TIP3     OH2      OT      -0.834000       15.9994           0
     38682 TIP3     3349     TIP3     H1       HT       0.417000       1.00800           0
     38683 TIP3     3349     TIP3     H2       HT       0.417000       1.00800           0
     38684 TIP3     3350     TIP3     OH2      OT      -0.834000       15.9994           0
     38685 TIP3     3350     TIP3     H1       HT       0.417000       1.00800           0
     38686 TIP3     3350     TIP3     H2       HT       0.417000       1.00800           0
     38687 TIP3     3351     TIP3     OH2      OT      -0.834000       15.9994           0
     38688 TIP3     3351     TIP3     H1       HT       0.417000       1.00800           0
     38689 TIP3     3351     TIP3     H2       HT       0.417000       1.00800           0
     38690 TIP3     3352     TIP3     OH2      OT      -0.834000       15.9994           0
     38691 TIP3     3352     TIP3     H1       HT       0.417000       1.00800           0
     38692 TIP3     3352     TIP3     H2       HT       0.417000       1.00800           0
     38693 TIP3     3353     TIP3     OH2      OT      -0.834000       15.9994           0
     38694 TIP3     3353     TIP3     H1       HT       0.417000       1.00800           0
     38695 TIP3     3353     TIP3     H2       HT       0.417000       1.00800           0
     38696 TIP3     3354     TIP3     OH2      OT      -0.834000       15.9994           0
     38697 TIP3     3354     TIP3     H1       HT       0.417000       1.00800           0
     38698 TIP3     3354     TIP3     H2       HT       0.417000       1.00800           0
     38699 TIP3     3355     TIP3     OH2      OT      -0.834000       15.9994           0
     38700 TIP3     3355     TIP3     H1       HT       0.417000       1.00800           0
     38701 TIP3     3355     TIP3     H2       HT       0.417000       1.00800           0
     38702 TIP3     3356     TIP3     OH2      OT      -0.834000       15.9994           0
     38703 TIP3     3356     TIP3     H1       HT       0.417000       1.00800           0
     38704 TIP3     3356     TIP3     H2       HT       0.417000       1.00800           0
     38705 TIP3     3357     TIP3     OH2      OT      -0.834000       15.9994           0
     38706 TIP3     3357     TIP3     H1       HT       0.417000       1.00800           0
     38707 TIP3     3357     TIP3     H2       HT       0.417000       1.00800           0
     38708 TIP3     3358     TIP3     OH2      OT      -0.834000       15.9994           0
     38709 TIP3     3358     TIP3     H1       HT       0.417000       1.00800           0
     38710 TIP3     3358     TIP3     H2       HT       0.417000       1.00800           0
     38711 TIP3     3359     TIP3     OH2      OT      -0.834000       15.9994           0
     38712 TIP3     3359     TIP3     H1       HT       0.417000       1.00800           0
     38713 TIP3     3359     TIP3     H2       HT       0.417000       1.00800           0
     38714 TIP3     3360     TIP3     OH2      OT      -0.834000       15.9994           0
     38715 TIP3     3360     TIP3     H1       HT       0.417000       1.00800           0
     38716 TIP3     3360     TIP3     H2       HT       0.417000       1.00800           0
     38717 TIP3     3361     TIP3     OH2      OT      -0.834000       15.9994           0
     38718 TIP3     3361     TIP3     H1       HT       0.417000       1.00800           0
     38719 TIP3     3361     TIP3     H2       HT       0.417000       1.00800           0
     38720 TIP3     3362     TIP3     OH2      OT      -0.834000       15.9994           0
     38721 TIP3     3362     TIP3     H1       HT       0.417000       1.00800           0
     38722 TIP3     3362     TIP3     H2       HT       0.417000       1.00800           0
     38723 TIP3     3363     TIP3     OH2      OT      -0.834000       15.9994           0
     38724 TIP3     3363     TIP3     H1       HT       0.417000       1.00800           0
     38725 TIP3     3363     TIP3     H2       HT       0.417000       1.00800           0
     38726 TIP3     3364     TIP3     OH2      OT      -0.834000       15.9994           0
     38727 TIP3     3364     TIP3     H1       HT       0.417000       1.00800           0
     38728 TIP3     3364     TIP3     H2       HT       0.417000       1.00800           0
     38729 TIP3     3365     TIP3     OH2      OT      -0.834000       15.9994           0
     38730 TIP3     3365     TIP3     H1       HT       0.417000       1.00800           0
     38731 TIP3     3365     TIP3     H2       HT       0.417000       1.00800           0
     38732 TIP3     3366     TIP3     OH2      OT      -0.834000       15.9994           0
     38733 TIP3     3366     TIP3     H1       HT       0.417000       1.00800           0
     38734 TIP3     3366     TIP3     H2       HT       0.417000       1.00800           0
     38735 TIP3     3367     TIP3     OH2      OT      -0.834000       15.9994           0
     38736 TIP3     3367     TIP3     H1       HT       0.417000       1.00800           0
     38737 TIP3     3367     TIP3     H2       HT       0.417000       1.00800           0
     38738 TIP3     3368     TIP3     OH2      OT      -0.834000       15.9994           0
     38739 TIP3     3368     TIP3     H1       HT       0.417000       1.00800           0
     38740 TIP3     3368     TIP3     H2       HT       0.417000       1.00800           0
     38741 TIP3     3369     TIP3     OH2      OT      -0.834000       15.9994           0
     38742 TIP3     3369     TIP3     H1       HT       0.417000       1.00800           0
     38743 TIP3     3369     TIP3     H2       HT       0.417000       1.00800           0
     38744 TIP3     3370     TIP3     OH2      OT      -0.834000       15.9994           0
     38745 TIP3     3370     TIP3     H1       HT       0.417000       1.00800           0
     38746 TIP3     3370     TIP3     H2       HT       0.417000       1.00800           0
     38747 TIP3     3371     TIP3     OH2      OT      -0.834000       15.9994           0
     38748 TIP3     3371     TIP3     H1       HT       0.417000       1.00800           0
     38749 TIP3     3371     TIP3     H2       HT       0.417000       1.00800           0
     38750 TIP3     3372     TIP3     OH2      OT      -0.834000       15.9994           0
     38751 TIP3     3372     TIP3     H1       HT       0.417000       1.00800           0
     38752 TIP3     3372     TIP3     H2       HT       0.417000       1.00800           0
     38753 TIP3     3373     TIP3     OH2      OT      -0.834000       15.9994           0
     38754 TIP3     3373     TIP3     H1       HT       0.417000       1.00800           0
     38755 TIP3     3373     TIP3     H2       HT       0.417000       1.00800           0
     38756 TIP3     3374     TIP3     OH2      OT      -0.834000       15.9994           0
     38757 TIP3     3374     TIP3     H1       HT       0.417000       1.00800           0
     38758 TIP3     3374     TIP3     H2       HT       0.417000       1.00800           0
     38759 TIP3     3375     TIP3     OH2      OT      -0.834000       15.9994           0
     38760 TIP3     3375     TIP3     H1       HT       0.417000       1.00800           0
     38761 TIP3     3375     TIP3     H2       HT       0.417000       1.00800           0
     38762 TIP3     3376     TIP3     OH2      OT      -0.834000       15.9994           0
     38763 TIP3     3376     TIP3     H1       HT       0.417000       1.00800           0
     38764 TIP3     3376     TIP3     H2       HT       0.417000       1.00800           0
     38765 TIP3     3377     TIP3     OH2      OT      -0.834000       15.9994           0
     38766 TIP3     3377     TIP3     H1       HT       0.417000       1.00800           0
     38767 TIP3     3377     TIP3     H2       HT       0.417000       1.00800           0
     38768 TIP3     3378     TIP3     OH2      OT      -0.834000       15.9994           0
     38769 TIP3     3378     TIP3     H1       HT       0.417000       1.00800           0
     38770 TIP3     3378     TIP3     H2       HT       0.417000       1.00800           0
     38771 TIP3     3379     TIP3     OH2      OT      -0.834000       15.9994           0
     38772 TIP3     3379     TIP3     H1       HT       0.417000       1.00800           0
     38773 TIP3     3379     TIP3     H2       HT       0.417000       1.00800           0
     38774 TIP3     3380     TIP3     OH2      OT      -0.834000       15.9994           0
     38775 TIP3     3380     TIP3     H1       HT       0.417000       1.00800           0
     38776 TIP3     3380     TIP3     H2       HT       0.417000       1.00800           0
     38777 TIP3     3381     TIP3     OH2      OT      -0.834000       15.9994           0
     38778 TIP3     3381     TIP3     H1       HT       0.417000       1.00800           0
     38779 TIP3     3381     TIP3     H2       HT       0.417000       1.00800           0
     38780 TIP3     3382     TIP3     OH2      OT      -0.834000       15.9994           0
     38781 TIP3     3382     TIP3     H1       HT       0.417000       1.00800           0
     38782 TIP3     3382     TIP3     H2       HT       0.417000       1.00800           0
     38783 TIP3     3383     TIP3     OH2      OT      -0.834000       15.9994           0
     38784 TIP3     3383     TIP3     H1       HT       0.417000       1.00800           0
     38785 TIP3     3383     TIP3     H2       HT       0.417000       1.00800           0
     38786 TIP3     3384     TIP3     OH2      OT      -0.834000       15.9994           0
     38787 TIP3     3384     TIP3     H1       HT       0.417000       1.00800           0
     38788 TIP3     3384     TIP3     H2       HT       0.417000       1.00800           0
     38789 TIP3     3385     TIP3     OH2      OT      -0.834000       15.9994           0
     38790 TIP3     3385     TIP3     H1       HT       0.417000       1.00800           0
     38791 TIP3     3385     TIP3     H2       HT       0.417000       1.00800           0
     38792 TIP3     3386     TIP3     OH2      OT      -0.834000       15.9994           0
     38793 TIP3     3386     TIP3     H1       HT       0.417000       1.00800           0
     38794 TIP3     3386     TIP3     H2       HT       0.417000       1.00800           0
     38795 TIP3     3387     TIP3     OH2      OT      -0.834000       15.9994           0
     38796 TIP3     3387     TIP3     H1       HT       0.417000       1.00800           0
     38797 TIP3     3387     TIP3     H2       HT       0.417000       1.00800           0
     38798 TIP3     3388     TIP3     OH2      OT      -0.834000       15.9994           0
     38799 TIP3     3388     TIP3     H1       HT       0.417000       1.00800           0
     38800 TIP3     3388     TIP3     H2       HT       0.417000       1.00800           0
     38801 TIP3     3389     TIP3     OH2      OT      -0.834000       15.9994           0
     38802 TIP3     3389     TIP3     H1       HT       0.417000       1.00800           0
     38803 TIP3     3389     TIP3     H2       HT       0.417000       1.00800           0
     38804 TIP3     3390     TIP3     OH2      OT      -0.834000       15.9994           0
     38805 TIP3     3390     TIP3     H1       HT       0.417000       1.00800           0
     38806 TIP3     3390     TIP3     H2       HT       0.417000       1.00800           0
     38807 TIP3     3391     TIP3     OH2      OT      -0.834000       15.9994           0
     38808 TIP3     3391     TIP3     H1       HT       0.417000       1.00800           0
     38809 TIP3     3391     TIP3     H2       HT       0.417000       1.00800           0
     38810 TIP3     3392     TIP3     OH2      OT      -0.834000       15.9994           0
     38811 TIP3     3392     TIP3     H1       HT       0.417000       1.00800           0
     38812 TIP3     3392     TIP3     H2       HT       0.417000       1.00800           0
     38813 TIP3     3393     TIP3     OH2      OT      -0.834000       15.9994           0
     38814 TIP3     3393     TIP3     H1       HT       0.417000       1.00800           0
     38815 TIP3     3393     TIP3     H2       HT       0.417000       1.00800           0
     38816 TIP3     3394     TIP3     OH2      OT      -0.834000       15.9994           0
     38817 TIP3     3394     TIP3     H1       HT       0.417000       1.00800           0
     38818 TIP3     3394     TIP3     H2       HT       0.417000       1.00800           0
     38819 TIP3     3395     TIP3     OH2      OT      -0.834000       15.9994           0
     38820 TIP3     3395     TIP3     H1       HT       0.417000       1.00800           0
     38821 TIP3     3395     TIP3     H2       HT       0.417000       1.00800           0
     38822 TIP3     3396     TIP3     OH2      OT      -0.834000       15.9994           0
     38823 TIP3     3396     TIP3     H1       HT       0.417000       1.00800           0
     38824 TIP3     3396     TIP3     H2       HT       0.417000       1.00800           0
     38825 TIP3     3397     TIP3     OH2      OT      -0.834000       15.9994           0
     38826 TIP3     3397     TIP3     H1       HT       0.417000       1.00800           0
     38827 TIP3     3397     TIP3     H2       HT       0.417000       1.00800           0
     38828 TIP3     3398     TIP3     OH2      OT      -0.834000       15.9994           0
     38829 TIP3     3398     TIP3     H1       HT       0.417000       1.00800           0
     38830 TIP3     3398     TIP3     H2       HT       0.417000       1.00800           0
     38831 TIP3     3399     TIP3     OH2      OT      -0.834000       15.9994           0
     38832 TIP3     3399     TIP3     H1       HT       0.417000       1.00800           0
     38833 TIP3     3399     TIP3     H2       HT       0.417000       1.00800           0
     38834 TIP3     3400     TIP3     OH2      OT      -0.834000       15.9994           0
     38835 TIP3     3400     TIP3     H1       HT       0.417000       1.00800           0
     38836 TIP3     3400     TIP3     H2       HT       0.417000       1.00800           0
     38837 TIP3     3401     TIP3     OH2      OT      -0.834000       15.9994           0
     38838 TIP3     3401     TIP3     H1       HT       0.417000       1.00800           0
     38839 TIP3     3401     TIP3     H2       HT       0.417000       1.00800           0
     38840 TIP3     3402     TIP3     OH2      OT      -0.834000       15.9994           0
     38841 TIP3     3402     TIP3     H1       HT       0.417000       1.00800           0
     38842 TIP3     3402     TIP3     H2       HT       0.417000       1.00800           0
     38843 TIP3     3403     TIP3     OH2      OT      -0.834000       15.9994           0
     38844 TIP3     3403     TIP3     H1       HT       0.417000       1.00800           0
     38845 TIP3     3403     TIP3     H2       HT       0.417000       1.00800           0
     38846 TIP3     3404     TIP3     OH2      OT      -0.834000       15.9994           0
     38847 TIP3     3404     TIP3     H1       HT       0.417000       1.00800           0
     38848 TIP3     3404     TIP3     H2       HT       0.417000       1.00800           0
     38849 TIP3     3405     TIP3     OH2      OT      -0.834000       15.9994           0
     38850 TIP3     3405     TIP3     H1       HT       0.417000       1.00800           0
     38851 TIP3     3405     TIP3     H2       HT       0.417000       1.00800           0
     38852 TIP3     3406     TIP3     OH2      OT      -0.834000       15.9994           0
     38853 TIP3     3406     TIP3     H1       HT       0.417000       1.00800           0
     38854 TIP3     3406     TIP3     H2       HT       0.417000       1.00800           0
     38855 TIP3     3407     TIP3     OH2      OT      -0.834000       15.9994           0
     38856 TIP3     3407     TIP3     H1       HT       0.417000       1.00800           0
     38857 TIP3     3407     TIP3     H2       HT       0.417000       1.00800           0
     38858 TIP3     3408     TIP3     OH2      OT      -0.834000       15.9994           0
     38859 TIP3     3408     TIP3     H1       HT       0.417000       1.00800           0
     38860 TIP3     3408     TIP3     H2       HT       0.417000       1.00800           0
     38861 TIP3     3409     TIP3     OH2      OT      -0.834000       15.9994           0
     38862 TIP3     3409     TIP3     H1       HT       0.417000       1.00800           0
     38863 TIP3     3409     TIP3     H2       HT       0.417000       1.00800           0
     38864 TIP3     3410     TIP3     OH2      OT      -0.834000       15.9994           0
     38865 TIP3     3410     TIP3     H1       HT       0.417000       1.00800           0
     38866 TIP3     3410     TIP3     H2       HT       0.417000       1.00800           0
     38867 TIP3     3411     TIP3     OH2      OT      -0.834000       15.9994           0
     38868 TIP3     3411     TIP3     H1       HT       0.417000       1.00800           0
     38869 TIP3     3411     TIP3     H2       HT       0.417000       1.00800           0
     38870 TIP3     3412     TIP3     OH2      OT      -0.834000       15.9994           0
     38871 TIP3     3412     TIP3     H1       HT       0.417000       1.00800           0
     38872 TIP3     3412     TIP3     H2       HT       0.417000       1.00800           0
     38873 TIP3     3413     TIP3     OH2      OT      -0.834000       15.9994           0
     38874 TIP3     3413     TIP3     H1       HT       0.417000       1.00800           0
     38875 TIP3     3413     TIP3     H2       HT       0.417000       1.00800           0
     38876 TIP3     3414     TIP3     OH2      OT      -0.834000       15.9994           0
     38877 TIP3     3414     TIP3     H1       HT       0.417000       1.00800           0
     38878 TIP3     3414     TIP3     H2       HT       0.417000       1.00800           0
     38879 TIP3     3415     TIP3     OH2      OT      -0.834000       15.9994           0
     38880 TIP3     3415     TIP3     H1       HT       0.417000       1.00800           0
     38881 TIP3     3415     TIP3     H2       HT       0.417000       1.00800           0
     38882 TIP3     3416     TIP3     OH2      OT      -0.834000       15.9994           0
     38883 TIP3     3416     TIP3     H1       HT       0.417000       1.00800           0
     38884 TIP3     3416     TIP3     H2       HT       0.417000       1.00800           0
     38885 TIP3     3417     TIP3     OH2      OT      -0.834000       15.9994           0
     38886 TIP3     3417     TIP3     H1       HT       0.417000       1.00800           0
     38887 TIP3     3417     TIP3     H2       HT       0.417000       1.00800           0
     38888 TIP3     3418     TIP3     OH2      OT      -0.834000       15.9994           0
     38889 TIP3     3418     TIP3     H1       HT       0.417000       1.00800           0
     38890 TIP3     3418     TIP3     H2       HT       0.417000       1.00800           0
     38891 TIP3     3419     TIP3     OH2      OT      -0.834000       15.9994           0
     38892 TIP3     3419     TIP3     H1       HT       0.417000       1.00800           0
     38893 TIP3     3419     TIP3     H2       HT       0.417000       1.00800           0
     38894 TIP3     3420     TIP3     OH2      OT      -0.834000       15.9994           0
     38895 TIP3     3420     TIP3     H1       HT       0.417000       1.00800           0
     38896 TIP3     3420     TIP3     H2       HT       0.417000       1.00800           0
     38897 TIP3     3421     TIP3     OH2      OT      -0.834000       15.9994           0
     38898 TIP3     3421     TIP3     H1       HT       0.417000       1.00800           0
     38899 TIP3     3421     TIP3     H2       HT       0.417000       1.00800           0
     38900 TIP3     3422     TIP3     OH2      OT      -0.834000       15.9994           0
     38901 TIP3     3422     TIP3     H1       HT       0.417000       1.00800           0
     38902 TIP3     3422     TIP3     H2       HT       0.417000       1.00800           0
     38903 TIP3     3423     TIP3     OH2      OT      -0.834000       15.9994           0
     38904 TIP3     3423     TIP3     H1       HT       0.417000       1.00800           0
     38905 TIP3     3423     TIP3     H2       HT       0.417000       1.00800           0
     38906 TIP3     3424     TIP3     OH2      OT      -0.834000       15.9994           0
     38907 TIP3     3424     TIP3     H1       HT       0.417000       1.00800           0
     38908 TIP3     3424     TIP3     H2       HT       0.417000       1.00800           0
     38909 TIP3     3425     TIP3     OH2      OT      -0.834000       15.9994           0
     38910 TIP3     3425     TIP3     H1       HT       0.417000       1.00800           0
     38911 TIP3     3425     TIP3     H2       HT       0.417000       1.00800           0
     38912 TIP3     3426     TIP3     OH2      OT      -0.834000       15.9994           0
     38913 TIP3     3426     TIP3     H1       HT       0.417000       1.00800           0
     38914 TIP3     3426     TIP3     H2       HT       0.417000       1.00800           0
     38915 TIP3     3427     TIP3     OH2      OT      -0.834000       15.9994           0
     38916 TIP3     3427     TIP3     H1       HT       0.417000       1.00800           0
     38917 TIP3     3427     TIP3     H2       HT       0.417000       1.00800           0
     38918 TIP3     3428     TIP3     OH2      OT      -0.834000       15.9994           0
     38919 TIP3     3428     TIP3     H1       HT       0.417000       1.00800           0
     38920 TIP3     3428     TIP3     H2       HT       0.417000       1.00800           0
     38921 TIP3     3429     TIP3     OH2      OT      -0.834000       15.9994           0
     38922 TIP3     3429     TIP3     H1       HT       0.417000       1.00800           0
     38923 TIP3     3429     TIP3     H2       HT       0.417000       1.00800           0
     38924 TIP3     3430     TIP3     OH2      OT      -0.834000       15.9994           0
     38925 TIP3     3430     TIP3     H1       HT       0.417000       1.00800           0
     38926 TIP3     3430     TIP3     H2       HT       0.417000       1.00800           0
     38927 TIP3     3431     TIP3     OH2      OT      -0.834000       15.9994           0
     38928 TIP3     3431     TIP3     H1       HT       0.417000       1.00800           0
     38929 TIP3     3431     TIP3     H2       HT       0.417000       1.00800           0
     38930 TIP3     3432     TIP3     OH2      OT      -0.834000       15.9994           0
     38931 TIP3     3432     TIP3     H1       HT       0.417000       1.00800           0
     38932 TIP3     3432     TIP3     H2       HT       0.417000       1.00800           0
     38933 TIP3     3433     TIP3     OH2      OT      -0.834000       15.9994           0
     38934 TIP3     3433     TIP3     H1       HT       0.417000       1.00800           0
     38935 TIP3     3433     TIP3     H2       HT       0.417000       1.00800           0
     38936 TIP3     3434     TIP3     OH2      OT      -0.834000       15.9994           0
     38937 TIP3     3434     TIP3     H1       HT       0.417000       1.00800           0
     38938 TIP3     3434     TIP3     H2       HT       0.417000       1.00800           0
     38939 TIP3     3435     TIP3     OH2      OT      -0.834000       15.9994           0
     38940 TIP3     3435     TIP3     H1       HT       0.417000       1.00800           0
     38941 TIP3     3435     TIP3     H2       HT       0.417000       1.00800           0
     38942 TIP3     3436     TIP3     OH2      OT      -0.834000       15.9994           0
     38943 TIP3     3436     TIP3     H1       HT       0.417000       1.00800           0
     38944 TIP3     3436     TIP3     H2       HT       0.417000       1.00800           0
     38945 TIP3     3437     TIP3     OH2      OT      -0.834000       15.9994           0
     38946 TIP3     3437     TIP3     H1       HT       0.417000       1.00800           0
     38947 TIP3     3437     TIP3     H2       HT       0.417000       1.00800           0
     38948 TIP3     3438     TIP3     OH2      OT      -0.834000       15.9994           0
     38949 TIP3     3438     TIP3     H1       HT       0.417000       1.00800           0
     38950 TIP3     3438     TIP3     H2       HT       0.417000       1.00800           0
     38951 TIP3     3439     TIP3     OH2      OT      -0.834000       15.9994           0
     38952 TIP3     3439     TIP3     H1       HT       0.417000       1.00800           0
     38953 TIP3     3439     TIP3     H2       HT       0.417000       1.00800           0
     38954 TIP3     3440     TIP3     OH2      OT      -0.834000       15.9994           0
     38955 TIP3     3440     TIP3     H1       HT       0.417000       1.00800           0
     38956 TIP3     3440     TIP3     H2       HT       0.417000       1.00800           0
     38957 TIP3     3441     TIP3     OH2      OT      -0.834000       15.9994           0
     38958 TIP3     3441     TIP3     H1       HT       0.417000       1.00800           0
     38959 TIP3     3441     TIP3     H2       HT       0.417000       1.00800           0
     38960 TIP3     3442     TIP3     OH2      OT      -0.834000       15.9994           0
     38961 TIP3     3442     TIP3     H1       HT       0.417000       1.00800           0
     38962 TIP3     3442     TIP3     H2       HT       0.417000       1.00800           0
     38963 TIP3     3443     TIP3     OH2      OT      -0.834000       15.9994           0
     38964 TIP3     3443     TIP3     H1       HT       0.417000       1.00800           0
     38965 TIP3     3443     TIP3     H2       HT       0.417000       1.00800           0
     38966 TIP3     3444     TIP3     OH2      OT      -0.834000       15.9994           0
     38967 TIP3     3444     TIP3     H1       HT       0.417000       1.00800           0
     38968 TIP3     3444     TIP3     H2       HT       0.417000       1.00800           0
     38969 TIP3     3445     TIP3     OH2      OT      -0.834000       15.9994           0
     38970 TIP3     3445     TIP3     H1       HT       0.417000       1.00800           0
     38971 TIP3     3445     TIP3     H2       HT       0.417000       1.00800           0
     38972 TIP3     3446     TIP3     OH2      OT      -0.834000       15.9994           0
     38973 TIP3     3446     TIP3     H1       HT       0.417000       1.00800           0
     38974 TIP3     3446     TIP3     H2       HT       0.417000       1.00800           0
     38975 TIP3     3447     TIP3     OH2      OT      -0.834000       15.9994           0
     38976 TIP3     3447     TIP3     H1       HT       0.417000       1.00800           0
     38977 TIP3     3447     TIP3     H2       HT       0.417000       1.00800           0
     38978 TIP3     3448     TIP3     OH2      OT      -0.834000       15.9994           0
     38979 TIP3     3448     TIP3     H1       HT       0.417000       1.00800           0
     38980 TIP3     3448     TIP3     H2       HT       0.417000       1.00800           0
     38981 TIP3     3449     TIP3     OH2      OT      -0.834000       15.9994           0
     38982 TIP3     3449     TIP3     H1       HT       0.417000       1.00800           0
     38983 TIP3     3449     TIP3     H2       HT       0.417000       1.00800           0
     38984 TIP3     3450     TIP3     OH2      OT      -0.834000       15.9994           0
     38985 TIP3     3450     TIP3     H1       HT       0.417000       1.00800           0
     38986 TIP3     3450     TIP3     H2       HT       0.417000       1.00800           0
     38987 TIP3     3451     TIP3     OH2      OT      -0.834000       15.9994           0
     38988 TIP3     3451     TIP3     H1       HT       0.417000       1.00800           0
     38989 TIP3     3451     TIP3     H2       HT       0.417000       1.00800           0
     38990 TIP3     3452     TIP3     OH2      OT      -0.834000       15.9994           0
     38991 TIP3     3452     TIP3     H1       HT       0.417000       1.00800           0
     38992 TIP3     3452     TIP3     H2       HT       0.417000       1.00800           0
     38993 TIP3     3453     TIP3     OH2      OT      -0.834000       15.9994           0
     38994 TIP3     3453     TIP3     H1       HT       0.417000       1.00800           0
     38995 TIP3     3453     TIP3     H2       HT       0.417000       1.00800           0
     38996 TIP3     3454     TIP3     OH2      OT      -0.834000       15.9994           0
     38997 TIP3     3454     TIP3     H1       HT       0.417000       1.00800           0
     38998 TIP3     3454     TIP3     H2       HT       0.417000       1.00800           0
     38999 TIP3     3455     TIP3     OH2      OT      -0.834000       15.9994           0
     39000 TIP3     3455     TIP3     H1       HT       0.417000       1.00800           0
     39001 TIP3     3455     TIP3     H2       HT       0.417000       1.00800           0
     39002 TIP3     3456     TIP3     OH2      OT      -0.834000       15.9994           0
     39003 TIP3     3456     TIP3     H1       HT       0.417000       1.00800           0
     39004 TIP3     3456     TIP3     H2       HT       0.417000       1.00800           0
     39005 TIP3     3457     TIP3     OH2      OT      -0.834000       15.9994           0
     39006 TIP3     3457     TIP3     H1       HT       0.417000       1.00800           0
     39007 TIP3     3457     TIP3     H2       HT       0.417000       1.00800           0
     39008 TIP3     3458     TIP3     OH2      OT      -0.834000       15.9994           0
     39009 TIP3     3458     TIP3     H1       HT       0.417000       1.00800           0
     39010 TIP3     3458     TIP3     H2       HT       0.417000       1.00800           0
     39011 TIP3     3459     TIP3     OH2      OT      -0.834000       15.9994           0
     39012 TIP3     3459     TIP3     H1       HT       0.417000       1.00800           0
     39013 TIP3     3459     TIP3     H2       HT       0.417000       1.00800           0
     39014 TIP3     3460     TIP3     OH2      OT      -0.834000       15.9994           0
     39015 TIP3     3460     TIP3     H1       HT       0.417000       1.00800           0
     39016 TIP3     3460     TIP3     H2       HT       0.417000       1.00800           0
     39017 TIP3     3461     TIP3     OH2      OT      -0.834000       15.9994           0
     39018 TIP3     3461     TIP3     H1       HT       0.417000       1.00800           0
     39019 TIP3     3461     TIP3     H2       HT       0.417000       1.00800           0
     39020 TIP3     3462     TIP3     OH2      OT      -0.834000       15.9994           0
     39021 TIP3     3462     TIP3     H1       HT       0.417000       1.00800           0
     39022 TIP3     3462     TIP3     H2       HT       0.417000       1.00800           0
     39023 TIP3     3463     TIP3     OH2      OT      -0.834000       15.9994           0
     39024 TIP3     3463     TIP3     H1       HT       0.417000       1.00800           0
     39025 TIP3     3463     TIP3     H2       HT       0.417000       1.00800           0
     39026 TIP3     3464     TIP3     OH2      OT      -0.834000       15.9994           0
     39027 TIP3     3464     TIP3     H1       HT       0.417000       1.00800           0
     39028 TIP3     3464     TIP3     H2       HT       0.417000       1.00800           0
     39029 TIP3     3465     TIP3     OH2      OT      -0.834000       15.9994           0
     39030 TIP3     3465     TIP3     H1       HT       0.417000       1.00800           0
     39031 TIP3     3465     TIP3     H2       HT       0.417000       1.00800           0
     39032 TIP3     3466     TIP3     OH2      OT      -0.834000       15.9994           0
     39033 TIP3     3466     TIP3     H1       HT       0.417000       1.00800           0
     39034 TIP3     3466     TIP3     H2       HT       0.417000       1.00800           0
     39035 TIP3     3467     TIP3     OH2      OT      -0.834000       15.9994           0
     39036 TIP3     3467     TIP3     H1       HT       0.417000       1.00800           0
     39037 TIP3     3467     TIP3     H2       HT       0.417000       1.00800           0
     39038 TIP3     3468     TIP3     OH2      OT      -0.834000       15.9994           0
     39039 TIP3     3468     TIP3     H1       HT       0.417000       1.00800           0
     39040 TIP3     3468     TIP3     H2       HT       0.417000       1.00800           0
     39041 TIP3     3469     TIP3     OH2      OT      -0.834000       15.9994           0
     39042 TIP3     3469     TIP3     H1       HT       0.417000       1.00800           0
     39043 TIP3     3469     TIP3     H2       HT       0.417000       1.00800           0
     39044 TIP3     3470     TIP3     OH2      OT      -0.834000       15.9994           0
     39045 TIP3     3470     TIP3     H1       HT       0.417000       1.00800           0
     39046 TIP3     3470     TIP3     H2       HT       0.417000       1.00800           0
     39047 TIP3     3471     TIP3     OH2      OT      -0.834000       15.9994           0
     39048 TIP3     3471     TIP3     H1       HT       0.417000       1.00800           0
     39049 TIP3     3471     TIP3     H2       HT       0.417000       1.00800           0
     39050 TIP3     3472     TIP3     OH2      OT      -0.834000       15.9994           0
     39051 TIP3     3472     TIP3     H1       HT       0.417000       1.00800           0
     39052 TIP3     3472     TIP3     H2       HT       0.417000       1.00800           0
     39053 TIP3     3473     TIP3     OH2      OT      -0.834000       15.9994           0
     39054 TIP3     3473     TIP3     H1       HT       0.417000       1.00800           0
     39055 TIP3     3473     TIP3     H2       HT       0.417000       1.00800           0
     39056 TIP3     3474     TIP3     OH2      OT      -0.834000       15.9994           0
     39057 TIP3     3474     TIP3     H1       HT       0.417000       1.00800           0
     39058 TIP3     3474     TIP3     H2       HT       0.417000       1.00800           0
     39059 TIP3     3475     TIP3     OH2      OT      -0.834000       15.9994           0
     39060 TIP3     3475     TIP3     H1       HT       0.417000       1.00800           0
     39061 TIP3     3475     TIP3     H2       HT       0.417000       1.00800           0
     39062 TIP3     3476     TIP3     OH2      OT      -0.834000       15.9994           0
     39063 TIP3     3476     TIP3     H1       HT       0.417000       1.00800           0
     39064 TIP3     3476     TIP3     H2       HT       0.417000       1.00800           0
     39065 TIP3     3477     TIP3     OH2      OT      -0.834000       15.9994           0
     39066 TIP3     3477     TIP3     H1       HT       0.417000       1.00800           0
     39067 TIP3     3477     TIP3     H2       HT       0.417000       1.00800           0
     39068 TIP3     3478     TIP3     OH2      OT      -0.834000       15.9994           0
     39069 TIP3     3478     TIP3     H1       HT       0.417000       1.00800           0
     39070 TIP3     3478     TIP3     H2       HT       0.417000       1.00800           0
     39071 TIP3     3479     TIP3     OH2      OT      -0.834000       15.9994           0
     39072 TIP3     3479     TIP3     H1       HT       0.417000       1.00800           0
     39073 TIP3     3479     TIP3     H2       HT       0.417000       1.00800           0
     39074 TIP3     3480     TIP3     OH2      OT      -0.834000       15.9994           0
     39075 TIP3     3480     TIP3     H1       HT       0.417000       1.00800           0
     39076 TIP3     3480     TIP3     H2       HT       0.417000       1.00800           0
     39077 TIP3     3481     TIP3     OH2      OT      -0.834000       15.9994           0
     39078 TIP3     3481     TIP3     H1       HT       0.417000       1.00800           0
     39079 TIP3     3481     TIP3     H2       HT       0.417000       1.00800           0
     39080 TIP3     3482     TIP3     OH2      OT      -0.834000       15.9994           0
     39081 TIP3     3482     TIP3     H1       HT       0.417000       1.00800           0
     39082 TIP3     3482     TIP3     H2       HT       0.417000       1.00800           0
     39083 TIP3     3483     TIP3     OH2      OT      -0.834000       15.9994           0
     39084 TIP3     3483     TIP3     H1       HT       0.417000       1.00800           0
     39085 TIP3     3483     TIP3     H2       HT       0.417000       1.00800           0
     39086 TIP3     3484     TIP3     OH2      OT      -0.834000       15.9994           0
     39087 TIP3     3484     TIP3     H1       HT       0.417000       1.00800           0
     39088 TIP3     3484     TIP3     H2       HT       0.417000       1.00800           0
     39089 TIP3     3485     TIP3     OH2      OT      -0.834000       15.9994           0
     39090 TIP3     3485     TIP3     H1       HT       0.417000       1.00800           0
     39091 TIP3     3485     TIP3     H2       HT       0.417000       1.00800           0
     39092 TIP3     3486     TIP3     OH2      OT      -0.834000       15.9994           0
     39093 TIP3     3486     TIP3     H1       HT       0.417000       1.00800           0
     39094 TIP3     3486     TIP3     H2       HT       0.417000       1.00800           0
     39095 TIP3     3487     TIP3     OH2      OT      -0.834000       15.9994           0
     39096 TIP3     3487     TIP3     H1       HT       0.417000       1.00800           0
     39097 TIP3     3487     TIP3     H2       HT       0.417000       1.00800           0
     39098 TIP3     3488     TIP3     OH2      OT      -0.834000       15.9994           0
     39099 TIP3     3488     TIP3     H1       HT       0.417000       1.00800           0
     39100 TIP3     3488     TIP3     H2       HT       0.417000       1.00800           0
     39101 TIP3     3489     TIP3     OH2      OT      -0.834000       15.9994           0
     39102 TIP3     3489     TIP3     H1       HT       0.417000       1.00800           0
     39103 TIP3     3489     TIP3     H2       HT       0.417000       1.00800           0
     39104 TIP3     3490     TIP3     OH2      OT      -0.834000       15.9994           0
     39105 TIP3     3490     TIP3     H1       HT       0.417000       1.00800           0
     39106 TIP3     3490     TIP3     H2       HT       0.417000       1.00800           0
     39107 TIP3     3491     TIP3     OH2      OT      -0.834000       15.9994           0
     39108 TIP3     3491     TIP3     H1       HT       0.417000       1.00800           0
     39109 TIP3     3491     TIP3     H2       HT       0.417000       1.00800           0
     39110 TIP3     3492     TIP3     OH2      OT      -0.834000       15.9994           0
     39111 TIP3     3492     TIP3     H1       HT       0.417000       1.00800           0
     39112 TIP3     3492     TIP3     H2       HT       0.417000       1.00800           0
     39113 TIP3     3493     TIP3     OH2      OT      -0.834000       15.9994           0
     39114 TIP3     3493     TIP3     H1       HT       0.417000       1.00800           0
     39115 TIP3     3493     TIP3     H2       HT       0.417000       1.00800           0
     39116 TIP3     3494     TIP3     OH2      OT      -0.834000       15.9994           0
     39117 TIP3     3494     TIP3     H1       HT       0.417000       1.00800           0
     39118 TIP3     3494     TIP3     H2       HT       0.417000       1.00800           0
     39119 TIP3     3495     TIP3     OH2      OT      -0.834000       15.9994           0
     39120 TIP3     3495     TIP3     H1       HT       0.417000       1.00800           0
     39121 TIP3     3495     TIP3     H2       HT       0.417000       1.00800           0
     39122 TIP3     3496     TIP3     OH2      OT      -0.834000       15.9994           0
     39123 TIP3     3496     TIP3     H1       HT       0.417000       1.00800           0
     39124 TIP3     3496     TIP3     H2       HT       0.417000       1.00800           0
     39125 TIP3     3497     TIP3     OH2      OT      -0.834000       15.9994           0
     39126 TIP3     3497     TIP3     H1       HT       0.417000       1.00800           0
     39127 TIP3     3497     TIP3     H2       HT       0.417000       1.00800           0
     39128 TIP3     3498     TIP3     OH2      OT      -0.834000       15.9994           0
     39129 TIP3     3498     TIP3     H1       HT       0.417000       1.00800           0
     39130 TIP3     3498     TIP3     H2       HT       0.417000       1.00800           0
     39131 TIP3     3499     TIP3     OH2      OT      -0.834000       15.9994           0
     39132 TIP3     3499     TIP3     H1       HT       0.417000       1.00800           0
     39133 TIP3     3499     TIP3     H2       HT       0.417000       1.00800           0
     39134 TIP3     3500     TIP3     OH2      OT      -0.834000       15.9994           0
     39135 TIP3     3500     TIP3     H1       HT       0.417000       1.00800           0
     39136 TIP3     3500     TIP3     H2       HT       0.417000       1.00800           0
     39137 TIP3     3501     TIP3     OH2      OT      -0.834000       15.9994           0
     39138 TIP3     3501     TIP3     H1       HT       0.417000       1.00800           0
     39139 TIP3     3501     TIP3     H2       HT       0.417000       1.00800           0
     39140 TIP3     3502     TIP3     OH2      OT      -0.834000       15.9994           0
     39141 TIP3     3502     TIP3     H1       HT       0.417000       1.00800           0
     39142 TIP3     3502     TIP3     H2       HT       0.417000       1.00800           0
     39143 TIP3     3503     TIP3     OH2      OT      -0.834000       15.9994           0
     39144 TIP3     3503     TIP3     H1       HT       0.417000       1.00800           0
     39145 TIP3     3503     TIP3     H2       HT       0.417000       1.00800           0
     39146 TIP3     3504     TIP3     OH2      OT      -0.834000       15.9994           0
     39147 TIP3     3504     TIP3     H1       HT       0.417000       1.00800           0
     39148 TIP3     3504     TIP3     H2       HT       0.417000       1.00800           0
     39149 TIP3     3505     TIP3     OH2      OT      -0.834000       15.9994           0
     39150 TIP3     3505     TIP3     H1       HT       0.417000       1.00800           0
     39151 TIP3     3505     TIP3     H2       HT       0.417000       1.00800           0
     39152 TIP3     3506     TIP3     OH2      OT      -0.834000       15.9994           0
     39153 TIP3     3506     TIP3     H1       HT       0.417000       1.00800           0
     39154 TIP3     3506     TIP3     H2       HT       0.417000       1.00800           0
     39155 TIP3     3507     TIP3     OH2      OT      -0.834000       15.9994           0
     39156 TIP3     3507     TIP3     H1       HT       0.417000       1.00800           0
     39157 TIP3     3507     TIP3     H2       HT       0.417000       1.00800           0
     39158 TIP3     3508     TIP3     OH2      OT      -0.834000       15.9994           0
     39159 TIP3     3508     TIP3     H1       HT       0.417000       1.00800           0
     39160 TIP3     3508     TIP3     H2       HT       0.417000       1.00800           0
     39161 TIP3     3509     TIP3     OH2      OT      -0.834000       15.9994           0
     39162 TIP3     3509     TIP3     H1       HT       0.417000       1.00800           0
     39163 TIP3     3509     TIP3     H2       HT       0.417000       1.00800           0
     39164 TIP3     3510     TIP3     OH2      OT      -0.834000       15.9994           0
     39165 TIP3     3510     TIP3     H1       HT       0.417000       1.00800           0
     39166 TIP3     3510     TIP3     H2       HT       0.417000       1.00800           0
     39167 TIP3     3511     TIP3     OH2      OT      -0.834000       15.9994           0
     39168 TIP3     3511     TIP3     H1       HT       0.417000       1.00800           0
     39169 TIP3     3511     TIP3     H2       HT       0.417000       1.00800           0
     39170 TIP3     3512     TIP3     OH2      OT      -0.834000       15.9994           0
     39171 TIP3     3512     TIP3     H1       HT       0.417000       1.00800           0
     39172 TIP3     3512     TIP3     H2       HT       0.417000       1.00800           0
     39173 TIP3     3513     TIP3     OH2      OT      -0.834000       15.9994           0
     39174 TIP3     3513     TIP3     H1       HT       0.417000       1.00800           0
     39175 TIP3     3513     TIP3     H2       HT       0.417000       1.00800           0
     39176 TIP3     3514     TIP3     OH2      OT      -0.834000       15.9994           0
     39177 TIP3     3514     TIP3     H1       HT       0.417000       1.00800           0
     39178 TIP3     3514     TIP3     H2       HT       0.417000       1.00800           0
     39179 TIP3     3515     TIP3     OH2      OT      -0.834000       15.9994           0
     39180 TIP3     3515     TIP3     H1       HT       0.417000       1.00800           0
     39181 TIP3     3515     TIP3     H2       HT       0.417000       1.00800           0
     39182 TIP3     3516     TIP3     OH2      OT      -0.834000       15.9994           0
     39183 TIP3     3516     TIP3     H1       HT       0.417000       1.00800           0
     39184 TIP3     3516     TIP3     H2       HT       0.417000       1.00800           0
     39185 TIP3     3517     TIP3     OH2      OT      -0.834000       15.9994           0
     39186 TIP3     3517     TIP3     H1       HT       0.417000       1.00800           0
     39187 TIP3     3517     TIP3     H2       HT       0.417000       1.00800           0
     39188 TIP3     3518     TIP3     OH2      OT      -0.834000       15.9994           0
     39189 TIP3     3518     TIP3     H1       HT       0.417000       1.00800           0
     39190 TIP3     3518     TIP3     H2       HT       0.417000       1.00800           0
     39191 TIP3     3519     TIP3     OH2      OT      -0.834000       15.9994           0
     39192 TIP3     3519     TIP3     H1       HT       0.417000       1.00800           0
     39193 TIP3     3519     TIP3     H2       HT       0.417000       1.00800           0
     39194 TIP3     3520     TIP3     OH2      OT      -0.834000       15.9994           0
     39195 TIP3     3520     TIP3     H1       HT       0.417000       1.00800           0
     39196 TIP3     3520     TIP3     H2       HT       0.417000       1.00800           0
     39197 TIP3     3521     TIP3     OH2      OT      -0.834000       15.9994           0
     39198 TIP3     3521     TIP3     H1       HT       0.417000       1.00800           0
     39199 TIP3     3521     TIP3     H2       HT       0.417000       1.00800           0
     39200 TIP3     3522     TIP3     OH2      OT      -0.834000       15.9994           0
     39201 TIP3     3522     TIP3     H1       HT       0.417000       1.00800           0
     39202 TIP3     3522     TIP3     H2       HT       0.417000       1.00800           0
     39203 TIP3     3523     TIP3     OH2      OT      -0.834000       15.9994           0
     39204 TIP3     3523     TIP3     H1       HT       0.417000       1.00800           0
     39205 TIP3     3523     TIP3     H2       HT       0.417000       1.00800           0
     39206 TIP3     3524     TIP3     OH2      OT      -0.834000       15.9994           0
     39207 TIP3     3524     TIP3     H1       HT       0.417000       1.00800           0
     39208 TIP3     3524     TIP3     H2       HT       0.417000       1.00800           0
     39209 TIP3     3525     TIP3     OH2      OT      -0.834000       15.9994           0
     39210 TIP3     3525     TIP3     H1       HT       0.417000       1.00800           0
     39211 TIP3     3525     TIP3     H2       HT       0.417000       1.00800           0
     39212 TIP3     3526     TIP3     OH2      OT      -0.834000       15.9994           0
     39213 TIP3     3526     TIP3     H1       HT       0.417000       1.00800           0
     39214 TIP3     3526     TIP3     H2       HT       0.417000       1.00800           0
     39215 TIP3     3527     TIP3     OH2      OT      -0.834000       15.9994           0
     39216 TIP3     3527     TIP3     H1       HT       0.417000       1.00800           0
     39217 TIP3     3527     TIP3     H2       HT       0.417000       1.00800           0
     39218 TIP3     3528     TIP3     OH2      OT      -0.834000       15.9994           0
     39219 TIP3     3528     TIP3     H1       HT       0.417000       1.00800           0
     39220 TIP3     3528     TIP3     H2       HT       0.417000       1.00800           0
     39221 TIP3     3529     TIP3     OH2      OT      -0.834000       15.9994           0
     39222 TIP3     3529     TIP3     H1       HT       0.417000       1.00800           0
     39223 TIP3     3529     TIP3     H2       HT       0.417000       1.00800           0
     39224 TIP3     3530     TIP3     OH2      OT      -0.834000       15.9994           0
     39225 TIP3     3530     TIP3     H1       HT       0.417000       1.00800           0
     39226 TIP3     3530     TIP3     H2       HT       0.417000       1.00800           0
     39227 TIP3     3531     TIP3     OH2      OT      -0.834000       15.9994           0
     39228 TIP3     3531     TIP3     H1       HT       0.417000       1.00800           0
     39229 TIP3     3531     TIP3     H2       HT       0.417000       1.00800           0
     39230 TIP3     3532     TIP3     OH2      OT      -0.834000       15.9994           0
     39231 TIP3     3532     TIP3     H1       HT       0.417000       1.00800           0
     39232 TIP3     3532     TIP3     H2       HT       0.417000       1.00800           0
     39233 TIP3     3533     TIP3     OH2      OT      -0.834000       15.9994           0
     39234 TIP3     3533     TIP3     H1       HT       0.417000       1.00800           0
     39235 TIP3     3533     TIP3     H2       HT       0.417000       1.00800           0
     39236 TIP3     3534     TIP3     OH2      OT      -0.834000       15.9994           0
     39237 TIP3     3534     TIP3     H1       HT       0.417000       1.00800           0
     39238 TIP3     3534     TIP3     H2       HT       0.417000       1.00800           0
     39239 TIP3     3535     TIP3     OH2      OT      -0.834000       15.9994           0
     39240 TIP3     3535     TIP3     H1       HT       0.417000       1.00800           0
     39241 TIP3     3535     TIP3     H2       HT       0.417000       1.00800           0
     39242 TIP3     3536     TIP3     OH2      OT      -0.834000       15.9994           0
     39243 TIP3     3536     TIP3     H1       HT       0.417000       1.00800           0
     39244 TIP3     3536     TIP3     H2       HT       0.417000       1.00800           0
     39245 TIP3     3537     TIP3     OH2      OT      -0.834000       15.9994           0
     39246 TIP3     3537     TIP3     H1       HT       0.417000       1.00800           0
     39247 TIP3     3537     TIP3     H2       HT       0.417000       1.00800           0
     39248 TIP3     3538     TIP3     OH2      OT      -0.834000       15.9994           0
     39249 TIP3     3538     TIP3     H1       HT       0.417000       1.00800           0
     39250 TIP3     3538     TIP3     H2       HT       0.417000       1.00800           0
     39251 TIP3     3539     TIP3     OH2      OT      -0.834000       15.9994           0
     39252 TIP3     3539     TIP3     H1       HT       0.417000       1.00800           0
     39253 TIP3     3539     TIP3     H2       HT       0.417000       1.00800           0
     39254 TIP3     3540     TIP3     OH2      OT      -0.834000       15.9994           0
     39255 TIP3     3540     TIP3     H1       HT       0.417000       1.00800           0
     39256 TIP3     3540     TIP3     H2       HT       0.417000       1.00800           0
     39257 TIP3     3541     TIP3     OH2      OT      -0.834000       15.9994           0
     39258 TIP3     3541     TIP3     H1       HT       0.417000       1.00800           0
     39259 TIP3     3541     TIP3     H2       HT       0.417000       1.00800           0
     39260 TIP3     3542     TIP3     OH2      OT      -0.834000       15.9994           0
     39261 TIP3     3542     TIP3     H1       HT       0.417000       1.00800           0
     39262 TIP3     3542     TIP3     H2       HT       0.417000       1.00800           0
     39263 TIP3     3543     TIP3     OH2      OT      -0.834000       15.9994           0
     39264 TIP3     3543     TIP3     H1       HT       0.417000       1.00800           0
     39265 TIP3     3543     TIP3     H2       HT       0.417000       1.00800           0
     39266 TIP3     3544     TIP3     OH2      OT      -0.834000       15.9994           0
     39267 TIP3     3544     TIP3     H1       HT       0.417000       1.00800           0
     39268 TIP3     3544     TIP3     H2       HT       0.417000       1.00800           0
     39269 TIP3     3545     TIP3     OH2      OT      -0.834000       15.9994           0
     39270 TIP3     3545     TIP3     H1       HT       0.417000       1.00800           0
     39271 TIP3     3545     TIP3     H2       HT       0.417000       1.00800           0
     39272 TIP3     3546     TIP3     OH2      OT      -0.834000       15.9994           0
     39273 TIP3     3546     TIP3     H1       HT       0.417000       1.00800           0
     39274 TIP3     3546     TIP3     H2       HT       0.417000       1.00800           0
     39275 TIP3     3547     TIP3     OH2      OT      -0.834000       15.9994           0
     39276 TIP3     3547     TIP3     H1       HT       0.417000       1.00800           0
     39277 TIP3     3547     TIP3     H2       HT       0.417000       1.00800           0
     39278 TIP3     3548     TIP3     OH2      OT      -0.834000       15.9994           0
     39279 TIP3     3548     TIP3     H1       HT       0.417000       1.00800           0
     39280 TIP3     3548     TIP3     H2       HT       0.417000       1.00800           0
     39281 TIP3     3549     TIP3     OH2      OT      -0.834000       15.9994           0
     39282 TIP3     3549     TIP3     H1       HT       0.417000       1.00800           0
     39283 TIP3     3549     TIP3     H2       HT       0.417000       1.00800           0
     39284 TIP3     3550     TIP3     OH2      OT      -0.834000       15.9994           0
     39285 TIP3     3550     TIP3     H1       HT       0.417000       1.00800           0
     39286 TIP3     3550     TIP3     H2       HT       0.417000       1.00800           0
     39287 TIP3     3551     TIP3     OH2      OT      -0.834000       15.9994           0
     39288 TIP3     3551     TIP3     H1       HT       0.417000       1.00800           0
     39289 TIP3     3551     TIP3     H2       HT       0.417000       1.00800           0
     39290 TIP3     3552     TIP3     OH2      OT      -0.834000       15.9994           0
     39291 TIP3     3552     TIP3     H1       HT       0.417000       1.00800           0
     39292 TIP3     3552     TIP3     H2       HT       0.417000       1.00800           0
     39293 TIP3     3553     TIP3     OH2      OT      -0.834000       15.9994           0
     39294 TIP3     3553     TIP3     H1       HT       0.417000       1.00800           0
     39295 TIP3     3553     TIP3     H2       HT       0.417000       1.00800           0
     39296 TIP3     3554     TIP3     OH2      OT      -0.834000       15.9994           0
     39297 TIP3     3554     TIP3     H1       HT       0.417000       1.00800           0
     39298 TIP3     3554     TIP3     H2       HT       0.417000       1.00800           0
     39299 TIP3     3555     TIP3     OH2      OT      -0.834000       15.9994           0
     39300 TIP3     3555     TIP3     H1       HT       0.417000       1.00800           0
     39301 TIP3     3555     TIP3     H2       HT       0.417000       1.00800           0
     39302 TIP3     3556     TIP3     OH2      OT      -0.834000       15.9994           0
     39303 TIP3     3556     TIP3     H1       HT       0.417000       1.00800           0
     39304 TIP3     3556     TIP3     H2       HT       0.417000       1.00800           0
     39305 TIP3     3557     TIP3     OH2      OT      -0.834000       15.9994           0
     39306 TIP3     3557     TIP3     H1       HT       0.417000       1.00800           0
     39307 TIP3     3557     TIP3     H2       HT       0.417000       1.00800           0
     39308 TIP3     3558     TIP3     OH2      OT      -0.834000       15.9994           0
     39309 TIP3     3558     TIP3     H1       HT       0.417000       1.00800           0
     39310 TIP3     3558     TIP3     H2       HT       0.417000       1.00800           0
     39311 TIP3     3559     TIP3     OH2      OT      -0.834000       15.9994           0
     39312 TIP3     3559     TIP3     H1       HT       0.417000       1.00800           0
     39313 TIP3     3559     TIP3     H2       HT       0.417000       1.00800           0
     39314 TIP3     3560     TIP3     OH2      OT      -0.834000       15.9994           0
     39315 TIP3     3560     TIP3     H1       HT       0.417000       1.00800           0
     39316 TIP3     3560     TIP3     H2       HT       0.417000       1.00800           0
     39317 TIP3     3561     TIP3     OH2      OT      -0.834000       15.9994           0
     39318 TIP3     3561     TIP3     H1       HT       0.417000       1.00800           0
     39319 TIP3     3561     TIP3     H2       HT       0.417000       1.00800           0
     39320 TIP3     3562     TIP3     OH2      OT      -0.834000       15.9994           0
     39321 TIP3     3562     TIP3     H1       HT       0.417000       1.00800           0
     39322 TIP3     3562     TIP3     H2       HT       0.417000       1.00800           0
     39323 TIP3     3563     TIP3     OH2      OT      -0.834000       15.9994           0
     39324 TIP3     3563     TIP3     H1       HT       0.417000       1.00800           0
     39325 TIP3     3563     TIP3     H2       HT       0.417000       1.00800           0
     39326 TIP3     3564     TIP3     OH2      OT      -0.834000       15.9994           0
     39327 TIP3     3564     TIP3     H1       HT       0.417000       1.00800           0
     39328 TIP3     3564     TIP3     H2       HT       0.417000       1.00800           0
     39329 TIP3     3565     TIP3     OH2      OT      -0.834000       15.9994           0
     39330 TIP3     3565     TIP3     H1       HT       0.417000       1.00800           0
     39331 TIP3     3565     TIP3     H2       HT       0.417000       1.00800           0
     39332 TIP3     3566     TIP3     OH2      OT      -0.834000       15.9994           0
     39333 TIP3     3566     TIP3     H1       HT       0.417000       1.00800           0
     39334 TIP3     3566     TIP3     H2       HT       0.417000       1.00800           0
     39335 TIP3     3567     TIP3     OH2      OT      -0.834000       15.9994           0
     39336 TIP3     3567     TIP3     H1       HT       0.417000       1.00800           0
     39337 TIP3     3567     TIP3     H2       HT       0.417000       1.00800           0
     39338 TIP3     3568     TIP3     OH2      OT      -0.834000       15.9994           0
     39339 TIP3     3568     TIP3     H1       HT       0.417000       1.00800           0
     39340 TIP3     3568     TIP3     H2       HT       0.417000       1.00800           0
     39341 TIP3     3569     TIP3     OH2      OT      -0.834000       15.9994           0
     39342 TIP3     3569     TIP3     H1       HT       0.417000       1.00800           0
     39343 TIP3     3569     TIP3     H2       HT       0.417000       1.00800           0
     39344 TIP3     3570     TIP3     OH2      OT      -0.834000       15.9994           0
     39345 TIP3     3570     TIP3     H1       HT       0.417000       1.00800           0
     39346 TIP3     3570     TIP3     H2       HT       0.417000       1.00800           0
     39347 TIP3     3571     TIP3     OH2      OT      -0.834000       15.9994           0
     39348 TIP3     3571     TIP3     H1       HT       0.417000       1.00800           0
     39349 TIP3     3571     TIP3     H2       HT       0.417000       1.00800           0
     39350 TIP3     3572     TIP3     OH2      OT      -0.834000       15.9994           0
     39351 TIP3     3572     TIP3     H1       HT       0.417000       1.00800           0
     39352 TIP3     3572     TIP3     H2       HT       0.417000       1.00800           0
     39353 TIP3     3573     TIP3     OH2      OT      -0.834000       15.9994           0
     39354 TIP3     3573     TIP3     H1       HT       0.417000       1.00800           0
     39355 TIP3     3573     TIP3     H2       HT       0.417000       1.00800           0
     39356 TIP3     3574     TIP3     OH2      OT      -0.834000       15.9994           0
     39357 TIP3     3574     TIP3     H1       HT       0.417000       1.00800           0
     39358 TIP3     3574     TIP3     H2       HT       0.417000       1.00800           0
     39359 TIP3     3575     TIP3     OH2      OT      -0.834000       15.9994           0
     39360 TIP3     3575     TIP3     H1       HT       0.417000       1.00800           0
     39361 TIP3     3575     TIP3     H2       HT       0.417000       1.00800           0
     39362 TIP3     3576     TIP3     OH2      OT      -0.834000       15.9994           0
     39363 TIP3     3576     TIP3     H1       HT       0.417000       1.00800           0
     39364 TIP3     3576     TIP3     H2       HT       0.417000       1.00800           0
     39365 TIP3     3577     TIP3     OH2      OT      -0.834000       15.9994           0
     39366 TIP3     3577     TIP3     H1       HT       0.417000       1.00800           0
     39367 TIP3     3577     TIP3     H2       HT       0.417000       1.00800           0
     39368 TIP3     3578     TIP3     OH2      OT      -0.834000       15.9994           0
     39369 TIP3     3578     TIP3     H1       HT       0.417000       1.00800           0
     39370 TIP3     3578     TIP3     H2       HT       0.417000       1.00800           0
     39371 TIP3     3579     TIP3     OH2      OT      -0.834000       15.9994           0
     39372 TIP3     3579     TIP3     H1       HT       0.417000       1.00800           0
     39373 TIP3     3579     TIP3     H2       HT       0.417000       1.00800           0
     39374 TIP3     3580     TIP3     OH2      OT      -0.834000       15.9994           0
     39375 TIP3     3580     TIP3     H1       HT       0.417000       1.00800           0
     39376 TIP3     3580     TIP3     H2       HT       0.417000       1.00800           0
     39377 TIP3     3581     TIP3     OH2      OT      -0.834000       15.9994           0
     39378 TIP3     3581     TIP3     H1       HT       0.417000       1.00800           0
     39379 TIP3     3581     TIP3     H2       HT       0.417000       1.00800           0
     39380 TIP3     3582     TIP3     OH2      OT      -0.834000       15.9994           0
     39381 TIP3     3582     TIP3     H1       HT       0.417000       1.00800           0
     39382 TIP3     3582     TIP3     H2       HT       0.417000       1.00800           0
     39383 TIP3     3583     TIP3     OH2      OT      -0.834000       15.9994           0
     39384 TIP3     3583     TIP3     H1       HT       0.417000       1.00800           0
     39385 TIP3     3583     TIP3     H2       HT       0.417000       1.00800           0
     39386 TIP3     3584     TIP3     OH2      OT      -0.834000       15.9994           0
     39387 TIP3     3584     TIP3     H1       HT       0.417000       1.00800           0
     39388 TIP3     3584     TIP3     H2       HT       0.417000       1.00800           0
     39389 TIP3     3585     TIP3     OH2      OT      -0.834000       15.9994           0
     39390 TIP3     3585     TIP3     H1       HT       0.417000       1.00800           0
     39391 TIP3     3585     TIP3     H2       HT       0.417000       1.00800           0
     39392 TIP3     3586     TIP3     OH2      OT      -0.834000       15.9994           0
     39393 TIP3     3586     TIP3     H1       HT       0.417000       1.00800           0
     39394 TIP3     3586     TIP3     H2       HT       0.417000       1.00800           0
     39395 TIP3     3587     TIP3     OH2      OT      -0.834000       15.9994           0
     39396 TIP3     3587     TIP3     H1       HT       0.417000       1.00800           0
     39397 TIP3     3587     TIP3     H2       HT       0.417000       1.00800           0
     39398 TIP3     3588     TIP3     OH2      OT      -0.834000       15.9994           0
     39399 TIP3     3588     TIP3     H1       HT       0.417000       1.00800           0
     39400 TIP3     3588     TIP3     H2       HT       0.417000       1.00800           0
     39401 TIP3     3589     TIP3     OH2      OT      -0.834000       15.9994           0
     39402 TIP3     3589     TIP3     H1       HT       0.417000       1.00800           0
     39403 TIP3     3589     TIP3     H2       HT       0.417000       1.00800           0
     39404 TIP3     3590     TIP3     OH2      OT      -0.834000       15.9994           0
     39405 TIP3     3590     TIP3     H1       HT       0.417000       1.00800           0
     39406 TIP3     3590     TIP3     H2       HT       0.417000       1.00800           0
     39407 TIP3     3591     TIP3     OH2      OT      -0.834000       15.9994           0
     39408 TIP3     3591     TIP3     H1       HT       0.417000       1.00800           0
     39409 TIP3     3591     TIP3     H2       HT       0.417000       1.00800           0
     39410 TIP3     3592     TIP3     OH2      OT      -0.834000       15.9994           0
     39411 TIP3     3592     TIP3     H1       HT       0.417000       1.00800           0
     39412 TIP3     3592     TIP3     H2       HT       0.417000       1.00800           0
     39413 TIP3     3593     TIP3     OH2      OT      -0.834000       15.9994           0
     39414 TIP3     3593     TIP3     H1       HT       0.417000       1.00800           0
     39415 TIP3     3593     TIP3     H2       HT       0.417000       1.00800           0
     39416 TIP3     3594     TIP3     OH2      OT      -0.834000       15.9994           0
     39417 TIP3     3594     TIP3     H1       HT       0.417000       1.00800           0
     39418 TIP3     3594     TIP3     H2       HT       0.417000       1.00800           0
     39419 TIP3     3595     TIP3     OH2      OT      -0.834000       15.9994           0
     39420 TIP3     3595     TIP3     H1       HT       0.417000       1.00800           0
     39421 TIP3     3595     TIP3     H2       HT       0.417000       1.00800           0
     39422 TIP3     3596     TIP3     OH2      OT      -0.834000       15.9994           0
     39423 TIP3     3596     TIP3     H1       HT       0.417000       1.00800           0
     39424 TIP3     3596     TIP3     H2       HT       0.417000       1.00800           0
     39425 TIP3     3597     TIP3     OH2      OT      -0.834000       15.9994           0
     39426 TIP3     3597     TIP3     H1       HT       0.417000       1.00800           0
     39427 TIP3     3597     TIP3     H2       HT       0.417000       1.00800           0
     39428 TIP3     3598     TIP3     OH2      OT      -0.834000       15.9994           0
     39429 TIP3     3598     TIP3     H1       HT       0.417000       1.00800           0
     39430 TIP3     3598     TIP3     H2       HT       0.417000       1.00800           0
     39431 TIP3     3599     TIP3     OH2      OT      -0.834000       15.9994           0
     39432 TIP3     3599     TIP3     H1       HT       0.417000       1.00800           0
     39433 TIP3     3599     TIP3     H2       HT       0.417000       1.00800           0
     39434 TIP3     3600     TIP3     OH2      OT      -0.834000       15.9994           0
     39435 TIP3     3600     TIP3     H1       HT       0.417000       1.00800           0
     39436 TIP3     3600     TIP3     H2       HT       0.417000       1.00800           0
     39437 TIP3     3601     TIP3     OH2      OT      -0.834000       15.9994           0
     39438 TIP3     3601     TIP3     H1       HT       0.417000       1.00800           0
     39439 TIP3     3601     TIP3     H2       HT       0.417000       1.00800           0
     39440 TIP3     3602     TIP3     OH2      OT      -0.834000       15.9994           0
     39441 TIP3     3602     TIP3     H1       HT       0.417000       1.00800           0
     39442 TIP3     3602     TIP3     H2       HT       0.417000       1.00800           0
     39443 TIP3     3603     TIP3     OH2      OT      -0.834000       15.9994           0
     39444 TIP3     3603     TIP3     H1       HT       0.417000       1.00800           0
     39445 TIP3     3603     TIP3     H2       HT       0.417000       1.00800           0
     39446 TIP3     3604     TIP3     OH2      OT      -0.834000       15.9994           0
     39447 TIP3     3604     TIP3     H1       HT       0.417000       1.00800           0
     39448 TIP3     3604     TIP3     H2       HT       0.417000       1.00800           0
     39449 TIP3     3605     TIP3     OH2      OT      -0.834000       15.9994           0
     39450 TIP3     3605     TIP3     H1       HT       0.417000       1.00800           0
     39451 TIP3     3605     TIP3     H2       HT       0.417000       1.00800           0
     39452 TIP3     3606     TIP3     OH2      OT      -0.834000       15.9994           0
     39453 TIP3     3606     TIP3     H1       HT       0.417000       1.00800           0
     39454 TIP3     3606     TIP3     H2       HT       0.417000       1.00800           0
     39455 TIP3     3607     TIP3     OH2      OT      -0.834000       15.9994           0
     39456 TIP3     3607     TIP3     H1       HT       0.417000       1.00800           0
     39457 TIP3     3607     TIP3     H2       HT       0.417000       1.00800           0
     39458 TIP3     3608     TIP3     OH2      OT      -0.834000       15.9994           0
     39459 TIP3     3608     TIP3     H1       HT       0.417000       1.00800           0
     39460 TIP3     3608     TIP3     H2       HT       0.417000       1.00800           0
     39461 TIP3     3609     TIP3     OH2      OT      -0.834000       15.9994           0
     39462 TIP3     3609     TIP3     H1       HT       0.417000       1.00800           0
     39463 TIP3     3609     TIP3     H2       HT       0.417000       1.00800           0
     39464 TIP3     3610     TIP3     OH2      OT      -0.834000       15.9994           0
     39465 TIP3     3610     TIP3     H1       HT       0.417000       1.00800           0
     39466 TIP3     3610     TIP3     H2       HT       0.417000       1.00800           0
     39467 TIP3     3611     TIP3     OH2      OT      -0.834000       15.9994           0
     39468 TIP3     3611     TIP3     H1       HT       0.417000       1.00800           0
     39469 TIP3     3611     TIP3     H2       HT       0.417000       1.00800           0
     39470 TIP3     3612     TIP3     OH2      OT      -0.834000       15.9994           0
     39471 TIP3     3612     TIP3     H1       HT       0.417000       1.00800           0
     39472 TIP3     3612     TIP3     H2       HT       0.417000       1.00800           0
     39473 TIP3     3613     TIP3     OH2      OT      -0.834000       15.9994           0
     39474 TIP3     3613     TIP3     H1       HT       0.417000       1.00800           0
     39475 TIP3     3613     TIP3     H2       HT       0.417000       1.00800           0
     39476 TIP3     3614     TIP3     OH2      OT      -0.834000       15.9994           0
     39477 TIP3     3614     TIP3     H1       HT       0.417000       1.00800           0
     39478 TIP3     3614     TIP3     H2       HT       0.417000       1.00800           0
     39479 TIP3     3615     TIP3     OH2      OT      -0.834000       15.9994           0
     39480 TIP3     3615     TIP3     H1       HT       0.417000       1.00800           0
     39481 TIP3     3615     TIP3     H2       HT       0.417000       1.00800           0
     39482 TIP3     3616     TIP3     OH2      OT      -0.834000       15.9994           0
     39483 TIP3     3616     TIP3     H1       HT       0.417000       1.00800           0
     39484 TIP3     3616     TIP3     H2       HT       0.417000       1.00800           0
     39485 TIP3     3617     TIP3     OH2      OT      -0.834000       15.9994           0
     39486 TIP3     3617     TIP3     H1       HT       0.417000       1.00800           0
     39487 TIP3     3617     TIP3     H2       HT       0.417000       1.00800           0
     39488 TIP3     3618     TIP3     OH2      OT      -0.834000       15.9994           0
     39489 TIP3     3618     TIP3     H1       HT       0.417000       1.00800           0
     39490 TIP3     3618     TIP3     H2       HT       0.417000       1.00800           0
     39491 TIP3     3619     TIP3     OH2      OT      -0.834000       15.9994           0
     39492 TIP3     3619     TIP3     H1       HT       0.417000       1.00800           0
     39493 TIP3     3619     TIP3     H2       HT       0.417000       1.00800           0
     39494 TIP3     3620     TIP3     OH2      OT      -0.834000       15.9994           0
     39495 TIP3     3620     TIP3     H1       HT       0.417000       1.00800           0
     39496 TIP3     3620     TIP3     H2       HT       0.417000       1.00800           0
     39497 TIP3     3621     TIP3     OH2      OT      -0.834000       15.9994           0
     39498 TIP3     3621     TIP3     H1       HT       0.417000       1.00800           0
     39499 TIP3     3621     TIP3     H2       HT       0.417000       1.00800           0
     39500 TIP3     3622     TIP3     OH2      OT      -0.834000       15.9994           0
     39501 TIP3     3622     TIP3     H1       HT       0.417000       1.00800           0
     39502 TIP3     3622     TIP3     H2       HT       0.417000       1.00800           0
     39503 TIP3     3623     TIP3     OH2      OT      -0.834000       15.9994           0
     39504 TIP3     3623     TIP3     H1       HT       0.417000       1.00800           0
     39505 TIP3     3623     TIP3     H2       HT       0.417000       1.00800           0
     39506 TIP3     3624     TIP3     OH2      OT      -0.834000       15.9994           0
     39507 TIP3     3624     TIP3     H1       HT       0.417000       1.00800           0
     39508 TIP3     3624     TIP3     H2       HT       0.417000       1.00800           0
     39509 TIP3     3625     TIP3     OH2      OT      -0.834000       15.9994           0
     39510 TIP3     3625     TIP3     H1       HT       0.417000       1.00800           0
     39511 TIP3     3625     TIP3     H2       HT       0.417000       1.00800           0
     39512 TIP3     3626     TIP3     OH2      OT      -0.834000       15.9994           0
     39513 TIP3     3626     TIP3     H1       HT       0.417000       1.00800           0
     39514 TIP3     3626     TIP3     H2       HT       0.417000       1.00800           0
     39515 TIP3     3627     TIP3     OH2      OT      -0.834000       15.9994           0
     39516 TIP3     3627     TIP3     H1       HT       0.417000       1.00800           0
     39517 TIP3     3627     TIP3     H2       HT       0.417000       1.00800           0
     39518 TIP3     3628     TIP3     OH2      OT      -0.834000       15.9994           0
     39519 TIP3     3628     TIP3     H1       HT       0.417000       1.00800           0
     39520 TIP3     3628     TIP3     H2       HT       0.417000       1.00800           0
     39521 TIP3     3629     TIP3     OH2      OT      -0.834000       15.9994           0
     39522 TIP3     3629     TIP3     H1       HT       0.417000       1.00800           0
     39523 TIP3     3629     TIP3     H2       HT       0.417000       1.00800           0
     39524 TIP3     3630     TIP3     OH2      OT      -0.834000       15.9994           0
     39525 TIP3     3630     TIP3     H1       HT       0.417000       1.00800           0
     39526 TIP3     3630     TIP3     H2       HT       0.417000       1.00800           0
     39527 TIP3     3631     TIP3     OH2      OT      -0.834000       15.9994           0
     39528 TIP3     3631     TIP3     H1       HT       0.417000       1.00800           0
     39529 TIP3     3631     TIP3     H2       HT       0.417000       1.00800           0
     39530 TIP3     3632     TIP3     OH2      OT      -0.834000       15.9994           0
     39531 TIP3     3632     TIP3     H1       HT       0.417000       1.00800           0
     39532 TIP3     3632     TIP3     H2       HT       0.417000       1.00800           0
     39533 TIP3     3633     TIP3     OH2      OT      -0.834000       15.9994           0
     39534 TIP3     3633     TIP3     H1       HT       0.417000       1.00800           0
     39535 TIP3     3633     TIP3     H2       HT       0.417000       1.00800           0
     39536 TIP3     3634     TIP3     OH2      OT      -0.834000       15.9994           0
     39537 TIP3     3634     TIP3     H1       HT       0.417000       1.00800           0
     39538 TIP3     3634     TIP3     H2       HT       0.417000       1.00800           0
     39539 TIP3     3635     TIP3     OH2      OT      -0.834000       15.9994           0
     39540 TIP3     3635     TIP3     H1       HT       0.417000       1.00800           0
     39541 TIP3     3635     TIP3     H2       HT       0.417000       1.00800           0
     39542 TIP3     3636     TIP3     OH2      OT      -0.834000       15.9994           0
     39543 TIP3     3636     TIP3     H1       HT       0.417000       1.00800           0
     39544 TIP3     3636     TIP3     H2       HT       0.417000       1.00800           0
     39545 TIP3     3637     TIP3     OH2      OT      -0.834000       15.9994           0
     39546 TIP3     3637     TIP3     H1       HT       0.417000       1.00800           0
     39547 TIP3     3637     TIP3     H2       HT       0.417000       1.00800           0
     39548 TIP3     3638     TIP3     OH2      OT      -0.834000       15.9994           0
     39549 TIP3     3638     TIP3     H1       HT       0.417000       1.00800           0
     39550 TIP3     3638     TIP3     H2       HT       0.417000       1.00800           0
     39551 TIP3     3639     TIP3     OH2      OT      -0.834000       15.9994           0
     39552 TIP3     3639     TIP3     H1       HT       0.417000       1.00800           0
     39553 TIP3     3639     TIP3     H2       HT       0.417000       1.00800           0
     39554 TIP3     3640     TIP3     OH2      OT      -0.834000       15.9994           0
     39555 TIP3     3640     TIP3     H1       HT       0.417000       1.00800           0
     39556 TIP3     3640     TIP3     H2       HT       0.417000       1.00800           0
     39557 TIP3     3641     TIP3     OH2      OT      -0.834000       15.9994           0
     39558 TIP3     3641     TIP3     H1       HT       0.417000       1.00800           0
     39559 TIP3     3641     TIP3     H2       HT       0.417000       1.00800           0
     39560 TIP3     3642     TIP3     OH2      OT      -0.834000       15.9994           0
     39561 TIP3     3642     TIP3     H1       HT       0.417000       1.00800           0
     39562 TIP3     3642     TIP3     H2       HT       0.417000       1.00800           0
     39563 TIP3     3643     TIP3     OH2      OT      -0.834000       15.9994           0
     39564 TIP3     3643     TIP3     H1       HT       0.417000       1.00800           0
     39565 TIP3     3643     TIP3     H2       HT       0.417000       1.00800           0
     39566 TIP3     3644     TIP3     OH2      OT      -0.834000       15.9994           0
     39567 TIP3     3644     TIP3     H1       HT       0.417000       1.00800           0
     39568 TIP3     3644     TIP3     H2       HT       0.417000       1.00800           0
     39569 TIP3     3645     TIP3     OH2      OT      -0.834000       15.9994           0
     39570 TIP3     3645     TIP3     H1       HT       0.417000       1.00800           0
     39571 TIP3     3645     TIP3     H2       HT       0.417000       1.00800           0
     39572 TIP3     3646     TIP3     OH2      OT      -0.834000       15.9994           0
     39573 TIP3     3646     TIP3     H1       HT       0.417000       1.00800           0
     39574 TIP3     3646     TIP3     H2       HT       0.417000       1.00800           0
     39575 TIP3     3647     TIP3     OH2      OT      -0.834000       15.9994           0
     39576 TIP3     3647     TIP3     H1       HT       0.417000       1.00800           0
     39577 TIP3     3647     TIP3     H2       HT       0.417000       1.00800           0
     39578 TIP3     3648     TIP3     OH2      OT      -0.834000       15.9994           0
     39579 TIP3     3648     TIP3     H1       HT       0.417000       1.00800           0
     39580 TIP3     3648     TIP3     H2       HT       0.417000       1.00800           0
     39581 TIP3     3649     TIP3     OH2      OT      -0.834000       15.9994           0
     39582 TIP3     3649     TIP3     H1       HT       0.417000       1.00800           0
     39583 TIP3     3649     TIP3     H2       HT       0.417000       1.00800           0
     39584 TIP3     3650     TIP3     OH2      OT      -0.834000       15.9994           0
     39585 TIP3     3650     TIP3     H1       HT       0.417000       1.00800           0
     39586 TIP3     3650     TIP3     H2       HT       0.417000       1.00800           0
     39587 TIP3     3651     TIP3     OH2      OT      -0.834000       15.9994           0
     39588 TIP3     3651     TIP3     H1       HT       0.417000       1.00800           0
     39589 TIP3     3651     TIP3     H2       HT       0.417000       1.00800           0
     39590 TIP3     3652     TIP3     OH2      OT      -0.834000       15.9994           0
     39591 TIP3     3652     TIP3     H1       HT       0.417000       1.00800           0
     39592 TIP3     3652     TIP3     H2       HT       0.417000       1.00800           0
     39593 TIP3     3653     TIP3     OH2      OT      -0.834000       15.9994           0
     39594 TIP3     3653     TIP3     H1       HT       0.417000       1.00800           0
     39595 TIP3     3653     TIP3     H2       HT       0.417000       1.00800           0
     39596 TIP3     3654     TIP3     OH2      OT      -0.834000       15.9994           0
     39597 TIP3     3654     TIP3     H1       HT       0.417000       1.00800           0
     39598 TIP3     3654     TIP3     H2       HT       0.417000       1.00800           0
     39599 TIP3     3655     TIP3     OH2      OT      -0.834000       15.9994           0
     39600 TIP3     3655     TIP3     H1       HT       0.417000       1.00800           0
     39601 TIP3     3655     TIP3     H2       HT       0.417000       1.00800           0
     39602 TIP3     3656     TIP3     OH2      OT      -0.834000       15.9994           0
     39603 TIP3     3656     TIP3     H1       HT       0.417000       1.00800           0
     39604 TIP3     3656     TIP3     H2       HT       0.417000       1.00800           0
     39605 TIP3     3657     TIP3     OH2      OT      -0.834000       15.9994           0
     39606 TIP3     3657     TIP3     H1       HT       0.417000       1.00800           0
     39607 TIP3     3657     TIP3     H2       HT       0.417000       1.00800           0
     39608 TIP3     3658     TIP3     OH2      OT      -0.834000       15.9994           0
     39609 TIP3     3658     TIP3     H1       HT       0.417000       1.00800           0
     39610 TIP3     3658     TIP3     H2       HT       0.417000       1.00800           0
     39611 TIP3     3659     TIP3     OH2      OT      -0.834000       15.9994           0
     39612 TIP3     3659     TIP3     H1       HT       0.417000       1.00800           0
     39613 TIP3     3659     TIP3     H2       HT       0.417000       1.00800           0
     39614 TIP3     3660     TIP3     OH2      OT      -0.834000       15.9994           0
     39615 TIP3     3660     TIP3     H1       HT       0.417000       1.00800           0
     39616 TIP3     3660     TIP3     H2       HT       0.417000       1.00800           0
     39617 TIP3     3661     TIP3     OH2      OT      -0.834000       15.9994           0
     39618 TIP3     3661     TIP3     H1       HT       0.417000       1.00800           0
     39619 TIP3     3661     TIP3     H2       HT       0.417000       1.00800           0
     39620 TIP3     3662     TIP3     OH2      OT      -0.834000       15.9994           0
     39621 TIP3     3662     TIP3     H1       HT       0.417000       1.00800           0
     39622 TIP3     3662     TIP3     H2       HT       0.417000       1.00800           0
     39623 TIP3     3663     TIP3     OH2      OT      -0.834000       15.9994           0
     39624 TIP3     3663     TIP3     H1       HT       0.417000       1.00800           0
     39625 TIP3     3663     TIP3     H2       HT       0.417000       1.00800           0
     39626 TIP3     3664     TIP3     OH2      OT      -0.834000       15.9994           0
     39627 TIP3     3664     TIP3     H1       HT       0.417000       1.00800           0
     39628 TIP3     3664     TIP3     H2       HT       0.417000       1.00800           0
     39629 TIP3     3665     TIP3     OH2      OT      -0.834000       15.9994           0
     39630 TIP3     3665     TIP3     H1       HT       0.417000       1.00800           0
     39631 TIP3     3665     TIP3     H2       HT       0.417000       1.00800           0
     39632 TIP3     3666     TIP3     OH2      OT      -0.834000       15.9994           0
     39633 TIP3     3666     TIP3     H1       HT       0.417000       1.00800           0
     39634 TIP3     3666     TIP3     H2       HT       0.417000       1.00800           0
     39635 TIP3     3667     TIP3     OH2      OT      -0.834000       15.9994           0
     39636 TIP3     3667     TIP3     H1       HT       0.417000       1.00800           0
     39637 TIP3     3667     TIP3     H2       HT       0.417000       1.00800           0
     39638 TIP3     3668     TIP3     OH2      OT      -0.834000       15.9994           0
     39639 TIP3     3668     TIP3     H1       HT       0.417000       1.00800           0
     39640 TIP3     3668     TIP3     H2       HT       0.417000       1.00800           0
     39641 TIP3     3669     TIP3     OH2      OT      -0.834000       15.9994           0
     39642 TIP3     3669     TIP3     H1       HT       0.417000       1.00800           0
     39643 TIP3     3669     TIP3     H2       HT       0.417000       1.00800           0
     39644 TIP3     3670     TIP3     OH2      OT      -0.834000       15.9994           0
     39645 TIP3     3670     TIP3     H1       HT       0.417000       1.00800           0
     39646 TIP3     3670     TIP3     H2       HT       0.417000       1.00800           0
     39647 TIP3     3671     TIP3     OH2      OT      -0.834000       15.9994           0
     39648 TIP3     3671     TIP3     H1       HT       0.417000       1.00800           0
     39649 TIP3     3671     TIP3     H2       HT       0.417000       1.00800           0
     39650 TIP3     3672     TIP3     OH2      OT      -0.834000       15.9994           0
     39651 TIP3     3672     TIP3     H1       HT       0.417000       1.00800           0
     39652 TIP3     3672     TIP3     H2       HT       0.417000       1.00800           0
     39653 TIP3     3673     TIP3     OH2      OT      -0.834000       15.9994           0
     39654 TIP3     3673     TIP3     H1       HT       0.417000       1.00800           0
     39655 TIP3     3673     TIP3     H2       HT       0.417000       1.00800           0
     39656 TIP3     3674     TIP3     OH2      OT      -0.834000       15.9994           0
     39657 TIP3     3674     TIP3     H1       HT       0.417000       1.00800           0
     39658 TIP3     3674     TIP3     H2       HT       0.417000       1.00800           0
     39659 TIP3     3675     TIP3     OH2      OT      -0.834000       15.9994           0
     39660 TIP3     3675     TIP3     H1       HT       0.417000       1.00800           0
     39661 TIP3     3675     TIP3     H2       HT       0.417000       1.00800           0
     39662 TIP3     3676     TIP3     OH2      OT      -0.834000       15.9994           0
     39663 TIP3     3676     TIP3     H1       HT       0.417000       1.00800           0
     39664 TIP3     3676     TIP3     H2       HT       0.417000       1.00800           0
     39665 TIP3     3677     TIP3     OH2      OT      -0.834000       15.9994           0
     39666 TIP3     3677     TIP3     H1       HT       0.417000       1.00800           0
     39667 TIP3     3677     TIP3     H2       HT       0.417000       1.00800           0
     39668 TIP3     3678     TIP3     OH2      OT      -0.834000       15.9994           0
     39669 TIP3     3678     TIP3     H1       HT       0.417000       1.00800           0
     39670 TIP3     3678     TIP3     H2       HT       0.417000       1.00800           0
     39671 TIP3     3679     TIP3     OH2      OT      -0.834000       15.9994           0
     39672 TIP3     3679     TIP3     H1       HT       0.417000       1.00800           0
     39673 TIP3     3679     TIP3     H2       HT       0.417000       1.00800           0
     39674 TIP3     3680     TIP3     OH2      OT      -0.834000       15.9994           0
     39675 TIP3     3680     TIP3     H1       HT       0.417000       1.00800           0
     39676 TIP3     3680     TIP3     H2       HT       0.417000       1.00800           0
     39677 TIP3     3681     TIP3     OH2      OT      -0.834000       15.9994           0
     39678 TIP3     3681     TIP3     H1       HT       0.417000       1.00800           0
     39679 TIP3     3681     TIP3     H2       HT       0.417000       1.00800           0
     39680 TIP3     3682     TIP3     OH2      OT      -0.834000       15.9994           0
     39681 TIP3     3682     TIP3     H1       HT       0.417000       1.00800           0
     39682 TIP3     3682     TIP3     H2       HT       0.417000       1.00800           0
     39683 TIP3     3683     TIP3     OH2      OT      -0.834000       15.9994           0
     39684 TIP3     3683     TIP3     H1       HT       0.417000       1.00800           0
     39685 TIP3     3683     TIP3     H2       HT       0.417000       1.00800           0
     39686 TIP3     3684     TIP3     OH2      OT      -0.834000       15.9994           0
     39687 TIP3     3684     TIP3     H1       HT       0.417000       1.00800           0
     39688 TIP3     3684     TIP3     H2       HT       0.417000       1.00800           0
     39689 TIP3     3685     TIP3     OH2      OT      -0.834000       15.9994           0
     39690 TIP3     3685     TIP3     H1       HT       0.417000       1.00800           0
     39691 TIP3     3685     TIP3     H2       HT       0.417000       1.00800           0
     39692 TIP3     3686     TIP3     OH2      OT      -0.834000       15.9994           0
     39693 TIP3     3686     TIP3     H1       HT       0.417000       1.00800           0
     39694 TIP3     3686     TIP3     H2       HT       0.417000       1.00800           0
     39695 TIP3     3687     TIP3     OH2      OT      -0.834000       15.9994           0
     39696 TIP3     3687     TIP3     H1       HT       0.417000       1.00800           0
     39697 TIP3     3687     TIP3     H2       HT       0.417000       1.00800           0
     39698 TIP3     3688     TIP3     OH2      OT      -0.834000       15.9994           0
     39699 TIP3     3688     TIP3     H1       HT       0.417000       1.00800           0
     39700 TIP3     3688     TIP3     H2       HT       0.417000       1.00800           0
     39701 TIP3     3689     TIP3     OH2      OT      -0.834000       15.9994           0
     39702 TIP3     3689     TIP3     H1       HT       0.417000       1.00800           0
     39703 TIP3     3689     TIP3     H2       HT       0.417000       1.00800           0
     39704 TIP3     3690     TIP3     OH2      OT      -0.834000       15.9994           0
     39705 TIP3     3690     TIP3     H1       HT       0.417000       1.00800           0
     39706 TIP3     3690     TIP3     H2       HT       0.417000       1.00800           0
     39707 TIP3     3691     TIP3     OH2      OT      -0.834000       15.9994           0
     39708 TIP3     3691     TIP3     H1       HT       0.417000       1.00800           0
     39709 TIP3     3691     TIP3     H2       HT       0.417000       1.00800           0
     39710 TIP3     3692     TIP3     OH2      OT      -0.834000       15.9994           0
     39711 TIP3     3692     TIP3     H1       HT       0.417000       1.00800           0
     39712 TIP3     3692     TIP3     H2       HT       0.417000       1.00800           0
     39713 TIP3     3693     TIP3     OH2      OT      -0.834000       15.9994           0
     39714 TIP3     3693     TIP3     H1       HT       0.417000       1.00800           0
     39715 TIP3     3693     TIP3     H2       HT       0.417000       1.00800           0
     39716 TIP3     3694     TIP3     OH2      OT      -0.834000       15.9994           0
     39717 TIP3     3694     TIP3     H1       HT       0.417000       1.00800           0
     39718 TIP3     3694     TIP3     H2       HT       0.417000       1.00800           0
     39719 TIP3     3695     TIP3     OH2      OT      -0.834000       15.9994           0
     39720 TIP3     3695     TIP3     H1       HT       0.417000       1.00800           0
     39721 TIP3     3695     TIP3     H2       HT       0.417000       1.00800           0
     39722 TIP3     3696     TIP3     OH2      OT      -0.834000       15.9994           0
     39723 TIP3     3696     TIP3     H1       HT       0.417000       1.00800           0
     39724 TIP3     3696     TIP3     H2       HT       0.417000       1.00800           0
     39725 TIP3     3697     TIP3     OH2      OT      -0.834000       15.9994           0
     39726 TIP3     3697     TIP3     H1       HT       0.417000       1.00800           0
     39727 TIP3     3697     TIP3     H2       HT       0.417000       1.00800           0
     39728 TIP3     3698     TIP3     OH2      OT      -0.834000       15.9994           0
     39729 TIP3     3698     TIP3     H1       HT       0.417000       1.00800           0
     39730 TIP3     3698     TIP3     H2       HT       0.417000       1.00800           0
     39731 TIP3     3699     TIP3     OH2      OT      -0.834000       15.9994           0
     39732 TIP3     3699     TIP3     H1       HT       0.417000       1.00800           0
     39733 TIP3     3699     TIP3     H2       HT       0.417000       1.00800           0
     39734 TIP3     3700     TIP3     OH2      OT      -0.834000       15.9994           0
     39735 TIP3     3700     TIP3     H1       HT       0.417000       1.00800           0
     39736 TIP3     3700     TIP3     H2       HT       0.417000       1.00800           0
     39737 TIP3     3701     TIP3     OH2      OT      -0.834000       15.9994           0
     39738 TIP3     3701     TIP3     H1       HT       0.417000       1.00800           0
     39739 TIP3     3701     TIP3     H2       HT       0.417000       1.00800           0
     39740 TIP3     3702     TIP3     OH2      OT      -0.834000       15.9994           0
     39741 TIP3     3702     TIP3     H1       HT       0.417000       1.00800           0
     39742 TIP3     3702     TIP3     H2       HT       0.417000       1.00800           0
     39743 TIP3     3703     TIP3     OH2      OT      -0.834000       15.9994           0
     39744 TIP3     3703     TIP3     H1       HT       0.417000       1.00800           0
     39745 TIP3     3703     TIP3     H2       HT       0.417000       1.00800           0
     39746 TIP3     3704     TIP3     OH2      OT      -0.834000       15.9994           0
     39747 TIP3     3704     TIP3     H1       HT       0.417000       1.00800           0
     39748 TIP3     3704     TIP3     H2       HT       0.417000       1.00800           0
     39749 TIP3     3705     TIP3     OH2      OT      -0.834000       15.9994           0
     39750 TIP3     3705     TIP3     H1       HT       0.417000       1.00800           0
     39751 TIP3     3705     TIP3     H2       HT       0.417000       1.00800           0
     39752 TIP3     3706     TIP3     OH2      OT      -0.834000       15.9994           0
     39753 TIP3     3706     TIP3     H1       HT       0.417000       1.00800           0
     39754 TIP3     3706     TIP3     H2       HT       0.417000       1.00800           0
     39755 TIP3     3707     TIP3     OH2      OT      -0.834000       15.9994           0
     39756 TIP3     3707     TIP3     H1       HT       0.417000       1.00800           0
     39757 TIP3     3707     TIP3     H2       HT       0.417000       1.00800           0
     39758 TIP3     3708     TIP3     OH2      OT      -0.834000       15.9994           0
     39759 TIP3     3708     TIP3     H1       HT       0.417000       1.00800           0
     39760 TIP3     3708     TIP3     H2       HT       0.417000       1.00800           0
     39761 TIP3     3709     TIP3     OH2      OT      -0.834000       15.9994           0
     39762 TIP3     3709     TIP3     H1       HT       0.417000       1.00800           0
     39763 TIP3     3709     TIP3     H2       HT       0.417000       1.00800           0
     39764 TIP3     3710     TIP3     OH2      OT      -0.834000       15.9994           0
     39765 TIP3     3710     TIP3     H1       HT       0.417000       1.00800           0
     39766 TIP3     3710     TIP3     H2       HT       0.417000       1.00800           0
     39767 TIP3     3711     TIP3     OH2      OT      -0.834000       15.9994           0
     39768 TIP3     3711     TIP3     H1       HT       0.417000       1.00800           0
     39769 TIP3     3711     TIP3     H2       HT       0.417000       1.00800           0
     39770 TIP3     3712     TIP3     OH2      OT      -0.834000       15.9994           0
     39771 TIP3     3712     TIP3     H1       HT       0.417000       1.00800           0
     39772 TIP3     3712     TIP3     H2       HT       0.417000       1.00800           0
     39773 TIP3     3713     TIP3     OH2      OT      -0.834000       15.9994           0
     39774 TIP3     3713     TIP3     H1       HT       0.417000       1.00800           0
     39775 TIP3     3713     TIP3     H2       HT       0.417000       1.00800           0
     39776 TIP3     3714     TIP3     OH2      OT      -0.834000       15.9994           0
     39777 TIP3     3714     TIP3     H1       HT       0.417000       1.00800           0
     39778 TIP3     3714     TIP3     H2       HT       0.417000       1.00800           0
     39779 TIP3     3715     TIP3     OH2      OT      -0.834000       15.9994           0
     39780 TIP3     3715     TIP3     H1       HT       0.417000       1.00800           0
     39781 TIP3     3715     TIP3     H2       HT       0.417000       1.00800           0
     39782 TIP3     3716     TIP3     OH2      OT      -0.834000       15.9994           0
     39783 TIP3     3716     TIP3     H1       HT       0.417000       1.00800           0
     39784 TIP3     3716     TIP3     H2       HT       0.417000       1.00800           0
     39785 TIP3     3717     TIP3     OH2      OT      -0.834000       15.9994           0
     39786 TIP3     3717     TIP3     H1       HT       0.417000       1.00800           0
     39787 TIP3     3717     TIP3     H2       HT       0.417000       1.00800           0
     39788 TIP3     3718     TIP3     OH2      OT      -0.834000       15.9994           0
     39789 TIP3     3718     TIP3     H1       HT       0.417000       1.00800           0
     39790 TIP3     3718     TIP3     H2       HT       0.417000       1.00800           0
     39791 TIP3     3719     TIP3     OH2      OT      -0.834000       15.9994           0
     39792 TIP3     3719     TIP3     H1       HT       0.417000       1.00800           0
     39793 TIP3     3719     TIP3     H2       HT       0.417000       1.00800           0
     39794 TIP3     3720     TIP3     OH2      OT      -0.834000       15.9994           0
     39795 TIP3     3720     TIP3     H1       HT       0.417000       1.00800           0
     39796 TIP3     3720     TIP3     H2       HT       0.417000       1.00800           0
     39797 TIP3     3721     TIP3     OH2      OT      -0.834000       15.9994           0
     39798 TIP3     3721     TIP3     H1       HT       0.417000       1.00800           0
     39799 TIP3     3721     TIP3     H2       HT       0.417000       1.00800           0
     39800 TIP3     3722     TIP3     OH2      OT      -0.834000       15.9994           0
     39801 TIP3     3722     TIP3     H1       HT       0.417000       1.00800           0
     39802 TIP3     3722     TIP3     H2       HT       0.417000       1.00800           0
     39803 TIP3     3723     TIP3     OH2      OT      -0.834000       15.9994           0
     39804 TIP3     3723     TIP3     H1       HT       0.417000       1.00800           0
     39805 TIP3     3723     TIP3     H2       HT       0.417000       1.00800           0
     39806 TIP3     3724     TIP3     OH2      OT      -0.834000       15.9994           0
     39807 TIP3     3724     TIP3     H1       HT       0.417000       1.00800           0
     39808 TIP3     3724     TIP3     H2       HT       0.417000       1.00800           0
     39809 TIP3     3725     TIP3     OH2      OT      -0.834000       15.9994           0
     39810 TIP3     3725     TIP3     H1       HT       0.417000       1.00800           0
     39811 TIP3     3725     TIP3     H2       HT       0.417000       1.00800           0
     39812 TIP3     3726     TIP3     OH2      OT      -0.834000       15.9994           0
     39813 TIP3     3726     TIP3     H1       HT       0.417000       1.00800           0
     39814 TIP3     3726     TIP3     H2       HT       0.417000       1.00800           0
     39815 TIP3     3727     TIP3     OH2      OT      -0.834000       15.9994           0
     39816 TIP3     3727     TIP3     H1       HT       0.417000       1.00800           0
     39817 TIP3     3727     TIP3     H2       HT       0.417000       1.00800           0
     39818 TIP3     3728     TIP3     OH2      OT      -0.834000       15.9994           0
     39819 TIP3     3728     TIP3     H1       HT       0.417000       1.00800           0
     39820 TIP3     3728     TIP3     H2       HT       0.417000       1.00800           0
     39821 TIP3     3729     TIP3     OH2      OT      -0.834000       15.9994           0
     39822 TIP3     3729     TIP3     H1       HT       0.417000       1.00800           0
     39823 TIP3     3729     TIP3     H2       HT       0.417000       1.00800           0
     39824 TIP3     3730     TIP3     OH2      OT      -0.834000       15.9994           0
     39825 TIP3     3730     TIP3     H1       HT       0.417000       1.00800           0
     39826 TIP3     3730     TIP3     H2       HT       0.417000       1.00800           0
     39827 TIP3     3731     TIP3     OH2      OT      -0.834000       15.9994           0
     39828 TIP3     3731     TIP3     H1       HT       0.417000       1.00800           0
     39829 TIP3     3731     TIP3     H2       HT       0.417000       1.00800           0
     39830 TIP3     3732     TIP3     OH2      OT      -0.834000       15.9994           0
     39831 TIP3     3732     TIP3     H1       HT       0.417000       1.00800           0
     39832 TIP3     3732     TIP3     H2       HT       0.417000       1.00800           0
     39833 TIP3     3733     TIP3     OH2      OT      -0.834000       15.9994           0
     39834 TIP3     3733     TIP3     H1       HT       0.417000       1.00800           0
     39835 TIP3     3733     TIP3     H2       HT       0.417000       1.00800           0
     39836 TIP3     3734     TIP3     OH2      OT      -0.834000       15.9994           0
     39837 TIP3     3734     TIP3     H1       HT       0.417000       1.00800           0
     39838 TIP3     3734     TIP3     H2       HT       0.417000       1.00800           0
     39839 TIP3     3735     TIP3     OH2      OT      -0.834000       15.9994           0
     39840 TIP3     3735     TIP3     H1       HT       0.417000       1.00800           0
     39841 TIP3     3735     TIP3     H2       HT       0.417000       1.00800           0
     39842 TIP3     3736     TIP3     OH2      OT      -0.834000       15.9994           0
     39843 TIP3     3736     TIP3     H1       HT       0.417000       1.00800           0
     39844 TIP3     3736     TIP3     H2       HT       0.417000       1.00800           0
     39845 TIP3     3737     TIP3     OH2      OT      -0.834000       15.9994           0
     39846 TIP3     3737     TIP3     H1       HT       0.417000       1.00800           0
     39847 TIP3     3737     TIP3     H2       HT       0.417000       1.00800           0
     39848 TIP3     3738     TIP3     OH2      OT      -0.834000       15.9994           0
     39849 TIP3     3738     TIP3     H1       HT       0.417000       1.00800           0
     39850 TIP3     3738     TIP3     H2       HT       0.417000       1.00800           0
     39851 TIP3     3739     TIP3     OH2      OT      -0.834000       15.9994           0
     39852 TIP3     3739     TIP3     H1       HT       0.417000       1.00800           0
     39853 TIP3     3739     TIP3     H2       HT       0.417000       1.00800           0
     39854 TIP3     3740     TIP3     OH2      OT      -0.834000       15.9994           0
     39855 TIP3     3740     TIP3     H1       HT       0.417000       1.00800           0
     39856 TIP3     3740     TIP3     H2       HT       0.417000       1.00800           0
     39857 TIP3     3741     TIP3     OH2      OT      -0.834000       15.9994           0
     39858 TIP3     3741     TIP3     H1       HT       0.417000       1.00800           0
     39859 TIP3     3741     TIP3     H2       HT       0.417000       1.00800           0
     39860 TIP3     3742     TIP3     OH2      OT      -0.834000       15.9994           0
     39861 TIP3     3742     TIP3     H1       HT       0.417000       1.00800           0
     39862 TIP3     3742     TIP3     H2       HT       0.417000       1.00800           0
     39863 TIP3     3743     TIP3     OH2      OT      -0.834000       15.9994           0
     39864 TIP3     3743     TIP3     H1       HT       0.417000       1.00800           0
     39865 TIP3     3743     TIP3     H2       HT       0.417000       1.00800           0
     39866 TIP3     3744     TIP3     OH2      OT      -0.834000       15.9994           0
     39867 TIP3     3744     TIP3     H1       HT       0.417000       1.00800           0
     39868 TIP3     3744     TIP3     H2       HT       0.417000       1.00800           0
     39869 TIP3     3745     TIP3     OH2      OT      -0.834000       15.9994           0
     39870 TIP3     3745     TIP3     H1       HT       0.417000       1.00800           0
     39871 TIP3     3745     TIP3     H2       HT       0.417000       1.00800           0
     39872 TIP3     3746     TIP3     OH2      OT      -0.834000       15.9994           0
     39873 TIP3     3746     TIP3     H1       HT       0.417000       1.00800           0
     39874 TIP3     3746     TIP3     H2       HT       0.417000       1.00800           0
     39875 TIP3     3747     TIP3     OH2      OT      -0.834000       15.9994           0
     39876 TIP3     3747     TIP3     H1       HT       0.417000       1.00800           0
     39877 TIP3     3747     TIP3     H2       HT       0.417000       1.00800           0
     39878 TIP3     3748     TIP3     OH2      OT      -0.834000       15.9994           0
     39879 TIP3     3748     TIP3     H1       HT       0.417000       1.00800           0
     39880 TIP3     3748     TIP3     H2       HT       0.417000       1.00800           0
     39881 TIP3     3749     TIP3     OH2      OT      -0.834000       15.9994           0
     39882 TIP3     3749     TIP3     H1       HT       0.417000       1.00800           0
     39883 TIP3     3749     TIP3     H2       HT       0.417000       1.00800           0
     39884 TIP3     3750     TIP3     OH2      OT      -0.834000       15.9994           0
     39885 TIP3     3750     TIP3     H1       HT       0.417000       1.00800           0
     39886 TIP3     3750     TIP3     H2       HT       0.417000       1.00800           0
     39887 TIP3     3751     TIP3     OH2      OT      -0.834000       15.9994           0
     39888 TIP3     3751     TIP3     H1       HT       0.417000       1.00800           0
     39889 TIP3     3751     TIP3     H2       HT       0.417000       1.00800           0
     39890 TIP3     3752     TIP3     OH2      OT      -0.834000       15.9994           0
     39891 TIP3     3752     TIP3     H1       HT       0.417000       1.00800           0
     39892 TIP3     3752     TIP3     H2       HT       0.417000       1.00800           0
     39893 TIP3     3753     TIP3     OH2      OT      -0.834000       15.9994           0
     39894 TIP3     3753     TIP3     H1       HT       0.417000       1.00800           0
     39895 TIP3     3753     TIP3     H2       HT       0.417000       1.00800           0
     39896 TIP3     3754     TIP3     OH2      OT      -0.834000       15.9994           0
     39897 TIP3     3754     TIP3     H1       HT       0.417000       1.00800           0
     39898 TIP3     3754     TIP3     H2       HT       0.417000       1.00800           0
     39899 TIP3     3755     TIP3     OH2      OT      -0.834000       15.9994           0
     39900 TIP3     3755     TIP3     H1       HT       0.417000       1.00800           0
     39901 TIP3     3755     TIP3     H2       HT       0.417000       1.00800           0
     39902 TIP3     3756     TIP3     OH2      OT      -0.834000       15.9994           0
     39903 TIP3     3756     TIP3     H1       HT       0.417000       1.00800           0
     39904 TIP3     3756     TIP3     H2       HT       0.417000       1.00800           0
     39905 TIP3     3757     TIP3     OH2      OT      -0.834000       15.9994           0
     39906 TIP3     3757     TIP3     H1       HT       0.417000       1.00800           0
     39907 TIP3     3757     TIP3     H2       HT       0.417000       1.00800           0
     39908 TIP3     3758     TIP3     OH2      OT      -0.834000       15.9994           0
     39909 TIP3     3758     TIP3     H1       HT       0.417000       1.00800           0
     39910 TIP3     3758     TIP3     H2       HT       0.417000       1.00800           0
     39911 TIP3     3759     TIP3     OH2      OT      -0.834000       15.9994           0
     39912 TIP3     3759     TIP3     H1       HT       0.417000       1.00800           0
     39913 TIP3     3759     TIP3     H2       HT       0.417000       1.00800           0
     39914 TIP3     3760     TIP3     OH2      OT      -0.834000       15.9994           0
     39915 TIP3     3760     TIP3     H1       HT       0.417000       1.00800           0
     39916 TIP3     3760     TIP3     H2       HT       0.417000       1.00800           0
     39917 TIP3     3761     TIP3     OH2      OT      -0.834000       15.9994           0
     39918 TIP3     3761     TIP3     H1       HT       0.417000       1.00800           0
     39919 TIP3     3761     TIP3     H2       HT       0.417000       1.00800           0
     39920 TIP3     3762     TIP3     OH2      OT      -0.834000       15.9994           0
     39921 TIP3     3762     TIP3     H1       HT       0.417000       1.00800           0
     39922 TIP3     3762     TIP3     H2       HT       0.417000       1.00800           0
     39923 TIP3     3763     TIP3     OH2      OT      -0.834000       15.9994           0
     39924 TIP3     3763     TIP3     H1       HT       0.417000       1.00800           0
     39925 TIP3     3763     TIP3     H2       HT       0.417000       1.00800           0
     39926 TIP3     3764     TIP3     OH2      OT      -0.834000       15.9994           0
     39927 TIP3     3764     TIP3     H1       HT       0.417000       1.00800           0
     39928 TIP3     3764     TIP3     H2       HT       0.417000       1.00800           0
     39929 TIP3     3765     TIP3     OH2      OT      -0.834000       15.9994           0
     39930 TIP3     3765     TIP3     H1       HT       0.417000       1.00800           0
     39931 TIP3     3765     TIP3     H2       HT       0.417000       1.00800           0
     39932 TIP3     3766     TIP3     OH2      OT      -0.834000       15.9994           0
     39933 TIP3     3766     TIP3     H1       HT       0.417000       1.00800           0
     39934 TIP3     3766     TIP3     H2       HT       0.417000       1.00800           0
     39935 TIP3     3767     TIP3     OH2      OT      -0.834000       15.9994           0
     39936 TIP3     3767     TIP3     H1       HT       0.417000       1.00800           0
     39937 TIP3     3767     TIP3     H2       HT       0.417000       1.00800           0
     39938 TIP3     3768     TIP3     OH2      OT      -0.834000       15.9994           0
     39939 TIP3     3768     TIP3     H1       HT       0.417000       1.00800           0
     39940 TIP3     3768     TIP3     H2       HT       0.417000       1.00800           0
     39941 TIP3     3769     TIP3     OH2      OT      -0.834000       15.9994           0
     39942 TIP3     3769     TIP3     H1       HT       0.417000       1.00800           0
     39943 TIP3     3769     TIP3     H2       HT       0.417000       1.00800           0
     39944 TIP3     3770     TIP3     OH2      OT      -0.834000       15.9994           0
     39945 TIP3     3770     TIP3     H1       HT       0.417000       1.00800           0
     39946 TIP3     3770     TIP3     H2       HT       0.417000       1.00800           0
     39947 TIP3     3771     TIP3     OH2      OT      -0.834000       15.9994           0
     39948 TIP3     3771     TIP3     H1       HT       0.417000       1.00800           0
     39949 TIP3     3771     TIP3     H2       HT       0.417000       1.00800           0
     39950 TIP3     3772     TIP3     OH2      OT      -0.834000       15.9994           0
     39951 TIP3     3772     TIP3     H1       HT       0.417000       1.00800           0
     39952 TIP3     3772     TIP3     H2       HT       0.417000       1.00800           0
     39953 TIP3     3773     TIP3     OH2      OT      -0.834000       15.9994           0
     39954 TIP3     3773     TIP3     H1       HT       0.417000       1.00800           0
     39955 TIP3     3773     TIP3     H2       HT       0.417000       1.00800           0
     39956 TIP3     3774     TIP3     OH2      OT      -0.834000       15.9994           0
     39957 TIP3     3774     TIP3     H1       HT       0.417000       1.00800           0
     39958 TIP3     3774     TIP3     H2       HT       0.417000       1.00800           0
     39959 TIP3     3775     TIP3     OH2      OT      -0.834000       15.9994           0
     39960 TIP3     3775     TIP3     H1       HT       0.417000       1.00800           0
     39961 TIP3     3775     TIP3     H2       HT       0.417000       1.00800           0
     39962 TIP3     3776     TIP3     OH2      OT      -0.834000       15.9994           0
     39963 TIP3     3776     TIP3     H1       HT       0.417000       1.00800           0
     39964 TIP3     3776     TIP3     H2       HT       0.417000       1.00800           0
     39965 TIP3     3777     TIP3     OH2      OT      -0.834000       15.9994           0
     39966 TIP3     3777     TIP3     H1       HT       0.417000       1.00800           0
     39967 TIP3     3777     TIP3     H2       HT       0.417000       1.00800           0
     39968 TIP3     3778     TIP3     OH2      OT      -0.834000       15.9994           0
     39969 TIP3     3778     TIP3     H1       HT       0.417000       1.00800           0
     39970 TIP3     3778     TIP3     H2       HT       0.417000       1.00800           0
     39971 TIP3     3779     TIP3     OH2      OT      -0.834000       15.9994           0
     39972 TIP3     3779     TIP3     H1       HT       0.417000       1.00800           0
     39973 TIP3     3779     TIP3     H2       HT       0.417000       1.00800           0
     39974 TIP3     3780     TIP3     OH2      OT      -0.834000       15.9994           0
     39975 TIP3     3780     TIP3     H1       HT       0.417000       1.00800           0
     39976 TIP3     3780     TIP3     H2       HT       0.417000       1.00800           0
     39977 TIP3     3781     TIP3     OH2      OT      -0.834000       15.9994           0
     39978 TIP3     3781     TIP3     H1       HT       0.417000       1.00800           0
     39979 TIP3     3781     TIP3     H2       HT       0.417000       1.00800           0
     39980 TIP3     3782     TIP3     OH2      OT      -0.834000       15.9994           0
     39981 TIP3     3782     TIP3     H1       HT       0.417000       1.00800           0
     39982 TIP3     3782     TIP3     H2       HT       0.417000       1.00800           0
     39983 TIP3     3783     TIP3     OH2      OT      -0.834000       15.9994           0
     39984 TIP3     3783     TIP3     H1       HT       0.417000       1.00800           0
     39985 TIP3     3783     TIP3     H2       HT       0.417000       1.00800           0
     39986 TIP3     3784     TIP3     OH2      OT      -0.834000       15.9994           0
     39987 TIP3     3784     TIP3     H1       HT       0.417000       1.00800           0
     39988 TIP3     3784     TIP3     H2       HT       0.417000       1.00800           0
     39989 TIP3     3785     TIP3     OH2      OT      -0.834000       15.9994           0
     39990 TIP3     3785     TIP3     H1       HT       0.417000       1.00800           0
     39991 TIP3     3785     TIP3     H2       HT       0.417000       1.00800           0
     39992 TIP3     3786     TIP3     OH2      OT      -0.834000       15.9994           0
     39993 TIP3     3786     TIP3     H1       HT       0.417000       1.00800           0
     39994 TIP3     3786     TIP3     H2       HT       0.417000       1.00800           0
     39995 TIP3     3787     TIP3     OH2      OT      -0.834000       15.9994           0
     39996 TIP3     3787     TIP3     H1       HT       0.417000       1.00800           0
     39997 TIP3     3787     TIP3     H2       HT       0.417000       1.00800           0
     39998 TIP3     3788     TIP3     OH2      OT      -0.834000       15.9994           0
     39999 TIP3     3788     TIP3     H1       HT       0.417000       1.00800           0
     40000 TIP3     3788     TIP3     H2       HT       0.417000       1.00800           0
     40001 TIP3     3789     TIP3     OH2      OT      -0.834000       15.9994           0
     40002 TIP3     3789     TIP3     H1       HT       0.417000       1.00800           0
     40003 TIP3     3789     TIP3     H2       HT       0.417000       1.00800           0
     40004 TIP3     3790     TIP3     OH2      OT      -0.834000       15.9994           0
     40005 TIP3     3790     TIP3     H1       HT       0.417000       1.00800           0
     40006 TIP3     3790     TIP3     H2       HT       0.417000       1.00800           0
     40007 TIP3     3791     TIP3     OH2      OT      -0.834000       15.9994           0
     40008 TIP3     3791     TIP3     H1       HT       0.417000       1.00800           0
     40009 TIP3     3791     TIP3     H2       HT       0.417000       1.00800           0
     40010 TIP3     3792     TIP3     OH2      OT      -0.834000       15.9994           0
     40011 TIP3     3792     TIP3     H1       HT       0.417000       1.00800           0
     40012 TIP3     3792     TIP3     H2       HT       0.417000       1.00800           0
     40013 TIP3     3793     TIP3     OH2      OT      -0.834000       15.9994           0
     40014 TIP3     3793     TIP3     H1       HT       0.417000       1.00800           0
     40015 TIP3     3793     TIP3     H2       HT       0.417000       1.00800           0
     40016 TIP3     3794     TIP3     OH2      OT      -0.834000       15.9994           0
     40017 TIP3     3794     TIP3     H1       HT       0.417000       1.00800           0
     40018 TIP3     3794     TIP3     H2       HT       0.417000       1.00800           0
     40019 TIP3     3795     TIP3     OH2      OT      -0.834000       15.9994           0
     40020 TIP3     3795     TIP3     H1       HT       0.417000       1.00800           0
     40021 TIP3     3795     TIP3     H2       HT       0.417000       1.00800           0
     40022 TIP3     3796     TIP3     OH2      OT      -0.834000       15.9994           0
     40023 TIP3     3796     TIP3     H1       HT       0.417000       1.00800           0
     40024 TIP3     3796     TIP3     H2       HT       0.417000       1.00800           0
     40025 TIP3     3797     TIP3     OH2      OT      -0.834000       15.9994           0
     40026 TIP3     3797     TIP3     H1       HT       0.417000       1.00800           0
     40027 TIP3     3797     TIP3     H2       HT       0.417000       1.00800           0
     40028 TIP3     3798     TIP3     OH2      OT      -0.834000       15.9994           0
     40029 TIP3     3798     TIP3     H1       HT       0.417000       1.00800           0
     40030 TIP3     3798     TIP3     H2       HT       0.417000       1.00800           0
     40031 TIP3     3799     TIP3     OH2      OT      -0.834000       15.9994           0
     40032 TIP3     3799     TIP3     H1       HT       0.417000       1.00800           0
     40033 TIP3     3799     TIP3     H2       HT       0.417000       1.00800           0
     40034 TIP3     3800     TIP3     OH2      OT      -0.834000       15.9994           0
     40035 TIP3     3800     TIP3     H1       HT       0.417000       1.00800           0
     40036 TIP3     3800     TIP3     H2       HT       0.417000       1.00800           0
     40037 TIP3     3801     TIP3     OH2      OT      -0.834000       15.9994           0
     40038 TIP3     3801     TIP3     H1       HT       0.417000       1.00800           0
     40039 TIP3     3801     TIP3     H2       HT       0.417000       1.00800           0
     40040 TIP3     3802     TIP3     OH2      OT      -0.834000       15.9994           0
     40041 TIP3     3802     TIP3     H1       HT       0.417000       1.00800           0
     40042 TIP3     3802     TIP3     H2       HT       0.417000       1.00800           0
     40043 TIP3     3803     TIP3     OH2      OT      -0.834000       15.9994           0
     40044 TIP3     3803     TIP3     H1       HT       0.417000       1.00800           0
     40045 TIP3     3803     TIP3     H2       HT       0.417000       1.00800           0
     40046 TIP3     3804     TIP3     OH2      OT      -0.834000       15.9994           0
     40047 TIP3     3804     TIP3     H1       HT       0.417000       1.00800           0
     40048 TIP3     3804     TIP3     H2       HT       0.417000       1.00800           0
     40049 TIP3     3805     TIP3     OH2      OT      -0.834000       15.9994           0
     40050 TIP3     3805     TIP3     H1       HT       0.417000       1.00800           0
     40051 TIP3     3805     TIP3     H2       HT       0.417000       1.00800           0
     40052 TIP3     3806     TIP3     OH2      OT      -0.834000       15.9994           0
     40053 TIP3     3806     TIP3     H1       HT       0.417000       1.00800           0
     40054 TIP3     3806     TIP3     H2       HT       0.417000       1.00800           0
     40055 TIP3     3807     TIP3     OH2      OT      -0.834000       15.9994           0
     40056 TIP3     3807     TIP3     H1       HT       0.417000       1.00800           0
     40057 TIP3     3807     TIP3     H2       HT       0.417000       1.00800           0
     40058 TIP3     3808     TIP3     OH2      OT      -0.834000       15.9994           0
     40059 TIP3     3808     TIP3     H1       HT       0.417000       1.00800           0
     40060 TIP3     3808     TIP3     H2       HT       0.417000       1.00800           0
     40061 TIP3     3809     TIP3     OH2      OT      -0.834000       15.9994           0
     40062 TIP3     3809     TIP3     H1       HT       0.417000       1.00800           0
     40063 TIP3     3809     TIP3     H2       HT       0.417000       1.00800           0
     40064 TIP3     3810     TIP3     OH2      OT      -0.834000       15.9994           0
     40065 TIP3     3810     TIP3     H1       HT       0.417000       1.00800           0
     40066 TIP3     3810     TIP3     H2       HT       0.417000       1.00800           0
     40067 TIP3     3811     TIP3     OH2      OT      -0.834000       15.9994           0
     40068 TIP3     3811     TIP3     H1       HT       0.417000       1.00800           0
     40069 TIP3     3811     TIP3     H2       HT       0.417000       1.00800           0
     40070 TIP3     3812     TIP3     OH2      OT      -0.834000       15.9994           0
     40071 TIP3     3812     TIP3     H1       HT       0.417000       1.00800           0
     40072 TIP3     3812     TIP3     H2       HT       0.417000       1.00800           0
     40073 TIP3     3813     TIP3     OH2      OT      -0.834000       15.9994           0
     40074 TIP3     3813     TIP3     H1       HT       0.417000       1.00800           0
     40075 TIP3     3813     TIP3     H2       HT       0.417000       1.00800           0
     40076 TIP3     3814     TIP3     OH2      OT      -0.834000       15.9994           0
     40077 TIP3     3814     TIP3     H1       HT       0.417000       1.00800           0
     40078 TIP3     3814     TIP3     H2       HT       0.417000       1.00800           0
     40079 TIP3     3815     TIP3     OH2      OT      -0.834000       15.9994           0
     40080 TIP3     3815     TIP3     H1       HT       0.417000       1.00800           0
     40081 TIP3     3815     TIP3     H2       HT       0.417000       1.00800           0
     40082 TIP3     3816     TIP3     OH2      OT      -0.834000       15.9994           0
     40083 TIP3     3816     TIP3     H1       HT       0.417000       1.00800           0
     40084 TIP3     3816     TIP3     H2       HT       0.417000       1.00800           0
     40085 TIP3     3817     TIP3     OH2      OT      -0.834000       15.9994           0
     40086 TIP3     3817     TIP3     H1       HT       0.417000       1.00800           0
     40087 TIP3     3817     TIP3     H2       HT       0.417000       1.00800           0
     40088 TIP3     3818     TIP3     OH2      OT      -0.834000       15.9994           0
     40089 TIP3     3818     TIP3     H1       HT       0.417000       1.00800           0
     40090 TIP3     3818     TIP3     H2       HT       0.417000       1.00800           0
     40091 TIP3     3819     TIP3     OH2      OT      -0.834000       15.9994           0
     40092 TIP3     3819     TIP3     H1       HT       0.417000       1.00800           0
     40093 TIP3     3819     TIP3     H2       HT       0.417000       1.00800           0
     40094 TIP3     3820     TIP3     OH2      OT      -0.834000       15.9994           0
     40095 TIP3     3820     TIP3     H1       HT       0.417000       1.00800           0
     40096 TIP3     3820     TIP3     H2       HT       0.417000       1.00800           0
     40097 TIP3     3821     TIP3     OH2      OT      -0.834000       15.9994           0
     40098 TIP3     3821     TIP3     H1       HT       0.417000       1.00800           0
     40099 TIP3     3821     TIP3     H2       HT       0.417000       1.00800           0
     40100 TIP3     3822     TIP3     OH2      OT      -0.834000       15.9994           0
     40101 TIP3     3822     TIP3     H1       HT       0.417000       1.00800           0
     40102 TIP3     3822     TIP3     H2       HT       0.417000       1.00800           0
     40103 TIP3     3823     TIP3     OH2      OT      -0.834000       15.9994           0
     40104 TIP3     3823     TIP3     H1       HT       0.417000       1.00800           0
     40105 TIP3     3823     TIP3     H2       HT       0.417000       1.00800           0
     40106 TIP3     3824     TIP3     OH2      OT      -0.834000       15.9994           0
     40107 TIP3     3824     TIP3     H1       HT       0.417000       1.00800           0
     40108 TIP3     3824     TIP3     H2       HT       0.417000       1.00800           0
     40109 TIP3     3825     TIP3     OH2      OT      -0.834000       15.9994           0
     40110 TIP3     3825     TIP3     H1       HT       0.417000       1.00800           0
     40111 TIP3     3825     TIP3     H2       HT       0.417000       1.00800           0
     40112 TIP3     3826     TIP3     OH2      OT      -0.834000       15.9994           0
     40113 TIP3     3826     TIP3     H1       HT       0.417000       1.00800           0
     40114 TIP3     3826     TIP3     H2       HT       0.417000       1.00800           0
     40115 TIP3     3827     TIP3     OH2      OT      -0.834000       15.9994           0
     40116 TIP3     3827     TIP3     H1       HT       0.417000       1.00800           0
     40117 TIP3     3827     TIP3     H2       HT       0.417000       1.00800           0
     40118 TIP3     3828     TIP3     OH2      OT      -0.834000       15.9994           0
     40119 TIP3     3828     TIP3     H1       HT       0.417000       1.00800           0
     40120 TIP3     3828     TIP3     H2       HT       0.417000       1.00800           0
     40121 TIP3     3829     TIP3     OH2      OT      -0.834000       15.9994           0
     40122 TIP3     3829     TIP3     H1       HT       0.417000       1.00800           0
     40123 TIP3     3829     TIP3     H2       HT       0.417000       1.00800           0
     40124 TIP3     3830     TIP3     OH2      OT      -0.834000       15.9994           0
     40125 TIP3     3830     TIP3     H1       HT       0.417000       1.00800           0
     40126 TIP3     3830     TIP3     H2       HT       0.417000       1.00800           0
     40127 TIP3     3831     TIP3     OH2      OT      -0.834000       15.9994           0
     40128 TIP3     3831     TIP3     H1       HT       0.417000       1.00800           0
     40129 TIP3     3831     TIP3     H2       HT       0.417000       1.00800           0
     40130 TIP3     3832     TIP3     OH2      OT      -0.834000       15.9994           0
     40131 TIP3     3832     TIP3     H1       HT       0.417000       1.00800           0
     40132 TIP3     3832     TIP3     H2       HT       0.417000       1.00800           0
     40133 TIP3     3833     TIP3     OH2      OT      -0.834000       15.9994           0
     40134 TIP3     3833     TIP3     H1       HT       0.417000       1.00800           0
     40135 TIP3     3833     TIP3     H2       HT       0.417000       1.00800           0
     40136 TIP3     3834     TIP3     OH2      OT      -0.834000       15.9994           0
     40137 TIP3     3834     TIP3     H1       HT       0.417000       1.00800           0
     40138 TIP3     3834     TIP3     H2       HT       0.417000       1.00800           0
     40139 TIP3     3835     TIP3     OH2      OT      -0.834000       15.9994           0
     40140 TIP3     3835     TIP3     H1       HT       0.417000       1.00800           0
     40141 TIP3     3835     TIP3     H2       HT       0.417000       1.00800           0
     40142 TIP3     3836     TIP3     OH2      OT      -0.834000       15.9994           0
     40143 TIP3     3836     TIP3     H1       HT       0.417000       1.00800           0
     40144 TIP3     3836     TIP3     H2       HT       0.417000       1.00800           0
     40145 TIP3     3837     TIP3     OH2      OT      -0.834000       15.9994           0
     40146 TIP3     3837     TIP3     H1       HT       0.417000       1.00800           0
     40147 TIP3     3837     TIP3     H2       HT       0.417000       1.00800           0
     40148 TIP3     3838     TIP3     OH2      OT      -0.834000       15.9994           0
     40149 TIP3     3838     TIP3     H1       HT       0.417000       1.00800           0
     40150 TIP3     3838     TIP3     H2       HT       0.417000       1.00800           0
     40151 TIP3     3839     TIP3     OH2      OT      -0.834000       15.9994           0
     40152 TIP3     3839     TIP3     H1       HT       0.417000       1.00800           0
     40153 TIP3     3839     TIP3     H2       HT       0.417000       1.00800           0
     40154 TIP3     3840     TIP3     OH2      OT      -0.834000       15.9994           0
     40155 TIP3     3840     TIP3     H1       HT       0.417000       1.00800           0
     40156 TIP3     3840     TIP3     H2       HT       0.417000       1.00800           0
     40157 TIP3     3841     TIP3     OH2      OT      -0.834000       15.9994           0
     40158 TIP3     3841     TIP3     H1       HT       0.417000       1.00800           0
     40159 TIP3     3841     TIP3     H2       HT       0.417000       1.00800           0
     40160 TIP3     3842     TIP3     OH2      OT      -0.834000       15.9994           0
     40161 TIP3     3842     TIP3     H1       HT       0.417000       1.00800           0
     40162 TIP3     3842     TIP3     H2       HT       0.417000       1.00800           0
     40163 TIP3     3843     TIP3     OH2      OT      -0.834000       15.9994           0
     40164 TIP3     3843     TIP3     H1       HT       0.417000       1.00800           0
     40165 TIP3     3843     TIP3     H2       HT       0.417000       1.00800           0
     40166 TIP3     3844     TIP3     OH2      OT      -0.834000       15.9994           0
     40167 TIP3     3844     TIP3     H1       HT       0.417000       1.00800           0
     40168 TIP3     3844     TIP3     H2       HT       0.417000       1.00800           0
     40169 TIP3     3845     TIP3     OH2      OT      -0.834000       15.9994           0
     40170 TIP3     3845     TIP3     H1       HT       0.417000       1.00800           0
     40171 TIP3     3845     TIP3     H2       HT       0.417000       1.00800           0
     40172 TIP3     3846     TIP3     OH2      OT      -0.834000       15.9994           0
     40173 TIP3     3846     TIP3     H1       HT       0.417000       1.00800           0
     40174 TIP3     3846     TIP3     H2       HT       0.417000       1.00800           0
     40175 TIP3     3847     TIP3     OH2      OT      -0.834000       15.9994           0
     40176 TIP3     3847     TIP3     H1       HT       0.417000       1.00800           0
     40177 TIP3     3847     TIP3     H2       HT       0.417000       1.00800           0
     40178 TIP3     3848     TIP3     OH2      OT      -0.834000       15.9994           0
     40179 TIP3     3848     TIP3     H1       HT       0.417000       1.00800           0
     40180 TIP3     3848     TIP3     H2       HT       0.417000       1.00800           0
     40181 TIP3     3849     TIP3     OH2      OT      -0.834000       15.9994           0
     40182 TIP3     3849     TIP3     H1       HT       0.417000       1.00800           0
     40183 TIP3     3849     TIP3     H2       HT       0.417000       1.00800           0
     40184 TIP3     3850     TIP3     OH2      OT      -0.834000       15.9994           0
     40185 TIP3     3850     TIP3     H1       HT       0.417000       1.00800           0
     40186 TIP3     3850     TIP3     H2       HT       0.417000       1.00800           0
     40187 TIP3     3851     TIP3     OH2      OT      -0.834000       15.9994           0
     40188 TIP3     3851     TIP3     H1       HT       0.417000       1.00800           0
     40189 TIP3     3851     TIP3     H2       HT       0.417000       1.00800           0
     40190 TIP3     3852     TIP3     OH2      OT      -0.834000       15.9994           0
     40191 TIP3     3852     TIP3     H1       HT       0.417000       1.00800           0
     40192 TIP3     3852     TIP3     H2       HT       0.417000       1.00800           0
     40193 TIP3     3853     TIP3     OH2      OT      -0.834000       15.9994           0
     40194 TIP3     3853     TIP3     H1       HT       0.417000       1.00800           0
     40195 TIP3     3853     TIP3     H2       HT       0.417000       1.00800           0
     40196 TIP3     3854     TIP3     OH2      OT      -0.834000       15.9994           0
     40197 TIP3     3854     TIP3     H1       HT       0.417000       1.00800           0
     40198 TIP3     3854     TIP3     H2       HT       0.417000       1.00800           0
     40199 TIP3     3855     TIP3     OH2      OT      -0.834000       15.9994           0
     40200 TIP3     3855     TIP3     H1       HT       0.417000       1.00800           0
     40201 TIP3     3855     TIP3     H2       HT       0.417000       1.00800           0
     40202 TIP3     3856     TIP3     OH2      OT      -0.834000       15.9994           0
     40203 TIP3     3856     TIP3     H1       HT       0.417000       1.00800           0
     40204 TIP3     3856     TIP3     H2       HT       0.417000       1.00800           0
     40205 TIP3     3857     TIP3     OH2      OT      -0.834000       15.9994           0
     40206 TIP3     3857     TIP3     H1       HT       0.417000       1.00800           0
     40207 TIP3     3857     TIP3     H2       HT       0.417000       1.00800           0
     40208 TIP3     3858     TIP3     OH2      OT      -0.834000       15.9994           0
     40209 TIP3     3858     TIP3     H1       HT       0.417000       1.00800           0
     40210 TIP3     3858     TIP3     H2       HT       0.417000       1.00800           0
     40211 TIP3     3859     TIP3     OH2      OT      -0.834000       15.9994           0
     40212 TIP3     3859     TIP3     H1       HT       0.417000       1.00800           0
     40213 TIP3     3859     TIP3     H2       HT       0.417000       1.00800           0
     40214 TIP3     3860     TIP3     OH2      OT      -0.834000       15.9994           0
     40215 TIP3     3860     TIP3     H1       HT       0.417000       1.00800           0
     40216 TIP3     3860     TIP3     H2       HT       0.417000       1.00800           0
     40217 TIP3     3861     TIP3     OH2      OT      -0.834000       15.9994           0
     40218 TIP3     3861     TIP3     H1       HT       0.417000       1.00800           0
     40219 TIP3     3861     TIP3     H2       HT       0.417000       1.00800           0
     40220 TIP3     3862     TIP3     OH2      OT      -0.834000       15.9994           0
     40221 TIP3     3862     TIP3     H1       HT       0.417000       1.00800           0
     40222 TIP3     3862     TIP3     H2       HT       0.417000       1.00800           0
     40223 TIP3     3863     TIP3     OH2      OT      -0.834000       15.9994           0
     40224 TIP3     3863     TIP3     H1       HT       0.417000       1.00800           0
     40225 TIP3     3863     TIP3     H2       HT       0.417000       1.00800           0
     40226 TIP3     3864     TIP3     OH2      OT      -0.834000       15.9994           0
     40227 TIP3     3864     TIP3     H1       HT       0.417000       1.00800           0
     40228 TIP3     3864     TIP3     H2       HT       0.417000       1.00800           0
     40229 TIP3     3865     TIP3     OH2      OT      -0.834000       15.9994           0
     40230 TIP3     3865     TIP3     H1       HT       0.417000       1.00800           0
     40231 TIP3     3865     TIP3     H2       HT       0.417000       1.00800           0
     40232 TIP3     3866     TIP3     OH2      OT      -0.834000       15.9994           0
     40233 TIP3     3866     TIP3     H1       HT       0.417000       1.00800           0
     40234 TIP3     3866     TIP3     H2       HT       0.417000       1.00800           0
     40235 TIP3     3867     TIP3     OH2      OT      -0.834000       15.9994           0
     40236 TIP3     3867     TIP3     H1       HT       0.417000       1.00800           0
     40237 TIP3     3867     TIP3     H2       HT       0.417000       1.00800           0
     40238 TIP3     3868     TIP3     OH2      OT      -0.834000       15.9994           0
     40239 TIP3     3868     TIP3     H1       HT       0.417000       1.00800           0
     40240 TIP3     3868     TIP3     H2       HT       0.417000       1.00800           0
     40241 TIP3     3869     TIP3     OH2      OT      -0.834000       15.9994           0
     40242 TIP3     3869     TIP3     H1       HT       0.417000       1.00800           0
     40243 TIP3     3869     TIP3     H2       HT       0.417000       1.00800           0
     40244 TIP3     3870     TIP3     OH2      OT      -0.834000       15.9994           0
     40245 TIP3     3870     TIP3     H1       HT       0.417000       1.00800           0
     40246 TIP3     3870     TIP3     H2       HT       0.417000       1.00800           0
     40247 TIP3     3871     TIP3     OH2      OT      -0.834000       15.9994           0
     40248 TIP3     3871     TIP3     H1       HT       0.417000       1.00800           0
     40249 TIP3     3871     TIP3     H2       HT       0.417000       1.00800           0
     40250 TIP3     3872     TIP3     OH2      OT      -0.834000       15.9994           0
     40251 TIP3     3872     TIP3     H1       HT       0.417000       1.00800           0
     40252 TIP3     3872     TIP3     H2       HT       0.417000       1.00800           0
     40253 TIP3     3873     TIP3     OH2      OT      -0.834000       15.9994           0
     40254 TIP3     3873     TIP3     H1       HT       0.417000       1.00800           0
     40255 TIP3     3873     TIP3     H2       HT       0.417000       1.00800           0
     40256 TIP3     3874     TIP3     OH2      OT      -0.834000       15.9994           0
     40257 TIP3     3874     TIP3     H1       HT       0.417000       1.00800           0
     40258 TIP3     3874     TIP3     H2       HT       0.417000       1.00800           0
     40259 TIP3     3875     TIP3     OH2      OT      -0.834000       15.9994           0
     40260 TIP3     3875     TIP3     H1       HT       0.417000       1.00800           0
     40261 TIP3     3875     TIP3     H2       HT       0.417000       1.00800           0
     40262 TIP3     3876     TIP3     OH2      OT      -0.834000       15.9994           0
     40263 TIP3     3876     TIP3     H1       HT       0.417000       1.00800           0
     40264 TIP3     3876     TIP3     H2       HT       0.417000       1.00800           0
     40265 TIP3     3877     TIP3     OH2      OT      -0.834000       15.9994           0
     40266 TIP3     3877     TIP3     H1       HT       0.417000       1.00800           0
     40267 TIP3     3877     TIP3     H2       HT       0.417000       1.00800           0
     40268 TIP3     3878     TIP3     OH2      OT      -0.834000       15.9994           0
     40269 TIP3     3878     TIP3     H1       HT       0.417000       1.00800           0
     40270 TIP3     3878     TIP3     H2       HT       0.417000       1.00800           0
     40271 TIP3     3879     TIP3     OH2      OT      -0.834000       15.9994           0
     40272 TIP3     3879     TIP3     H1       HT       0.417000       1.00800           0
     40273 TIP3     3879     TIP3     H2       HT       0.417000       1.00800           0
     40274 TIP3     3880     TIP3     OH2      OT      -0.834000       15.9994           0
     40275 TIP3     3880     TIP3     H1       HT       0.417000       1.00800           0
     40276 TIP3     3880     TIP3     H2       HT       0.417000       1.00800           0
     40277 TIP3     3881     TIP3     OH2      OT      -0.834000       15.9994           0
     40278 TIP3     3881     TIP3     H1       HT       0.417000       1.00800           0
     40279 TIP3     3881     TIP3     H2       HT       0.417000       1.00800           0
     40280 TIP3     3882     TIP3     OH2      OT      -0.834000       15.9994           0
     40281 TIP3     3882     TIP3     H1       HT       0.417000       1.00800           0
     40282 TIP3     3882     TIP3     H2       HT       0.417000       1.00800           0
     40283 TIP3     3883     TIP3     OH2      OT      -0.834000       15.9994           0
     40284 TIP3     3883     TIP3     H1       HT       0.417000       1.00800           0
     40285 TIP3     3883     TIP3     H2       HT       0.417000       1.00800           0
     40286 TIP3     3884     TIP3     OH2      OT      -0.834000       15.9994           0
     40287 TIP3     3884     TIP3     H1       HT       0.417000       1.00800           0
     40288 TIP3     3884     TIP3     H2       HT       0.417000       1.00800           0
     40289 TIP3     3885     TIP3     OH2      OT      -0.834000       15.9994           0
     40290 TIP3     3885     TIP3     H1       HT       0.417000       1.00800           0
     40291 TIP3     3885     TIP3     H2       HT       0.417000       1.00800           0
     40292 TIP3     3886     TIP3     OH2      OT      -0.834000       15.9994           0
     40293 TIP3     3886     TIP3     H1       HT       0.417000       1.00800           0
     40294 TIP3     3886     TIP3     H2       HT       0.417000       1.00800           0
     40295 TIP3     3887     TIP3     OH2      OT      -0.834000       15.9994           0
     40296 TIP3     3887     TIP3     H1       HT       0.417000       1.00800           0
     40297 TIP3     3887     TIP3     H2       HT       0.417000       1.00800           0
     40298 TIP3     3888     TIP3     OH2      OT      -0.834000       15.9994           0
     40299 TIP3     3888     TIP3     H1       HT       0.417000       1.00800           0
     40300 TIP3     3888     TIP3     H2       HT       0.417000       1.00800           0
     40301 TIP3     3889     TIP3     OH2      OT      -0.834000       15.9994           0
     40302 TIP3     3889     TIP3     H1       HT       0.417000       1.00800           0
     40303 TIP3     3889     TIP3     H2       HT       0.417000       1.00800           0
     40304 TIP3     3890     TIP3     OH2      OT      -0.834000       15.9994           0
     40305 TIP3     3890     TIP3     H1       HT       0.417000       1.00800           0
     40306 TIP3     3890     TIP3     H2       HT       0.417000       1.00800           0
     40307 TIP3     3891     TIP3     OH2      OT      -0.834000       15.9994           0
     40308 TIP3     3891     TIP3     H1       HT       0.417000       1.00800           0
     40309 TIP3     3891     TIP3     H2       HT       0.417000       1.00800           0
     40310 TIP3     3892     TIP3     OH2      OT      -0.834000       15.9994           0
     40311 TIP3     3892     TIP3     H1       HT       0.417000       1.00800           0
     40312 TIP3     3892     TIP3     H2       HT       0.417000       1.00800           0
     40313 TIP3     3893     TIP3     OH2      OT      -0.834000       15.9994           0
     40314 TIP3     3893     TIP3     H1       HT       0.417000       1.00800           0
     40315 TIP3     3893     TIP3     H2       HT       0.417000       1.00800           0
     40316 TIP3     3894     TIP3     OH2      OT      -0.834000       15.9994           0
     40317 TIP3     3894     TIP3     H1       HT       0.417000       1.00800           0
     40318 TIP3     3894     TIP3     H2       HT       0.417000       1.00800           0
     40319 TIP3     3895     TIP3     OH2      OT      -0.834000       15.9994           0
     40320 TIP3     3895     TIP3     H1       HT       0.417000       1.00800           0
     40321 TIP3     3895     TIP3     H2       HT       0.417000       1.00800           0
     40322 TIP3     3896     TIP3     OH2      OT      -0.834000       15.9994           0
     40323 TIP3     3896     TIP3     H1       HT       0.417000       1.00800           0
     40324 TIP3     3896     TIP3     H2       HT       0.417000       1.00800           0
     40325 TIP3     3897     TIP3     OH2      OT      -0.834000       15.9994           0
     40326 TIP3     3897     TIP3     H1       HT       0.417000       1.00800           0
     40327 TIP3     3897     TIP3     H2       HT       0.417000       1.00800           0
     40328 TIP3     3898     TIP3     OH2      OT      -0.834000       15.9994           0
     40329 TIP3     3898     TIP3     H1       HT       0.417000       1.00800           0
     40330 TIP3     3898     TIP3     H2       HT       0.417000       1.00800           0
     40331 TIP3     3899     TIP3     OH2      OT      -0.834000       15.9994           0
     40332 TIP3     3899     TIP3     H1       HT       0.417000       1.00800           0
     40333 TIP3     3899     TIP3     H2       HT       0.417000       1.00800           0
     40334 TIP3     3900     TIP3     OH2      OT      -0.834000       15.9994           0
     40335 TIP3     3900     TIP3     H1       HT       0.417000       1.00800           0
     40336 TIP3     3900     TIP3     H2       HT       0.417000       1.00800           0
     40337 TIP3     3901     TIP3     OH2      OT      -0.834000       15.9994           0
     40338 TIP3     3901     TIP3     H1       HT       0.417000       1.00800           0
     40339 TIP3     3901     TIP3     H2       HT       0.417000       1.00800           0
     40340 TIP3     3902     TIP3     OH2      OT      -0.834000       15.9994           0
     40341 TIP3     3902     TIP3     H1       HT       0.417000       1.00800           0
     40342 TIP3     3902     TIP3     H2       HT       0.417000       1.00800           0
     40343 TIP3     3903     TIP3     OH2      OT      -0.834000       15.9994           0
     40344 TIP3     3903     TIP3     H1       HT       0.417000       1.00800           0
     40345 TIP3     3903     TIP3     H2       HT       0.417000       1.00800           0
     40346 TIP3     3904     TIP3     OH2      OT      -0.834000       15.9994           0
     40347 TIP3     3904     TIP3     H1       HT       0.417000       1.00800           0
     40348 TIP3     3904     TIP3     H2       HT       0.417000       1.00800           0
     40349 TIP3     3905     TIP3     OH2      OT      -0.834000       15.9994           0
     40350 TIP3     3905     TIP3     H1       HT       0.417000       1.00800           0
     40351 TIP3     3905     TIP3     H2       HT       0.417000       1.00800           0
     40352 TIP3     3906     TIP3     OH2      OT      -0.834000       15.9994           0
     40353 TIP3     3906     TIP3     H1       HT       0.417000       1.00800           0
     40354 TIP3     3906     TIP3     H2       HT       0.417000       1.00800           0
     40355 TIP3     3907     TIP3     OH2      OT      -0.834000       15.9994           0
     40356 TIP3     3907     TIP3     H1       HT       0.417000       1.00800           0
     40357 TIP3     3907     TIP3     H2       HT       0.417000       1.00800           0
     40358 TIP3     3908     TIP3     OH2      OT      -0.834000       15.9994           0
     40359 TIP3     3908     TIP3     H1       HT       0.417000       1.00800           0
     40360 TIP3     3908     TIP3     H2       HT       0.417000       1.00800           0
     40361 TIP3     3909     TIP3     OH2      OT      -0.834000       15.9994           0
     40362 TIP3     3909     TIP3     H1       HT       0.417000       1.00800           0
     40363 TIP3     3909     TIP3     H2       HT       0.417000       1.00800           0
     40364 TIP3     3910     TIP3     OH2      OT      -0.834000       15.9994           0
     40365 TIP3     3910     TIP3     H1       HT       0.417000       1.00800           0
     40366 TIP3     3910     TIP3     H2       HT       0.417000       1.00800           0
     40367 TIP3     3911     TIP3     OH2      OT      -0.834000       15.9994           0
     40368 TIP3     3911     TIP3     H1       HT       0.417000       1.00800           0
     40369 TIP3     3911     TIP3     H2       HT       0.417000       1.00800           0
     40370 TIP3     3912     TIP3     OH2      OT      -0.834000       15.9994           0
     40371 TIP3     3912     TIP3     H1       HT       0.417000       1.00800           0
     40372 TIP3     3912     TIP3     H2       HT       0.417000       1.00800           0
     40373 TIP3     3913     TIP3     OH2      OT      -0.834000       15.9994           0
     40374 TIP3     3913     TIP3     H1       HT       0.417000       1.00800           0
     40375 TIP3     3913     TIP3     H2       HT       0.417000       1.00800           0
     40376 TIP3     3914     TIP3     OH2      OT      -0.834000       15.9994           0
     40377 TIP3     3914     TIP3     H1       HT       0.417000       1.00800           0
     40378 TIP3     3914     TIP3     H2       HT       0.417000       1.00800           0
     40379 TIP3     3915     TIP3     OH2      OT      -0.834000       15.9994           0
     40380 TIP3     3915     TIP3     H1       HT       0.417000       1.00800           0
     40381 TIP3     3915     TIP3     H2       HT       0.417000       1.00800           0
     40382 TIP3     3916     TIP3     OH2      OT      -0.834000       15.9994           0
     40383 TIP3     3916     TIP3     H1       HT       0.417000       1.00800           0
     40384 TIP3     3916     TIP3     H2       HT       0.417000       1.00800           0
     40385 TIP3     3917     TIP3     OH2      OT      -0.834000       15.9994           0
     40386 TIP3     3917     TIP3     H1       HT       0.417000       1.00800           0
     40387 TIP3     3917     TIP3     H2       HT       0.417000       1.00800           0
     40388 TIP3     3918     TIP3     OH2      OT      -0.834000       15.9994           0
     40389 TIP3     3918     TIP3     H1       HT       0.417000       1.00800           0
     40390 TIP3     3918     TIP3     H2       HT       0.417000       1.00800           0
     40391 TIP3     3919     TIP3     OH2      OT      -0.834000       15.9994           0
     40392 TIP3     3919     TIP3     H1       HT       0.417000       1.00800           0
     40393 TIP3     3919     TIP3     H2       HT       0.417000       1.00800           0
     40394 TIP3     3920     TIP3     OH2      OT      -0.834000       15.9994           0
     40395 TIP3     3920     TIP3     H1       HT       0.417000       1.00800           0
     40396 TIP3     3920     TIP3     H2       HT       0.417000       1.00800           0
     40397 TIP3     3921     TIP3     OH2      OT      -0.834000       15.9994           0
     40398 TIP3     3921     TIP3     H1       HT       0.417000       1.00800           0
     40399 TIP3     3921     TIP3     H2       HT       0.417000       1.00800           0
     40400 TIP3     3922     TIP3     OH2      OT      -0.834000       15.9994           0
     40401 TIP3     3922     TIP3     H1       HT       0.417000       1.00800           0
     40402 TIP3     3922     TIP3     H2       HT       0.417000       1.00800           0
     40403 TIP3     3923     TIP3     OH2      OT      -0.834000       15.9994           0
     40404 TIP3     3923     TIP3     H1       HT       0.417000       1.00800           0
     40405 TIP3     3923     TIP3     H2       HT       0.417000       1.00800           0
     40406 TIP3     3924     TIP3     OH2      OT      -0.834000       15.9994           0
     40407 TIP3     3924     TIP3     H1       HT       0.417000       1.00800           0
     40408 TIP3     3924     TIP3     H2       HT       0.417000       1.00800           0
     40409 TIP3     3925     TIP3     OH2      OT      -0.834000       15.9994           0
     40410 TIP3     3925     TIP3     H1       HT       0.417000       1.00800           0
     40411 TIP3     3925     TIP3     H2       HT       0.417000       1.00800           0
     40412 TIP3     3926     TIP3     OH2      OT      -0.834000       15.9994           0
     40413 TIP3     3926     TIP3     H1       HT       0.417000       1.00800           0
     40414 TIP3     3926     TIP3     H2       HT       0.417000       1.00800           0
     40415 TIP3     3927     TIP3     OH2      OT      -0.834000       15.9994           0
     40416 TIP3     3927     TIP3     H1       HT       0.417000       1.00800           0
     40417 TIP3     3927     TIP3     H2       HT       0.417000       1.00800           0
     40418 TIP3     3928     TIP3     OH2      OT      -0.834000       15.9994           0
     40419 TIP3     3928     TIP3     H1       HT       0.417000       1.00800           0
     40420 TIP3     3928     TIP3     H2       HT       0.417000       1.00800           0
     40421 TIP3     3929     TIP3     OH2      OT      -0.834000       15.9994           0
     40422 TIP3     3929     TIP3     H1       HT       0.417000       1.00800           0
     40423 TIP3     3929     TIP3     H2       HT       0.417000       1.00800           0
     40424 TIP3     3930     TIP3     OH2      OT      -0.834000       15.9994           0
     40425 TIP3     3930     TIP3     H1       HT       0.417000       1.00800           0
     40426 TIP3     3930     TIP3     H2       HT       0.417000       1.00800           0
     40427 TIP3     3931     TIP3     OH2      OT      -0.834000       15.9994           0
     40428 TIP3     3931     TIP3     H1       HT       0.417000       1.00800           0
     40429 TIP3     3931     TIP3     H2       HT       0.417000       1.00800           0
     40430 TIP3     3932     TIP3     OH2      OT      -0.834000       15.9994           0
     40431 TIP3     3932     TIP3     H1       HT       0.417000       1.00800           0
     40432 TIP3     3932     TIP3     H2       HT       0.417000       1.00800           0
     40433 TIP3     3933     TIP3     OH2      OT      -0.834000       15.9994           0
     40434 TIP3     3933     TIP3     H1       HT       0.417000       1.00800           0
     40435 TIP3     3933     TIP3     H2       HT       0.417000       1.00800           0
     40436 TIP3     3934     TIP3     OH2      OT      -0.834000       15.9994           0
     40437 TIP3     3934     TIP3     H1       HT       0.417000       1.00800           0
     40438 TIP3     3934     TIP3     H2       HT       0.417000       1.00800           0
     40439 TIP3     3935     TIP3     OH2      OT      -0.834000       15.9994           0
     40440 TIP3     3935     TIP3     H1       HT       0.417000       1.00800           0
     40441 TIP3     3935     TIP3     H2       HT       0.417000       1.00800           0
     40442 TIP3     3936     TIP3     OH2      OT      -0.834000       15.9994           0
     40443 TIP3     3936     TIP3     H1       HT       0.417000       1.00800           0
     40444 TIP3     3936     TIP3     H2       HT       0.417000       1.00800           0
     40445 TIP3     3937     TIP3     OH2      OT      -0.834000       15.9994           0
     40446 TIP3     3937     TIP3     H1       HT       0.417000       1.00800           0
     40447 TIP3     3937     TIP3     H2       HT       0.417000       1.00800           0
     40448 TIP3     3938     TIP3     OH2      OT      -0.834000       15.9994           0
     40449 TIP3     3938     TIP3     H1       HT       0.417000       1.00800           0
     40450 TIP3     3938     TIP3     H2       HT       0.417000       1.00800           0
     40451 TIP3     3939     TIP3     OH2      OT      -0.834000       15.9994           0
     40452 TIP3     3939     TIP3     H1       HT       0.417000       1.00800           0
     40453 TIP3     3939     TIP3     H2       HT       0.417000       1.00800           0
     40454 TIP3     3940     TIP3     OH2      OT      -0.834000       15.9994           0
     40455 TIP3     3940     TIP3     H1       HT       0.417000       1.00800           0
     40456 TIP3     3940     TIP3     H2       HT       0.417000       1.00800           0
     40457 TIP3     3941     TIP3     OH2      OT      -0.834000       15.9994           0
     40458 TIP3     3941     TIP3     H1       HT       0.417000       1.00800           0
     40459 TIP3     3941     TIP3     H2       HT       0.417000       1.00800           0
     40460 TIP3     3942     TIP3     OH2      OT      -0.834000       15.9994           0
     40461 TIP3     3942     TIP3     H1       HT       0.417000       1.00800           0
     40462 TIP3     3942     TIP3     H2       HT       0.417000       1.00800           0
     40463 TIP3     3943     TIP3     OH2      OT      -0.834000       15.9994           0
     40464 TIP3     3943     TIP3     H1       HT       0.417000       1.00800           0
     40465 TIP3     3943     TIP3     H2       HT       0.417000       1.00800           0
     40466 TIP3     3944     TIP3     OH2      OT      -0.834000       15.9994           0
     40467 TIP3     3944     TIP3     H1       HT       0.417000       1.00800           0
     40468 TIP3     3944     TIP3     H2       HT       0.417000       1.00800           0
     40469 TIP3     3945     TIP3     OH2      OT      -0.834000       15.9994           0
     40470 TIP3     3945     TIP3     H1       HT       0.417000       1.00800           0
     40471 TIP3     3945     TIP3     H2       HT       0.417000       1.00800           0
     40472 TIP3     3946     TIP3     OH2      OT      -0.834000       15.9994           0
     40473 TIP3     3946     TIP3     H1       HT       0.417000       1.00800           0
     40474 TIP3     3946     TIP3     H2       HT       0.417000       1.00800           0
     40475 TIP3     3947     TIP3     OH2      OT      -0.834000       15.9994           0
     40476 TIP3     3947     TIP3     H1       HT       0.417000       1.00800           0
     40477 TIP3     3947     TIP3     H2       HT       0.417000       1.00800           0
     40478 TIP3     3948     TIP3     OH2      OT      -0.834000       15.9994           0
     40479 TIP3     3948     TIP3     H1       HT       0.417000       1.00800           0
     40480 TIP3     3948     TIP3     H2       HT       0.417000       1.00800           0
     40481 TIP3     3949     TIP3     OH2      OT      -0.834000       15.9994           0
     40482 TIP3     3949     TIP3     H1       HT       0.417000       1.00800           0
     40483 TIP3     3949     TIP3     H2       HT       0.417000       1.00800           0
     40484 TIP3     3950     TIP3     OH2      OT      -0.834000       15.9994           0
     40485 TIP3     3950     TIP3     H1       HT       0.417000       1.00800           0
     40486 TIP3     3950     TIP3     H2       HT       0.417000       1.00800           0
     40487 TIP3     3951     TIP3     OH2      OT      -0.834000       15.9994           0
     40488 TIP3     3951     TIP3     H1       HT       0.417000       1.00800           0
     40489 TIP3     3951     TIP3     H2       HT       0.417000       1.00800           0
     40490 TIP3     3952     TIP3     OH2      OT      -0.834000       15.9994           0
     40491 TIP3     3952     TIP3     H1       HT       0.417000       1.00800           0
     40492 TIP3     3952     TIP3     H2       HT       0.417000       1.00800           0
     40493 TIP3     3953     TIP3     OH2      OT      -0.834000       15.9994           0
     40494 TIP3     3953     TIP3     H1       HT       0.417000       1.00800           0
     40495 TIP3     3953     TIP3     H2       HT       0.417000       1.00800           0
     40496 TIP3     3954     TIP3     OH2      OT      -0.834000       15.9994           0
     40497 TIP3     3954     TIP3     H1       HT       0.417000       1.00800           0
     40498 TIP3     3954     TIP3     H2       HT       0.417000       1.00800           0
     40499 TIP3     3955     TIP3     OH2      OT      -0.834000       15.9994           0
     40500 TIP3     3955     TIP3     H1       HT       0.417000       1.00800           0
     40501 TIP3     3955     TIP3     H2       HT       0.417000       1.00800           0
     40502 TIP3     3956     TIP3     OH2      OT      -0.834000       15.9994           0
     40503 TIP3     3956     TIP3     H1       HT       0.417000       1.00800           0
     40504 TIP3     3956     TIP3     H2       HT       0.417000       1.00800           0
     40505 TIP3     3957     TIP3     OH2      OT      -0.834000       15.9994           0
     40506 TIP3     3957     TIP3     H1       HT       0.417000       1.00800           0
     40507 TIP3     3957     TIP3     H2       HT       0.417000       1.00800           0
     40508 TIP3     3958     TIP3     OH2      OT      -0.834000       15.9994           0
     40509 TIP3     3958     TIP3     H1       HT       0.417000       1.00800           0
     40510 TIP3     3958     TIP3     H2       HT       0.417000       1.00800           0
     40511 TIP3     3959     TIP3     OH2      OT      -0.834000       15.9994           0
     40512 TIP3     3959     TIP3     H1       HT       0.417000       1.00800           0
     40513 TIP3     3959     TIP3     H2       HT       0.417000       1.00800           0
     40514 TIP3     3960     TIP3     OH2      OT      -0.834000       15.9994           0
     40515 TIP3     3960     TIP3     H1       HT       0.417000       1.00800           0
     40516 TIP3     3960     TIP3     H2       HT       0.417000       1.00800           0
     40517 TIP3     3961     TIP3     OH2      OT      -0.834000       15.9994           0
     40518 TIP3     3961     TIP3     H1       HT       0.417000       1.00800           0
     40519 TIP3     3961     TIP3     H2       HT       0.417000       1.00800           0
     40520 TIP3     3962     TIP3     OH2      OT      -0.834000       15.9994           0
     40521 TIP3     3962     TIP3     H1       HT       0.417000       1.00800           0
     40522 TIP3     3962     TIP3     H2       HT       0.417000       1.00800           0
     40523 TIP3     3963     TIP3     OH2      OT      -0.834000       15.9994           0
     40524 TIP3     3963     TIP3     H1       HT       0.417000       1.00800           0
     40525 TIP3     3963     TIP3     H2       HT       0.417000       1.00800           0
     40526 TIP3     3964     TIP3     OH2      OT      -0.834000       15.9994           0
     40527 TIP3     3964     TIP3     H1       HT       0.417000       1.00800           0
     40528 TIP3     3964     TIP3     H2       HT       0.417000       1.00800           0
     40529 TIP3     3965     TIP3     OH2      OT      -0.834000       15.9994           0
     40530 TIP3     3965     TIP3     H1       HT       0.417000       1.00800           0
     40531 TIP3     3965     TIP3     H2       HT       0.417000       1.00800           0
     40532 TIP3     3966     TIP3     OH2      OT      -0.834000       15.9994           0
     40533 TIP3     3966     TIP3     H1       HT       0.417000       1.00800           0
     40534 TIP3     3966     TIP3     H2       HT       0.417000       1.00800           0
     40535 TIP3     3967     TIP3     OH2      OT      -0.834000       15.9994           0
     40536 TIP3     3967     TIP3     H1       HT       0.417000       1.00800           0
     40537 TIP3     3967     TIP3     H2       HT       0.417000       1.00800           0
     40538 TIP3     3968     TIP3     OH2      OT      -0.834000       15.9994           0
     40539 TIP3     3968     TIP3     H1       HT       0.417000       1.00800           0
     40540 TIP3     3968     TIP3     H2       HT       0.417000       1.00800           0
     40541 TIP3     3969     TIP3     OH2      OT      -0.834000       15.9994           0
     40542 TIP3     3969     TIP3     H1       HT       0.417000       1.00800           0
     40543 TIP3     3969     TIP3     H2       HT       0.417000       1.00800           0
     40544 TIP3     3970     TIP3     OH2      OT      -0.834000       15.9994           0
     40545 TIP3     3970     TIP3     H1       HT       0.417000       1.00800           0
     40546 TIP3     3970     TIP3     H2       HT       0.417000       1.00800           0
     40547 TIP3     3971     TIP3     OH2      OT      -0.834000       15.9994           0
     40548 TIP3     3971     TIP3     H1       HT       0.417000       1.00800           0
     40549 TIP3     3971     TIP3     H2       HT       0.417000       1.00800           0
     40550 TIP3     3972     TIP3     OH2      OT      -0.834000       15.9994           0
     40551 TIP3     3972     TIP3     H1       HT       0.417000       1.00800           0
     40552 TIP3     3972     TIP3     H2       HT       0.417000       1.00800           0
     40553 TIP3     3973     TIP3     OH2      OT      -0.834000       15.9994           0
     40554 TIP3     3973     TIP3     H1       HT       0.417000       1.00800           0
     40555 TIP3     3973     TIP3     H2       HT       0.417000       1.00800           0
     40556 TIP3     3974     TIP3     OH2      OT      -0.834000       15.9994           0
     40557 TIP3     3974     TIP3     H1       HT       0.417000       1.00800           0
     40558 TIP3     3974     TIP3     H2       HT       0.417000       1.00800           0
     40559 TIP3     3975     TIP3     OH2      OT      -0.834000       15.9994           0
     40560 TIP3     3975     TIP3     H1       HT       0.417000       1.00800           0
     40561 TIP3     3975     TIP3     H2       HT       0.417000       1.00800           0
     40562 TIP3     3976     TIP3     OH2      OT      -0.834000       15.9994           0
     40563 TIP3     3976     TIP3     H1       HT       0.417000       1.00800           0
     40564 TIP3     3976     TIP3     H2       HT       0.417000       1.00800           0
     40565 TIP3     3977     TIP3     OH2      OT      -0.834000       15.9994           0
     40566 TIP3     3977     TIP3     H1       HT       0.417000       1.00800           0
     40567 TIP3     3977     TIP3     H2       HT       0.417000       1.00800           0
     40568 TIP3     3978     TIP3     OH2      OT      -0.834000       15.9994           0
     40569 TIP3     3978     TIP3     H1       HT       0.417000       1.00800           0
     40570 TIP3     3978     TIP3     H2       HT       0.417000       1.00800           0
     40571 TIP3     3979     TIP3     OH2      OT      -0.834000       15.9994           0
     40572 TIP3     3979     TIP3     H1       HT       0.417000       1.00800           0
     40573 TIP3     3979     TIP3     H2       HT       0.417000       1.00800           0
     40574 TIP3     3980     TIP3     OH2      OT      -0.834000       15.9994           0
     40575 TIP3     3980     TIP3     H1       HT       0.417000       1.00800           0
     40576 TIP3     3980     TIP3     H2       HT       0.417000       1.00800           0
     40577 TIP3     3981     TIP3     OH2      OT      -0.834000       15.9994           0
     40578 TIP3     3981     TIP3     H1       HT       0.417000       1.00800           0
     40579 TIP3     3981     TIP3     H2       HT       0.417000       1.00800           0
     40580 TIP3     3982     TIP3     OH2      OT      -0.834000       15.9994           0
     40581 TIP3     3982     TIP3     H1       HT       0.417000       1.00800           0
     40582 TIP3     3982     TIP3     H2       HT       0.417000       1.00800           0
     40583 TIP3     3983     TIP3     OH2      OT      -0.834000       15.9994           0
     40584 TIP3     3983     TIP3     H1       HT       0.417000       1.00800           0
     40585 TIP3     3983     TIP3     H2       HT       0.417000       1.00800           0
     40586 TIP3     3984     TIP3     OH2      OT      -0.834000       15.9994           0
     40587 TIP3     3984     TIP3     H1       HT       0.417000       1.00800           0
     40588 TIP3     3984     TIP3     H2       HT       0.417000       1.00800           0
     40589 TIP3     3985     TIP3     OH2      OT      -0.834000       15.9994           0
     40590 TIP3     3985     TIP3     H1       HT       0.417000       1.00800           0
     40591 TIP3     3985     TIP3     H2       HT       0.417000       1.00800           0
     40592 TIP3     3986     TIP3     OH2      OT      -0.834000       15.9994           0
     40593 TIP3     3986     TIP3     H1       HT       0.417000       1.00800           0
     40594 TIP3     3986     TIP3     H2       HT       0.417000       1.00800           0
     40595 TIP3     3987     TIP3     OH2      OT      -0.834000       15.9994           0
     40596 TIP3     3987     TIP3     H1       HT       0.417000       1.00800           0
     40597 TIP3     3987     TIP3     H2       HT       0.417000       1.00800           0
     40598 TIP3     3988     TIP3     OH2      OT      -0.834000       15.9994           0
     40599 TIP3     3988     TIP3     H1       HT       0.417000       1.00800           0
     40600 TIP3     3988     TIP3     H2       HT       0.417000       1.00800           0
     40601 TIP3     3989     TIP3     OH2      OT      -0.834000       15.9994           0
     40602 TIP3     3989     TIP3     H1       HT       0.417000       1.00800           0
     40603 TIP3     3989     TIP3     H2       HT       0.417000       1.00800           0
     40604 TIP3     3990     TIP3     OH2      OT      -0.834000       15.9994           0
     40605 TIP3     3990     TIP3     H1       HT       0.417000       1.00800           0
     40606 TIP3     3990     TIP3     H2       HT       0.417000       1.00800           0
     40607 TIP3     3991     TIP3     OH2      OT      -0.834000       15.9994           0
     40608 TIP3     3991     TIP3     H1       HT       0.417000       1.00800           0
     40609 TIP3     3991     TIP3     H2       HT       0.417000       1.00800           0
     40610 TIP3     3992     TIP3     OH2      OT      -0.834000       15.9994           0
     40611 TIP3     3992     TIP3     H1       HT       0.417000       1.00800           0
     40612 TIP3     3992     TIP3     H2       HT       0.417000       1.00800           0
     40613 TIP3     3993     TIP3     OH2      OT      -0.834000       15.9994           0
     40614 TIP3     3993     TIP3     H1       HT       0.417000       1.00800           0
     40615 TIP3     3993     TIP3     H2       HT       0.417000       1.00800           0
     40616 TIP3     3994     TIP3     OH2      OT      -0.834000       15.9994           0
     40617 TIP3     3994     TIP3     H1       HT       0.417000       1.00800           0
     40618 TIP3     3994     TIP3     H2       HT       0.417000       1.00800           0
     40619 TIP3     3995     TIP3     OH2      OT      -0.834000       15.9994           0
     40620 TIP3     3995     TIP3     H1       HT       0.417000       1.00800           0
     40621 TIP3     3995     TIP3     H2       HT       0.417000       1.00800           0
     40622 TIP3     3996     TIP3     OH2      OT      -0.834000       15.9994           0
     40623 TIP3     3996     TIP3     H1       HT       0.417000       1.00800           0
     40624 TIP3     3996     TIP3     H2       HT       0.417000       1.00800           0
     40625 TIP3     3997     TIP3     OH2      OT      -0.834000       15.9994           0
     40626 TIP3     3997     TIP3     H1       HT       0.417000       1.00800           0
     40627 TIP3     3997     TIP3     H2       HT       0.417000       1.00800           0
     40628 TIP3     3998     TIP3     OH2      OT      -0.834000       15.9994           0
     40629 TIP3     3998     TIP3     H1       HT       0.417000       1.00800           0
     40630 TIP3     3998     TIP3     H2       HT       0.417000       1.00800           0
     40631 TIP3     3999     TIP3     OH2      OT      -0.834000       15.9994           0
     40632 TIP3     3999     TIP3     H1       HT       0.417000       1.00800           0
     40633 TIP3     3999     TIP3     H2       HT       0.417000       1.00800           0
     40634 TIP3     4000     TIP3     OH2      OT      -0.834000       15.9994           0
     40635 TIP3     4000     TIP3     H1       HT       0.417000       1.00800           0
     40636 TIP3     4000     TIP3     H2       HT       0.417000       1.00800           0
     40637 TIP3     4001     TIP3     OH2      OT      -0.834000       15.9994           0
     40638 TIP3     4001     TIP3     H1       HT       0.417000       1.00800           0
     40639 TIP3     4001     TIP3     H2       HT       0.417000       1.00800           0
     40640 TIP3     4002     TIP3     OH2      OT      -0.834000       15.9994           0
     40641 TIP3     4002     TIP3     H1       HT       0.417000       1.00800           0
     40642 TIP3     4002     TIP3     H2       HT       0.417000       1.00800           0
     40643 TIP3     4003     TIP3     OH2      OT      -0.834000       15.9994           0
     40644 TIP3     4003     TIP3     H1       HT       0.417000       1.00800           0
     40645 TIP3     4003     TIP3     H2       HT       0.417000       1.00800           0
     40646 TIP3     4004     TIP3     OH2      OT      -0.834000       15.9994           0
     40647 TIP3     4004     TIP3     H1       HT       0.417000       1.00800           0
     40648 TIP3     4004     TIP3     H2       HT       0.417000       1.00800           0
     40649 TIP3     4005     TIP3     OH2      OT      -0.834000       15.9994           0
     40650 TIP3     4005     TIP3     H1       HT       0.417000       1.00800           0
     40651 TIP3     4005     TIP3     H2       HT       0.417000       1.00800           0
     40652 TIP3     4006     TIP3     OH2      OT      -0.834000       15.9994           0
     40653 TIP3     4006     TIP3     H1       HT       0.417000       1.00800           0
     40654 TIP3     4006     TIP3     H2       HT       0.417000       1.00800           0
     40655 TIP3     4007     TIP3     OH2      OT      -0.834000       15.9994           0
     40656 TIP3     4007     TIP3     H1       HT       0.417000       1.00800           0
     40657 TIP3     4007     TIP3     H2       HT       0.417000       1.00800           0
     40658 TIP3     4008     TIP3     OH2      OT      -0.834000       15.9994           0
     40659 TIP3     4008     TIP3     H1       HT       0.417000       1.00800           0
     40660 TIP3     4008     TIP3     H2       HT       0.417000       1.00800           0
     40661 TIP3     4009     TIP3     OH2      OT      -0.834000       15.9994           0
     40662 TIP3     4009     TIP3     H1       HT       0.417000       1.00800           0
     40663 TIP3     4009     TIP3     H2       HT       0.417000       1.00800           0
     40664 TIP3     4010     TIP3     OH2      OT      -0.834000       15.9994           0
     40665 TIP3     4010     TIP3     H1       HT       0.417000       1.00800           0
     40666 TIP3     4010     TIP3     H2       HT       0.417000       1.00800           0
     40667 TIP3     4011     TIP3     OH2      OT      -0.834000       15.9994           0
     40668 TIP3     4011     TIP3     H1       HT       0.417000       1.00800           0
     40669 TIP3     4011     TIP3     H2       HT       0.417000       1.00800           0
     40670 TIP3     4012     TIP3     OH2      OT      -0.834000       15.9994           0
     40671 TIP3     4012     TIP3     H1       HT       0.417000       1.00800           0
     40672 TIP3     4012     TIP3     H2       HT       0.417000       1.00800           0
     40673 TIP3     4013     TIP3     OH2      OT      -0.834000       15.9994           0
     40674 TIP3     4013     TIP3     H1       HT       0.417000       1.00800           0
     40675 TIP3     4013     TIP3     H2       HT       0.417000       1.00800           0
     40676 TIP3     4014     TIP3     OH2      OT      -0.834000       15.9994           0
     40677 TIP3     4014     TIP3     H1       HT       0.417000       1.00800           0
     40678 TIP3     4014     TIP3     H2       HT       0.417000       1.00800           0
     40679 TIP3     4015     TIP3     OH2      OT      -0.834000       15.9994           0
     40680 TIP3     4015     TIP3     H1       HT       0.417000       1.00800           0
     40681 TIP3     4015     TIP3     H2       HT       0.417000       1.00800           0
     40682 TIP3     4016     TIP3     OH2      OT      -0.834000       15.9994           0
     40683 TIP3     4016     TIP3     H1       HT       0.417000       1.00800           0
     40684 TIP3     4016     TIP3     H2       HT       0.417000       1.00800           0
     40685 TIP3     4017     TIP3     OH2      OT      -0.834000       15.9994           0
     40686 TIP3     4017     TIP3     H1       HT       0.417000       1.00800           0
     40687 TIP3     4017     TIP3     H2       HT       0.417000       1.00800           0
     40688 TIP3     4018     TIP3     OH2      OT      -0.834000       15.9994           0
     40689 TIP3     4018     TIP3     H1       HT       0.417000       1.00800           0
     40690 TIP3     4018     TIP3     H2       HT       0.417000       1.00800           0
     40691 TIP3     4019     TIP3     OH2      OT      -0.834000       15.9994           0
     40692 TIP3     4019     TIP3     H1       HT       0.417000       1.00800           0
     40693 TIP3     4019     TIP3     H2       HT       0.417000       1.00800           0
     40694 TIP3     4020     TIP3     OH2      OT      -0.834000       15.9994           0
     40695 TIP3     4020     TIP3     H1       HT       0.417000       1.00800           0
     40696 TIP3     4020     TIP3     H2       HT       0.417000       1.00800           0
     40697 TIP3     4021     TIP3     OH2      OT      -0.834000       15.9994           0
     40698 TIP3     4021     TIP3     H1       HT       0.417000       1.00800           0
     40699 TIP3     4021     TIP3     H2       HT       0.417000       1.00800           0
     40700 TIP3     4022     TIP3     OH2      OT      -0.834000       15.9994           0
     40701 TIP3     4022     TIP3     H1       HT       0.417000       1.00800           0
     40702 TIP3     4022     TIP3     H2       HT       0.417000       1.00800           0
     40703 TIP3     4023     TIP3     OH2      OT      -0.834000       15.9994           0
     40704 TIP3     4023     TIP3     H1       HT       0.417000       1.00800           0
     40705 TIP3     4023     TIP3     H2       HT       0.417000       1.00800           0
     40706 TIP3     4024     TIP3     OH2      OT      -0.834000       15.9994           0
     40707 TIP3     4024     TIP3     H1       HT       0.417000       1.00800           0
     40708 TIP3     4024     TIP3     H2       HT       0.417000       1.00800           0
     40709 TIP3     4025     TIP3     OH2      OT      -0.834000       15.9994           0
     40710 TIP3     4025     TIP3     H1       HT       0.417000       1.00800           0
     40711 TIP3     4025     TIP3     H2       HT       0.417000       1.00800           0
     40712 TIP3     4026     TIP3     OH2      OT      -0.834000       15.9994           0
     40713 TIP3     4026     TIP3     H1       HT       0.417000       1.00800           0
     40714 TIP3     4026     TIP3     H2       HT       0.417000       1.00800           0
     40715 TIP3     4027     TIP3     OH2      OT      -0.834000       15.9994           0
     40716 TIP3     4027     TIP3     H1       HT       0.417000       1.00800           0
     40717 TIP3     4027     TIP3     H2       HT       0.417000       1.00800           0
     40718 TIP3     4028     TIP3     OH2      OT      -0.834000       15.9994           0
     40719 TIP3     4028     TIP3     H1       HT       0.417000       1.00800           0
     40720 TIP3     4028     TIP3     H2       HT       0.417000       1.00800           0
     40721 TIP3     4029     TIP3     OH2      OT      -0.834000       15.9994           0
     40722 TIP3     4029     TIP3     H1       HT       0.417000       1.00800           0
     40723 TIP3     4029     TIP3     H2       HT       0.417000       1.00800           0
     40724 TIP3     4030     TIP3     OH2      OT      -0.834000       15.9994           0
     40725 TIP3     4030     TIP3     H1       HT       0.417000       1.00800           0
     40726 TIP3     4030     TIP3     H2       HT       0.417000       1.00800           0
     40727 TIP3     4031     TIP3     OH2      OT      -0.834000       15.9994           0
     40728 TIP3     4031     TIP3     H1       HT       0.417000       1.00800           0
     40729 TIP3     4031     TIP3     H2       HT       0.417000       1.00800           0
     40730 TIP3     4032     TIP3     OH2      OT      -0.834000       15.9994           0
     40731 TIP3     4032     TIP3     H1       HT       0.417000       1.00800           0
     40732 TIP3     4032     TIP3     H2       HT       0.417000       1.00800           0
     40733 TIP3     4033     TIP3     OH2      OT      -0.834000       15.9994           0
     40734 TIP3     4033     TIP3     H1       HT       0.417000       1.00800           0
     40735 TIP3     4033     TIP3     H2       HT       0.417000       1.00800           0
     40736 TIP3     4034     TIP3     OH2      OT      -0.834000       15.9994           0
     40737 TIP3     4034     TIP3     H1       HT       0.417000       1.00800           0
     40738 TIP3     4034     TIP3     H2       HT       0.417000       1.00800           0
     40739 TIP3     4035     TIP3     OH2      OT      -0.834000       15.9994           0
     40740 TIP3     4035     TIP3     H1       HT       0.417000       1.00800           0
     40741 TIP3     4035     TIP3     H2       HT       0.417000       1.00800           0
     40742 TIP3     4036     TIP3     OH2      OT      -0.834000       15.9994           0
     40743 TIP3     4036     TIP3     H1       HT       0.417000       1.00800           0
     40744 TIP3     4036     TIP3     H2       HT       0.417000       1.00800           0
     40745 TIP3     4037     TIP3     OH2      OT      -0.834000       15.9994           0
     40746 TIP3     4037     TIP3     H1       HT       0.417000       1.00800           0
     40747 TIP3     4037     TIP3     H2       HT       0.417000       1.00800           0
     40748 TIP3     4038     TIP3     OH2      OT      -0.834000       15.9994           0
     40749 TIP3     4038     TIP3     H1       HT       0.417000       1.00800           0
     40750 TIP3     4038     TIP3     H2       HT       0.417000       1.00800           0
     40751 TIP3     4039     TIP3     OH2      OT      -0.834000       15.9994           0
     40752 TIP3     4039     TIP3     H1       HT       0.417000       1.00800           0
     40753 TIP3     4039     TIP3     H2       HT       0.417000       1.00800           0
     40754 TIP3     4040     TIP3     OH2      OT      -0.834000       15.9994           0
     40755 TIP3     4040     TIP3     H1       HT       0.417000       1.00800           0
     40756 TIP3     4040     TIP3     H2       HT       0.417000       1.00800           0
     40757 TIP3     4041     TIP3     OH2      OT      -0.834000       15.9994           0
     40758 TIP3     4041     TIP3     H1       HT       0.417000       1.00800           0
     40759 TIP3     4041     TIP3     H2       HT       0.417000       1.00800           0
     40760 TIP3     4042     TIP3     OH2      OT      -0.834000       15.9994           0
     40761 TIP3     4042     TIP3     H1       HT       0.417000       1.00800           0
     40762 TIP3     4042     TIP3     H2       HT       0.417000       1.00800           0
     40763 TIP3     4043     TIP3     OH2      OT      -0.834000       15.9994           0
     40764 TIP3     4043     TIP3     H1       HT       0.417000       1.00800           0
     40765 TIP3     4043     TIP3     H2       HT       0.417000       1.00800           0
     40766 TIP3     4044     TIP3     OH2      OT      -0.834000       15.9994           0
     40767 TIP3     4044     TIP3     H1       HT       0.417000       1.00800           0
     40768 TIP3     4044     TIP3     H2       HT       0.417000       1.00800           0
     40769 TIP3     4045     TIP3     OH2      OT      -0.834000       15.9994           0
     40770 TIP3     4045     TIP3     H1       HT       0.417000       1.00800           0
     40771 TIP3     4045     TIP3     H2       HT       0.417000       1.00800           0
     40772 TIP3     4046     TIP3     OH2      OT      -0.834000       15.9994           0
     40773 TIP3     4046     TIP3     H1       HT       0.417000       1.00800           0
     40774 TIP3     4046     TIP3     H2       HT       0.417000       1.00800           0
     40775 TIP3     4047     TIP3     OH2      OT      -0.834000       15.9994           0
     40776 TIP3     4047     TIP3     H1       HT       0.417000       1.00800           0
     40777 TIP3     4047     TIP3     H2       HT       0.417000       1.00800           0
     40778 TIP3     4048     TIP3     OH2      OT      -0.834000       15.9994           0
     40779 TIP3     4048     TIP3     H1       HT       0.417000       1.00800           0
     40780 TIP3     4048     TIP3     H2       HT       0.417000       1.00800           0
     40781 TIP3     4049     TIP3     OH2      OT      -0.834000       15.9994           0
     40782 TIP3     4049     TIP3     H1       HT       0.417000       1.00800           0
     40783 TIP3     4049     TIP3     H2       HT       0.417000       1.00800           0
     40784 TIP3     4050     TIP3     OH2      OT      -0.834000       15.9994           0
     40785 TIP3     4050     TIP3     H1       HT       0.417000       1.00800           0
     40786 TIP3     4050     TIP3     H2       HT       0.417000       1.00800           0
     40787 TIP3     4051     TIP3     OH2      OT      -0.834000       15.9994           0
     40788 TIP3     4051     TIP3     H1       HT       0.417000       1.00800           0
     40789 TIP3     4051     TIP3     H2       HT       0.417000       1.00800           0
     40790 TIP3     4052     TIP3     OH2      OT      -0.834000       15.9994           0
     40791 TIP3     4052     TIP3     H1       HT       0.417000       1.00800           0
     40792 TIP3     4052     TIP3     H2       HT       0.417000       1.00800           0
     40793 TIP3     4053     TIP3     OH2      OT      -0.834000       15.9994           0
     40794 TIP3     4053     TIP3     H1       HT       0.417000       1.00800           0
     40795 TIP3     4053     TIP3     H2       HT       0.417000       1.00800           0
     40796 TIP3     4054     TIP3     OH2      OT      -0.834000       15.9994           0
     40797 TIP3     4054     TIP3     H1       HT       0.417000       1.00800           0
     40798 TIP3     4054     TIP3     H2       HT       0.417000       1.00800           0
     40799 TIP3     4055     TIP3     OH2      OT      -0.834000       15.9994           0
     40800 TIP3     4055     TIP3     H1       HT       0.417000       1.00800           0
     40801 TIP3     4055     TIP3     H2       HT       0.417000       1.00800           0
     40802 TIP3     4056     TIP3     OH2      OT      -0.834000       15.9994           0
     40803 TIP3     4056     TIP3     H1       HT       0.417000       1.00800           0
     40804 TIP3     4056     TIP3     H2       HT       0.417000       1.00800           0
     40805 TIP3     4057     TIP3     OH2      OT      -0.834000       15.9994           0
     40806 TIP3     4057     TIP3     H1       HT       0.417000       1.00800           0
     40807 TIP3     4057     TIP3     H2       HT       0.417000       1.00800           0
     40808 TIP3     4058     TIP3     OH2      OT      -0.834000       15.9994           0
     40809 TIP3     4058     TIP3     H1       HT       0.417000       1.00800           0
     40810 TIP3     4058     TIP3     H2       HT       0.417000       1.00800           0
     40811 TIP3     4059     TIP3     OH2      OT      -0.834000       15.9994           0
     40812 TIP3     4059     TIP3     H1       HT       0.417000       1.00800           0
     40813 TIP3     4059     TIP3     H2       HT       0.417000       1.00800           0
     40814 TIP3     4060     TIP3     OH2      OT      -0.834000       15.9994           0
     40815 TIP3     4060     TIP3     H1       HT       0.417000       1.00800           0
     40816 TIP3     4060     TIP3     H2       HT       0.417000       1.00800           0
     40817 TIP3     4061     TIP3     OH2      OT      -0.834000       15.9994           0
     40818 TIP3     4061     TIP3     H1       HT       0.417000       1.00800           0
     40819 TIP3     4061     TIP3     H2       HT       0.417000       1.00800           0
     40820 TIP3     4062     TIP3     OH2      OT      -0.834000       15.9994           0
     40821 TIP3     4062     TIP3     H1       HT       0.417000       1.00800           0
     40822 TIP3     4062     TIP3     H2       HT       0.417000       1.00800           0
     40823 TIP3     4063     TIP3     OH2      OT      -0.834000       15.9994           0
     40824 TIP3     4063     TIP3     H1       HT       0.417000       1.00800           0
     40825 TIP3     4063     TIP3     H2       HT       0.417000       1.00800           0
     40826 TIP3     4064     TIP3     OH2      OT      -0.834000       15.9994           0
     40827 TIP3     4064     TIP3     H1       HT       0.417000       1.00800           0
     40828 TIP3     4064     TIP3     H2       HT       0.417000       1.00800           0
     40829 TIP3     4065     TIP3     OH2      OT      -0.834000       15.9994           0
     40830 TIP3     4065     TIP3     H1       HT       0.417000       1.00800           0
     40831 TIP3     4065     TIP3     H2       HT       0.417000       1.00800           0
     40832 TIP3     4066     TIP3     OH2      OT      -0.834000       15.9994           0
     40833 TIP3     4066     TIP3     H1       HT       0.417000       1.00800           0
     40834 TIP3     4066     TIP3     H2       HT       0.417000       1.00800           0
     40835 TIP3     4067     TIP3     OH2      OT      -0.834000       15.9994           0
     40836 TIP3     4067     TIP3     H1       HT       0.417000       1.00800           0
     40837 TIP3     4067     TIP3     H2       HT       0.417000       1.00800           0
     40838 TIP3     4068     TIP3     OH2      OT      -0.834000       15.9994           0
     40839 TIP3     4068     TIP3     H1       HT       0.417000       1.00800           0
     40840 TIP3     4068     TIP3     H2       HT       0.417000       1.00800           0
     40841 TIP3     4069     TIP3     OH2      OT      -0.834000       15.9994           0
     40842 TIP3     4069     TIP3     H1       HT       0.417000       1.00800           0
     40843 TIP3     4069     TIP3     H2       HT       0.417000       1.00800           0
     40844 TIP3     4070     TIP3     OH2      OT      -0.834000       15.9994           0
     40845 TIP3     4070     TIP3     H1       HT       0.417000       1.00800           0
     40846 TIP3     4070     TIP3     H2       HT       0.417000       1.00800           0
     40847 TIP3     4071     TIP3     OH2      OT      -0.834000       15.9994           0
     40848 TIP3     4071     TIP3     H1       HT       0.417000       1.00800           0
     40849 TIP3     4071     TIP3     H2       HT       0.417000       1.00800           0
     40850 TIP3     4072     TIP3     OH2      OT      -0.834000       15.9994           0
     40851 TIP3     4072     TIP3     H1       HT       0.417000       1.00800           0
     40852 TIP3     4072     TIP3     H2       HT       0.417000       1.00800           0
     40853 TIP3     4073     TIP3     OH2      OT      -0.834000       15.9994           0
     40854 TIP3     4073     TIP3     H1       HT       0.417000       1.00800           0
     40855 TIP3     4073     TIP3     H2       HT       0.417000       1.00800           0
     40856 TIP3     4074     TIP3     OH2      OT      -0.834000       15.9994           0
     40857 TIP3     4074     TIP3     H1       HT       0.417000       1.00800           0
     40858 TIP3     4074     TIP3     H2       HT       0.417000       1.00800           0
     40859 TIP3     4075     TIP3     OH2      OT      -0.834000       15.9994           0
     40860 TIP3     4075     TIP3     H1       HT       0.417000       1.00800           0
     40861 TIP3     4075     TIP3     H2       HT       0.417000       1.00800           0
     40862 TIP3     4076     TIP3     OH2      OT      -0.834000       15.9994           0
     40863 TIP3     4076     TIP3     H1       HT       0.417000       1.00800           0
     40864 TIP3     4076     TIP3     H2       HT       0.417000       1.00800           0
     40865 TIP3     4077     TIP3     OH2      OT      -0.834000       15.9994           0
     40866 TIP3     4077     TIP3     H1       HT       0.417000       1.00800           0
     40867 TIP3     4077     TIP3     H2       HT       0.417000       1.00800           0
     40868 TIP3     4078     TIP3     OH2      OT      -0.834000       15.9994           0
     40869 TIP3     4078     TIP3     H1       HT       0.417000       1.00800           0
     40870 TIP3     4078     TIP3     H2       HT       0.417000       1.00800           0
     40871 TIP3     4079     TIP3     OH2      OT      -0.834000       15.9994           0
     40872 TIP3     4079     TIP3     H1       HT       0.417000       1.00800           0
     40873 TIP3     4079     TIP3     H2       HT       0.417000       1.00800           0
     40874 TIP3     4080     TIP3     OH2      OT      -0.834000       15.9994           0
     40875 TIP3     4080     TIP3     H1       HT       0.417000       1.00800           0
     40876 TIP3     4080     TIP3     H2       HT       0.417000       1.00800           0
     40877 TIP3     4081     TIP3     OH2      OT      -0.834000       15.9994           0
     40878 TIP3     4081     TIP3     H1       HT       0.417000       1.00800           0
     40879 TIP3     4081     TIP3     H2       HT       0.417000       1.00800           0
     40880 TIP3     4082     TIP3     OH2      OT      -0.834000       15.9994           0
     40881 TIP3     4082     TIP3     H1       HT       0.417000       1.00800           0
     40882 TIP3     4082     TIP3     H2       HT       0.417000       1.00800           0
     40883 TIP3     4083     TIP3     OH2      OT      -0.834000       15.9994           0
     40884 TIP3     4083     TIP3     H1       HT       0.417000       1.00800           0
     40885 TIP3     4083     TIP3     H2       HT       0.417000       1.00800           0
     40886 TIP3     4084     TIP3     OH2      OT      -0.834000       15.9994           0
     40887 TIP3     4084     TIP3     H1       HT       0.417000       1.00800           0
     40888 TIP3     4084     TIP3     H2       HT       0.417000       1.00800           0
     40889 TIP3     4085     TIP3     OH2      OT      -0.834000       15.9994           0
     40890 TIP3     4085     TIP3     H1       HT       0.417000       1.00800           0
     40891 TIP3     4085     TIP3     H2       HT       0.417000       1.00800           0
     40892 TIP3     4086     TIP3     OH2      OT      -0.834000       15.9994           0
     40893 TIP3     4086     TIP3     H1       HT       0.417000       1.00800           0
     40894 TIP3     4086     TIP3     H2       HT       0.417000       1.00800           0
     40895 TIP3     4087     TIP3     OH2      OT      -0.834000       15.9994           0
     40896 TIP3     4087     TIP3     H1       HT       0.417000       1.00800           0
     40897 TIP3     4087     TIP3     H2       HT       0.417000       1.00800           0
     40898 TIP3     4088     TIP3     OH2      OT      -0.834000       15.9994           0
     40899 TIP3     4088     TIP3     H1       HT       0.417000       1.00800           0
     40900 TIP3     4088     TIP3     H2       HT       0.417000       1.00800           0
     40901 TIP3     4089     TIP3     OH2      OT      -0.834000       15.9994           0
     40902 TIP3     4089     TIP3     H1       HT       0.417000       1.00800           0
     40903 TIP3     4089     TIP3     H2       HT       0.417000       1.00800           0
     40904 TIP3     4090     TIP3     OH2      OT      -0.834000       15.9994           0
     40905 TIP3     4090     TIP3     H1       HT       0.417000       1.00800           0
     40906 TIP3     4090     TIP3     H2       HT       0.417000       1.00800           0
     40907 TIP3     4091     TIP3     OH2      OT      -0.834000       15.9994           0
     40908 TIP3     4091     TIP3     H1       HT       0.417000       1.00800           0
     40909 TIP3     4091     TIP3     H2       HT       0.417000       1.00800           0
     40910 TIP3     4092     TIP3     OH2      OT      -0.834000       15.9994           0
     40911 TIP3     4092     TIP3     H1       HT       0.417000       1.00800           0
     40912 TIP3     4092     TIP3     H2       HT       0.417000       1.00800           0
     40913 TIP3     4093     TIP3     OH2      OT      -0.834000       15.9994           0
     40914 TIP3     4093     TIP3     H1       HT       0.417000       1.00800           0
     40915 TIP3     4093     TIP3     H2       HT       0.417000       1.00800           0
     40916 TIP3     4094     TIP3     OH2      OT      -0.834000       15.9994           0
     40917 TIP3     4094     TIP3     H1       HT       0.417000       1.00800           0
     40918 TIP3     4094     TIP3     H2       HT       0.417000       1.00800           0
     40919 TIP3     4095     TIP3     OH2      OT      -0.834000       15.9994           0
     40920 TIP3     4095     TIP3     H1       HT       0.417000       1.00800           0
     40921 TIP3     4095     TIP3     H2       HT       0.417000       1.00800           0
     40922 TIP3     4096     TIP3     OH2      OT      -0.834000       15.9994           0
     40923 TIP3     4096     TIP3     H1       HT       0.417000       1.00800           0
     40924 TIP3     4096     TIP3     H2       HT       0.417000       1.00800           0
     40925 TIP3     4097     TIP3     OH2      OT      -0.834000       15.9994           0
     40926 TIP3     4097     TIP3     H1       HT       0.417000       1.00800           0
     40927 TIP3     4097     TIP3     H2       HT       0.417000       1.00800           0
     40928 TIP3     4098     TIP3     OH2      OT      -0.834000       15.9994           0
     40929 TIP3     4098     TIP3     H1       HT       0.417000       1.00800           0
     40930 TIP3     4098     TIP3     H2       HT       0.417000       1.00800           0
     40931 TIP3     4099     TIP3     OH2      OT      -0.834000       15.9994           0
     40932 TIP3     4099     TIP3     H1       HT       0.417000       1.00800           0
     40933 TIP3     4099     TIP3     H2       HT       0.417000       1.00800           0
     40934 TIP3     4100     TIP3     OH2      OT      -0.834000       15.9994           0
     40935 TIP3     4100     TIP3     H1       HT       0.417000       1.00800           0
     40936 TIP3     4100     TIP3     H2       HT       0.417000       1.00800           0
     40937 TIP3     4101     TIP3     OH2      OT      -0.834000       15.9994           0
     40938 TIP3     4101     TIP3     H1       HT       0.417000       1.00800           0
     40939 TIP3     4101     TIP3     H2       HT       0.417000       1.00800           0
     40940 TIP3     4102     TIP3     OH2      OT      -0.834000       15.9994           0
     40941 TIP3     4102     TIP3     H1       HT       0.417000       1.00800           0
     40942 TIP3     4102     TIP3     H2       HT       0.417000       1.00800           0
     40943 TIP3     4103     TIP3     OH2      OT      -0.834000       15.9994           0
     40944 TIP3     4103     TIP3     H1       HT       0.417000       1.00800           0
     40945 TIP3     4103     TIP3     H2       HT       0.417000       1.00800           0
     40946 TIP3     4104     TIP3     OH2      OT      -0.834000       15.9994           0
     40947 TIP3     4104     TIP3     H1       HT       0.417000       1.00800           0
     40948 TIP3     4104     TIP3     H2       HT       0.417000       1.00800           0
     40949 TIP3     4105     TIP3     OH2      OT      -0.834000       15.9994           0
     40950 TIP3     4105     TIP3     H1       HT       0.417000       1.00800           0
     40951 TIP3     4105     TIP3     H2       HT       0.417000       1.00800           0
     40952 TIP3     4106     TIP3     OH2      OT      -0.834000       15.9994           0
     40953 TIP3     4106     TIP3     H1       HT       0.417000       1.00800           0
     40954 TIP3     4106     TIP3     H2       HT       0.417000       1.00800           0
     40955 TIP3     4107     TIP3     OH2      OT      -0.834000       15.9994           0
     40956 TIP3     4107     TIP3     H1       HT       0.417000       1.00800           0
     40957 TIP3     4107     TIP3     H2       HT       0.417000       1.00800           0
     40958 TIP3     4108     TIP3     OH2      OT      -0.834000       15.9994           0
     40959 TIP3     4108     TIP3     H1       HT       0.417000       1.00800           0
     40960 TIP3     4108     TIP3     H2       HT       0.417000       1.00800           0
     40961 TIP3     4109     TIP3     OH2      OT      -0.834000       15.9994           0
     40962 TIP3     4109     TIP3     H1       HT       0.417000       1.00800           0
     40963 TIP3     4109     TIP3     H2       HT       0.417000       1.00800           0
     40964 TIP3     4110     TIP3     OH2      OT      -0.834000       15.9994           0
     40965 TIP3     4110     TIP3     H1       HT       0.417000       1.00800           0
     40966 TIP3     4110     TIP3     H2       HT       0.417000       1.00800           0
     40967 TIP3     4111     TIP3     OH2      OT      -0.834000       15.9994           0
     40968 TIP3     4111     TIP3     H1       HT       0.417000       1.00800           0
     40969 TIP3     4111     TIP3     H2       HT       0.417000       1.00800           0
     40970 TIP3     4112     TIP3     OH2      OT      -0.834000       15.9994           0
     40971 TIP3     4112     TIP3     H1       HT       0.417000       1.00800           0
     40972 TIP3     4112     TIP3     H2       HT       0.417000       1.00800           0
     40973 TIP3     4113     TIP3     OH2      OT      -0.834000       15.9994           0
     40974 TIP3     4113     TIP3     H1       HT       0.417000       1.00800           0
     40975 TIP3     4113     TIP3     H2       HT       0.417000       1.00800           0
     40976 TIP3     4114     TIP3     OH2      OT      -0.834000       15.9994           0
     40977 TIP3     4114     TIP3     H1       HT       0.417000       1.00800           0
     40978 TIP3     4114     TIP3     H2       HT       0.417000       1.00800           0
     40979 TIP3     4115     TIP3     OH2      OT      -0.834000       15.9994           0
     40980 TIP3     4115     TIP3     H1       HT       0.417000       1.00800           0
     40981 TIP3     4115     TIP3     H2       HT       0.417000       1.00800           0
     40982 TIP3     4116     TIP3     OH2      OT      -0.834000       15.9994           0
     40983 TIP3     4116     TIP3     H1       HT       0.417000       1.00800           0
     40984 TIP3     4116     TIP3     H2       HT       0.417000       1.00800           0
     40985 TIP3     4117     TIP3     OH2      OT      -0.834000       15.9994           0
     40986 TIP3     4117     TIP3     H1       HT       0.417000       1.00800           0
     40987 TIP3     4117     TIP3     H2       HT       0.417000       1.00800           0
     40988 TIP3     4118     TIP3     OH2      OT      -0.834000       15.9994           0
     40989 TIP3     4118     TIP3     H1       HT       0.417000       1.00800           0
     40990 TIP3     4118     TIP3     H2       HT       0.417000       1.00800           0
     40991 TIP3     4119     TIP3     OH2      OT      -0.834000       15.9994           0
     40992 TIP3     4119     TIP3     H1       HT       0.417000       1.00800           0
     40993 TIP3     4119     TIP3     H2       HT       0.417000       1.00800           0
     40994 TIP3     4120     TIP3     OH2      OT      -0.834000       15.9994           0
     40995 TIP3     4120     TIP3     H1       HT       0.417000       1.00800           0
     40996 TIP3     4120     TIP3     H2       HT       0.417000       1.00800           0
     40997 TIP3     4121     TIP3     OH2      OT      -0.834000       15.9994           0
     40998 TIP3     4121     TIP3     H1       HT       0.417000       1.00800           0
     40999 TIP3     4121     TIP3     H2       HT       0.417000       1.00800           0
     41000 TIP3     4122     TIP3     OH2      OT      -0.834000       15.9994           0
     41001 TIP3     4122     TIP3     H1       HT       0.417000       1.00800           0
     41002 TIP3     4122     TIP3     H2       HT       0.417000       1.00800           0
     41003 TIP3     4123     TIP3     OH2      OT      -0.834000       15.9994           0
     41004 TIP3     4123     TIP3     H1       HT       0.417000       1.00800           0
     41005 TIP3     4123     TIP3     H2       HT       0.417000       1.00800           0
     41006 TIP3     4124     TIP3     OH2      OT      -0.834000       15.9994           0
     41007 TIP3     4124     TIP3     H1       HT       0.417000       1.00800           0
     41008 TIP3     4124     TIP3     H2       HT       0.417000       1.00800           0
     41009 TIP3     4125     TIP3     OH2      OT      -0.834000       15.9994           0
     41010 TIP3     4125     TIP3     H1       HT       0.417000       1.00800           0
     41011 TIP3     4125     TIP3     H2       HT       0.417000       1.00800           0
     41012 TIP3     4126     TIP3     OH2      OT      -0.834000       15.9994           0
     41013 TIP3     4126     TIP3     H1       HT       0.417000       1.00800           0
     41014 TIP3     4126     TIP3     H2       HT       0.417000       1.00800           0
     41015 TIP3     4127     TIP3     OH2      OT      -0.834000       15.9994           0
     41016 TIP3     4127     TIP3     H1       HT       0.417000       1.00800           0
     41017 TIP3     4127     TIP3     H2       HT       0.417000       1.00800           0
     41018 TIP3     4128     TIP3     OH2      OT      -0.834000       15.9994           0
     41019 TIP3     4128     TIP3     H1       HT       0.417000       1.00800           0
     41020 TIP3     4128     TIP3     H2       HT       0.417000       1.00800           0
     41021 TIP3     4129     TIP3     OH2      OT      -0.834000       15.9994           0
     41022 TIP3     4129     TIP3     H1       HT       0.417000       1.00800           0
     41023 TIP3     4129     TIP3     H2       HT       0.417000       1.00800           0
     41024 TIP3     4130     TIP3     OH2      OT      -0.834000       15.9994           0
     41025 TIP3     4130     TIP3     H1       HT       0.417000       1.00800           0
     41026 TIP3     4130     TIP3     H2       HT       0.417000       1.00800           0
     41027 TIP3     4131     TIP3     OH2      OT      -0.834000       15.9994           0
     41028 TIP3     4131     TIP3     H1       HT       0.417000       1.00800           0
     41029 TIP3     4131     TIP3     H2       HT       0.417000       1.00800           0
     41030 TIP3     4132     TIP3     OH2      OT      -0.834000       15.9994           0
     41031 TIP3     4132     TIP3     H1       HT       0.417000       1.00800           0
     41032 TIP3     4132     TIP3     H2       HT       0.417000       1.00800           0
     41033 TIP3     4133     TIP3     OH2      OT      -0.834000       15.9994           0
     41034 TIP3     4133     TIP3     H1       HT       0.417000       1.00800           0
     41035 TIP3     4133     TIP3     H2       HT       0.417000       1.00800           0
     41036 TIP3     4134     TIP3     OH2      OT      -0.834000       15.9994           0
     41037 TIP3     4134     TIP3     H1       HT       0.417000       1.00800           0
     41038 TIP3     4134     TIP3     H2       HT       0.417000       1.00800           0
     41039 TIP3     4135     TIP3     OH2      OT      -0.834000       15.9994           0
     41040 TIP3     4135     TIP3     H1       HT       0.417000       1.00800           0
     41041 TIP3     4135     TIP3     H2       HT       0.417000       1.00800           0
     41042 TIP3     4136     TIP3     OH2      OT      -0.834000       15.9994           0
     41043 TIP3     4136     TIP3     H1       HT       0.417000       1.00800           0
     41044 TIP3     4136     TIP3     H2       HT       0.417000       1.00800           0
     41045 TIP3     4137     TIP3     OH2      OT      -0.834000       15.9994           0
     41046 TIP3     4137     TIP3     H1       HT       0.417000       1.00800           0
     41047 TIP3     4137     TIP3     H2       HT       0.417000       1.00800           0
     41048 TIP3     4138     TIP3     OH2      OT      -0.834000       15.9994           0
     41049 TIP3     4138     TIP3     H1       HT       0.417000       1.00800           0
     41050 TIP3     4138     TIP3     H2       HT       0.417000       1.00800           0
     41051 TIP3     4139     TIP3     OH2      OT      -0.834000       15.9994           0
     41052 TIP3     4139     TIP3     H1       HT       0.417000       1.00800           0
     41053 TIP3     4139     TIP3     H2       HT       0.417000       1.00800           0
     41054 TIP3     4140     TIP3     OH2      OT      -0.834000       15.9994           0
     41055 TIP3     4140     TIP3     H1       HT       0.417000       1.00800           0
     41056 TIP3     4140     TIP3     H2       HT       0.417000       1.00800           0
     41057 TIP3     4141     TIP3     OH2      OT      -0.834000       15.9994           0
     41058 TIP3     4141     TIP3     H1       HT       0.417000       1.00800           0
     41059 TIP3     4141     TIP3     H2       HT       0.417000       1.00800           0
     41060 TIP3     4142     TIP3     OH2      OT      -0.834000       15.9994           0
     41061 TIP3     4142     TIP3     H1       HT       0.417000       1.00800           0
     41062 TIP3     4142     TIP3     H2       HT       0.417000       1.00800           0
     41063 TIP3     4143     TIP3     OH2      OT      -0.834000       15.9994           0
     41064 TIP3     4143     TIP3     H1       HT       0.417000       1.00800           0
     41065 TIP3     4143     TIP3     H2       HT       0.417000       1.00800           0
     41066 TIP3     4144     TIP3     OH2      OT      -0.834000       15.9994           0
     41067 TIP3     4144     TIP3     H1       HT       0.417000       1.00800           0
     41068 TIP3     4144     TIP3     H2       HT       0.417000       1.00800           0
     41069 TIP3     4145     TIP3     OH2      OT      -0.834000       15.9994           0
     41070 TIP3     4145     TIP3     H1       HT       0.417000       1.00800           0
     41071 TIP3     4145     TIP3     H2       HT       0.417000       1.00800           0
     41072 TIP3     4146     TIP3     OH2      OT      -0.834000       15.9994           0
     41073 TIP3     4146     TIP3     H1       HT       0.417000       1.00800           0
     41074 TIP3     4146     TIP3     H2       HT       0.417000       1.00800           0
     41075 TIP3     4147     TIP3     OH2      OT      -0.834000       15.9994           0
     41076 TIP3     4147     TIP3     H1       HT       0.417000       1.00800           0
     41077 TIP3     4147     TIP3     H2       HT       0.417000       1.00800           0
     41078 TIP3     4148     TIP3     OH2      OT      -0.834000       15.9994           0
     41079 TIP3     4148     TIP3     H1       HT       0.417000       1.00800           0
     41080 TIP3     4148     TIP3     H2       HT       0.417000       1.00800           0
     41081 TIP3     4149     TIP3     OH2      OT      -0.834000       15.9994           0
     41082 TIP3     4149     TIP3     H1       HT       0.417000       1.00800           0
     41083 TIP3     4149     TIP3     H2       HT       0.417000       1.00800           0
     41084 TIP3     4150     TIP3     OH2      OT      -0.834000       15.9994           0
     41085 TIP3     4150     TIP3     H1       HT       0.417000       1.00800           0
     41086 TIP3     4150     TIP3     H2       HT       0.417000       1.00800           0
     41087 TIP3     4151     TIP3     OH2      OT      -0.834000       15.9994           0
     41088 TIP3     4151     TIP3     H1       HT       0.417000       1.00800           0
     41089 TIP3     4151     TIP3     H2       HT       0.417000       1.00800           0
     41090 TIP3     4152     TIP3     OH2      OT      -0.834000       15.9994           0
     41091 TIP3     4152     TIP3     H1       HT       0.417000       1.00800           0
     41092 TIP3     4152     TIP3     H2       HT       0.417000       1.00800           0
     41093 TIP3     4153     TIP3     OH2      OT      -0.834000       15.9994           0
     41094 TIP3     4153     TIP3     H1       HT       0.417000       1.00800           0
     41095 TIP3     4153     TIP3     H2       HT       0.417000       1.00800           0
     41096 TIP3     4154     TIP3     OH2      OT      -0.834000       15.9994           0
     41097 TIP3     4154     TIP3     H1       HT       0.417000       1.00800           0
     41098 TIP3     4154     TIP3     H2       HT       0.417000       1.00800           0
     41099 TIP3     4155     TIP3     OH2      OT      -0.834000       15.9994           0
     41100 TIP3     4155     TIP3     H1       HT       0.417000       1.00800           0
     41101 TIP3     4155     TIP3     H2       HT       0.417000       1.00800           0
     41102 TIP3     4156     TIP3     OH2      OT      -0.834000       15.9994           0
     41103 TIP3     4156     TIP3     H1       HT       0.417000       1.00800           0
     41104 TIP3     4156     TIP3     H2       HT       0.417000       1.00800           0
     41105 TIP3     4157     TIP3     OH2      OT      -0.834000       15.9994           0
     41106 TIP3     4157     TIP3     H1       HT       0.417000       1.00800           0
     41107 TIP3     4157     TIP3     H2       HT       0.417000       1.00800           0
     41108 TIP3     4158     TIP3     OH2      OT      -0.834000       15.9994           0
     41109 TIP3     4158     TIP3     H1       HT       0.417000       1.00800           0
     41110 TIP3     4158     TIP3     H2       HT       0.417000       1.00800           0
     41111 TIP3     4159     TIP3     OH2      OT      -0.834000       15.9994           0
     41112 TIP3     4159     TIP3     H1       HT       0.417000       1.00800           0
     41113 TIP3     4159     TIP3     H2       HT       0.417000       1.00800           0
     41114 TIP3     4160     TIP3     OH2      OT      -0.834000       15.9994           0
     41115 TIP3     4160     TIP3     H1       HT       0.417000       1.00800           0
     41116 TIP3     4160     TIP3     H2       HT       0.417000       1.00800           0
     41117 TIP3     4161     TIP3     OH2      OT      -0.834000       15.9994           0
     41118 TIP3     4161     TIP3     H1       HT       0.417000       1.00800           0
     41119 TIP3     4161     TIP3     H2       HT       0.417000       1.00800           0
     41120 TIP3     4162     TIP3     OH2      OT      -0.834000       15.9994           0
     41121 TIP3     4162     TIP3     H1       HT       0.417000       1.00800           0
     41122 TIP3     4162     TIP3     H2       HT       0.417000       1.00800           0
     41123 TIP3     4163     TIP3     OH2      OT      -0.834000       15.9994           0
     41124 TIP3     4163     TIP3     H1       HT       0.417000       1.00800           0
     41125 TIP3     4163     TIP3     H2       HT       0.417000       1.00800           0
     41126 TIP3     4164     TIP3     OH2      OT      -0.834000       15.9994           0
     41127 TIP3     4164     TIP3     H1       HT       0.417000       1.00800           0
     41128 TIP3     4164     TIP3     H2       HT       0.417000       1.00800           0
     41129 TIP3     4165     TIP3     OH2      OT      -0.834000       15.9994           0
     41130 TIP3     4165     TIP3     H1       HT       0.417000       1.00800           0
     41131 TIP3     4165     TIP3     H2       HT       0.417000       1.00800           0
     41132 TIP3     4166     TIP3     OH2      OT      -0.834000       15.9994           0
     41133 TIP3     4166     TIP3     H1       HT       0.417000       1.00800           0
     41134 TIP3     4166     TIP3     H2       HT       0.417000       1.00800           0
     41135 TIP3     4167     TIP3     OH2      OT      -0.834000       15.9994           0
     41136 TIP3     4167     TIP3     H1       HT       0.417000       1.00800           0
     41137 TIP3     4167     TIP3     H2       HT       0.417000       1.00800           0
     41138 TIP3     4168     TIP3     OH2      OT      -0.834000       15.9994           0
     41139 TIP3     4168     TIP3     H1       HT       0.417000       1.00800           0
     41140 TIP3     4168     TIP3     H2       HT       0.417000       1.00800           0
     41141 TIP3     4169     TIP3     OH2      OT      -0.834000       15.9994           0
     41142 TIP3     4169     TIP3     H1       HT       0.417000       1.00800           0
     41143 TIP3     4169     TIP3     H2       HT       0.417000       1.00800           0
     41144 TIP3     4170     TIP3     OH2      OT      -0.834000       15.9994           0
     41145 TIP3     4170     TIP3     H1       HT       0.417000       1.00800           0
     41146 TIP3     4170     TIP3     H2       HT       0.417000       1.00800           0
     41147 TIP3     4171     TIP3     OH2      OT      -0.834000       15.9994           0
     41148 TIP3     4171     TIP3     H1       HT       0.417000       1.00800           0
     41149 TIP3     4171     TIP3     H2       HT       0.417000       1.00800           0
     41150 TIP3     4172     TIP3     OH2      OT      -0.834000       15.9994           0
     41151 TIP3     4172     TIP3     H1       HT       0.417000       1.00800           0
     41152 TIP3     4172     TIP3     H2       HT       0.417000       1.00800           0
     41153 TIP3     4173     TIP3     OH2      OT      -0.834000       15.9994           0
     41154 TIP3     4173     TIP3     H1       HT       0.417000       1.00800           0
     41155 TIP3     4173     TIP3     H2       HT       0.417000       1.00800           0
     41156 TIP3     4174     TIP3     OH2      OT      -0.834000       15.9994           0
     41157 TIP3     4174     TIP3     H1       HT       0.417000       1.00800           0
     41158 TIP3     4174     TIP3     H2       HT       0.417000       1.00800           0
     41159 TIP3     4175     TIP3     OH2      OT      -0.834000       15.9994           0
     41160 TIP3     4175     TIP3     H1       HT       0.417000       1.00800           0
     41161 TIP3     4175     TIP3     H2       HT       0.417000       1.00800           0
     41162 TIP3     4176     TIP3     OH2      OT      -0.834000       15.9994           0
     41163 TIP3     4176     TIP3     H1       HT       0.417000       1.00800           0
     41164 TIP3     4176     TIP3     H2       HT       0.417000       1.00800           0
     41165 TIP3     4177     TIP3     OH2      OT      -0.834000       15.9994           0
     41166 TIP3     4177     TIP3     H1       HT       0.417000       1.00800           0
     41167 TIP3     4177     TIP3     H2       HT       0.417000       1.00800           0
     41168 TIP3     4178     TIP3     OH2      OT      -0.834000       15.9994           0
     41169 TIP3     4178     TIP3     H1       HT       0.417000       1.00800           0
     41170 TIP3     4178     TIP3     H2       HT       0.417000       1.00800           0
     41171 TIP3     4179     TIP3     OH2      OT      -0.834000       15.9994           0
     41172 TIP3     4179     TIP3     H1       HT       0.417000       1.00800           0
     41173 TIP3     4179     TIP3     H2       HT       0.417000       1.00800           0
     41174 TIP3     4180     TIP3     OH2      OT      -0.834000       15.9994           0
     41175 TIP3     4180     TIP3     H1       HT       0.417000       1.00800           0
     41176 TIP3     4180     TIP3     H2       HT       0.417000       1.00800           0
     41177 TIP3     4181     TIP3     OH2      OT      -0.834000       15.9994           0
     41178 TIP3     4181     TIP3     H1       HT       0.417000       1.00800           0
     41179 TIP3     4181     TIP3     H2       HT       0.417000       1.00800           0
     41180 TIP3     4182     TIP3     OH2      OT      -0.834000       15.9994           0
     41181 TIP3     4182     TIP3     H1       HT       0.417000       1.00800           0
     41182 TIP3     4182     TIP3     H2       HT       0.417000       1.00800           0
     41183 TIP3     4183     TIP3     OH2      OT      -0.834000       15.9994           0
     41184 TIP3     4183     TIP3     H1       HT       0.417000       1.00800           0
     41185 TIP3     4183     TIP3     H2       HT       0.417000       1.00800           0
     41186 TIP3     4184     TIP3     OH2      OT      -0.834000       15.9994           0
     41187 TIP3     4184     TIP3     H1       HT       0.417000       1.00800           0
     41188 TIP3     4184     TIP3     H2       HT       0.417000       1.00800           0
     41189 TIP3     4185     TIP3     OH2      OT      -0.834000       15.9994           0
     41190 TIP3     4185     TIP3     H1       HT       0.417000       1.00800           0
     41191 TIP3     4185     TIP3     H2       HT       0.417000       1.00800           0
     41192 TIP3     4186     TIP3     OH2      OT      -0.834000       15.9994           0
     41193 TIP3     4186     TIP3     H1       HT       0.417000       1.00800           0
     41194 TIP3     4186     TIP3     H2       HT       0.417000       1.00800           0
     41195 TIP3     4187     TIP3     OH2      OT      -0.834000       15.9994           0
     41196 TIP3     4187     TIP3     H1       HT       0.417000       1.00800           0
     41197 TIP3     4187     TIP3     H2       HT       0.417000       1.00800           0
     41198 TIP3     4188     TIP3     OH2      OT      -0.834000       15.9994           0
     41199 TIP3     4188     TIP3     H1       HT       0.417000       1.00800           0
     41200 TIP3     4188     TIP3     H2       HT       0.417000       1.00800           0
     41201 TIP3     4189     TIP3     OH2      OT      -0.834000       15.9994           0
     41202 TIP3     4189     TIP3     H1       HT       0.417000       1.00800           0
     41203 TIP3     4189     TIP3     H2       HT       0.417000       1.00800           0
     41204 TIP3     4190     TIP3     OH2      OT      -0.834000       15.9994           0
     41205 TIP3     4190     TIP3     H1       HT       0.417000       1.00800           0
     41206 TIP3     4190     TIP3     H2       HT       0.417000       1.00800           0
     41207 TIP3     4191     TIP3     OH2      OT      -0.834000       15.9994           0
     41208 TIP3     4191     TIP3     H1       HT       0.417000       1.00800           0
     41209 TIP3     4191     TIP3     H2       HT       0.417000       1.00800           0
     41210 TIP3     4192     TIP3     OH2      OT      -0.834000       15.9994           0
     41211 TIP3     4192     TIP3     H1       HT       0.417000       1.00800           0
     41212 TIP3     4192     TIP3     H2       HT       0.417000       1.00800           0
     41213 TIP3     4193     TIP3     OH2      OT      -0.834000       15.9994           0
     41214 TIP3     4193     TIP3     H1       HT       0.417000       1.00800           0
     41215 TIP3     4193     TIP3     H2       HT       0.417000       1.00800           0
     41216 TIP3     4194     TIP3     OH2      OT      -0.834000       15.9994           0
     41217 TIP3     4194     TIP3     H1       HT       0.417000       1.00800           0
     41218 TIP3     4194     TIP3     H2       HT       0.417000       1.00800           0
     41219 TIP3     4195     TIP3     OH2      OT      -0.834000       15.9994           0
     41220 TIP3     4195     TIP3     H1       HT       0.417000       1.00800           0
     41221 TIP3     4195     TIP3     H2       HT       0.417000       1.00800           0
     41222 TIP3     4196     TIP3     OH2      OT      -0.834000       15.9994           0
     41223 TIP3     4196     TIP3     H1       HT       0.417000       1.00800           0
     41224 TIP3     4196     TIP3     H2       HT       0.417000       1.00800           0
     41225 TIP3     4197     TIP3     OH2      OT      -0.834000       15.9994           0
     41226 TIP3     4197     TIP3     H1       HT       0.417000       1.00800           0
     41227 TIP3     4197     TIP3     H2       HT       0.417000       1.00800           0
     41228 TIP3     4198     TIP3     OH2      OT      -0.834000       15.9994           0
     41229 TIP3     4198     TIP3     H1       HT       0.417000       1.00800           0
     41230 TIP3     4198     TIP3     H2       HT       0.417000       1.00800           0
     41231 TIP3     4199     TIP3     OH2      OT      -0.834000       15.9994           0
     41232 TIP3     4199     TIP3     H1       HT       0.417000       1.00800           0
     41233 TIP3     4199     TIP3     H2       HT       0.417000       1.00800           0
     41234 TIP3     4200     TIP3     OH2      OT      -0.834000       15.9994           0
     41235 TIP3     4200     TIP3     H1       HT       0.417000       1.00800           0
     41236 TIP3     4200     TIP3     H2       HT       0.417000       1.00800           0
     41237 TIP3     4201     TIP3     OH2      OT      -0.834000       15.9994           0
     41238 TIP3     4201     TIP3     H1       HT       0.417000       1.00800           0
     41239 TIP3     4201     TIP3     H2       HT       0.417000       1.00800           0
     41240 TIP3     4202     TIP3     OH2      OT      -0.834000       15.9994           0
     41241 TIP3     4202     TIP3     H1       HT       0.417000       1.00800           0
     41242 TIP3     4202     TIP3     H2       HT       0.417000       1.00800           0
     41243 TIP3     4203     TIP3     OH2      OT      -0.834000       15.9994           0
     41244 TIP3     4203     TIP3     H1       HT       0.417000       1.00800           0
     41245 TIP3     4203     TIP3     H2       HT       0.417000       1.00800           0
     41246 TIP3     4204     TIP3     OH2      OT      -0.834000       15.9994           0
     41247 TIP3     4204     TIP3     H1       HT       0.417000       1.00800           0
     41248 TIP3     4204     TIP3     H2       HT       0.417000       1.00800           0
     41249 TIP3     4205     TIP3     OH2      OT      -0.834000       15.9994           0
     41250 TIP3     4205     TIP3     H1       HT       0.417000       1.00800           0
     41251 TIP3     4205     TIP3     H2       HT       0.417000       1.00800           0
     41252 TIP3     4206     TIP3     OH2      OT      -0.834000       15.9994           0
     41253 TIP3     4206     TIP3     H1       HT       0.417000       1.00800           0
     41254 TIP3     4206     TIP3     H2       HT       0.417000       1.00800           0
     41255 TIP3     4207     TIP3     OH2      OT      -0.834000       15.9994           0
     41256 TIP3     4207     TIP3     H1       HT       0.417000       1.00800           0
     41257 TIP3     4207     TIP3     H2       HT       0.417000       1.00800           0
     41258 TIP3     4208     TIP3     OH2      OT      -0.834000       15.9994           0
     41259 TIP3     4208     TIP3     H1       HT       0.417000       1.00800           0
     41260 TIP3     4208     TIP3     H2       HT       0.417000       1.00800           0
     41261 TIP3     4209     TIP3     OH2      OT      -0.834000       15.9994           0
     41262 TIP3     4209     TIP3     H1       HT       0.417000       1.00800           0
     41263 TIP3     4209     TIP3     H2       HT       0.417000       1.00800           0
     41264 TIP3     4210     TIP3     OH2      OT      -0.834000       15.9994           0
     41265 TIP3     4210     TIP3     H1       HT       0.417000       1.00800           0
     41266 TIP3     4210     TIP3     H2       HT       0.417000       1.00800           0
     41267 TIP3     4211     TIP3     OH2      OT      -0.834000       15.9994           0
     41268 TIP3     4211     TIP3     H1       HT       0.417000       1.00800           0
     41269 TIP3     4211     TIP3     H2       HT       0.417000       1.00800           0
     41270 TIP3     4212     TIP3     OH2      OT      -0.834000       15.9994           0
     41271 TIP3     4212     TIP3     H1       HT       0.417000       1.00800           0
     41272 TIP3     4212     TIP3     H2       HT       0.417000       1.00800           0
     41273 TIP3     4213     TIP3     OH2      OT      -0.834000       15.9994           0
     41274 TIP3     4213     TIP3     H1       HT       0.417000       1.00800           0
     41275 TIP3     4213     TIP3     H2       HT       0.417000       1.00800           0
     41276 TIP3     4214     TIP3     OH2      OT      -0.834000       15.9994           0
     41277 TIP3     4214     TIP3     H1       HT       0.417000       1.00800           0
     41278 TIP3     4214     TIP3     H2       HT       0.417000       1.00800           0
     41279 TIP3     4215     TIP3     OH2      OT      -0.834000       15.9994           0
     41280 TIP3     4215     TIP3     H1       HT       0.417000       1.00800           0
     41281 TIP3     4215     TIP3     H2       HT       0.417000       1.00800           0
     41282 TIP3     4216     TIP3     OH2      OT      -0.834000       15.9994           0
     41283 TIP3     4216     TIP3     H1       HT       0.417000       1.00800           0
     41284 TIP3     4216     TIP3     H2       HT       0.417000       1.00800           0
     41285 TIP3     4217     TIP3     OH2      OT      -0.834000       15.9994           0
     41286 TIP3     4217     TIP3     H1       HT       0.417000       1.00800           0
     41287 TIP3     4217     TIP3     H2       HT       0.417000       1.00800           0
     41288 TIP3     4218     TIP3     OH2      OT      -0.834000       15.9994           0
     41289 TIP3     4218     TIP3     H1       HT       0.417000       1.00800           0
     41290 TIP3     4218     TIP3     H2       HT       0.417000       1.00800           0
     41291 TIP3     4219     TIP3     OH2      OT      -0.834000       15.9994           0
     41292 TIP3     4219     TIP3     H1       HT       0.417000       1.00800           0
     41293 TIP3     4219     TIP3     H2       HT       0.417000       1.00800           0
     41294 TIP3     4220     TIP3     OH2      OT      -0.834000       15.9994           0
     41295 TIP3     4220     TIP3     H1       HT       0.417000       1.00800           0
     41296 TIP3     4220     TIP3     H2       HT       0.417000       1.00800           0
     41297 TIP3     4221     TIP3     OH2      OT      -0.834000       15.9994           0
     41298 TIP3     4221     TIP3     H1       HT       0.417000       1.00800           0
     41299 TIP3     4221     TIP3     H2       HT       0.417000       1.00800           0
     41300 TIP3     4222     TIP3     OH2      OT      -0.834000       15.9994           0
     41301 TIP3     4222     TIP3     H1       HT       0.417000       1.00800           0
     41302 TIP3     4222     TIP3     H2       HT       0.417000       1.00800           0
     41303 TIP3     4223     TIP3     OH2      OT      -0.834000       15.9994           0
     41304 TIP3     4223     TIP3     H1       HT       0.417000       1.00800           0
     41305 TIP3     4223     TIP3     H2       HT       0.417000       1.00800           0
     41306 TIP3     4224     TIP3     OH2      OT      -0.834000       15.9994           0
     41307 TIP3     4224     TIP3     H1       HT       0.417000       1.00800           0
     41308 TIP3     4224     TIP3     H2       HT       0.417000       1.00800           0
     41309 TIP3     4225     TIP3     OH2      OT      -0.834000       15.9994           0
     41310 TIP3     4225     TIP3     H1       HT       0.417000       1.00800           0
     41311 TIP3     4225     TIP3     H2       HT       0.417000       1.00800           0
     41312 TIP3     4226     TIP3     OH2      OT      -0.834000       15.9994           0
     41313 TIP3     4226     TIP3     H1       HT       0.417000       1.00800           0
     41314 TIP3     4226     TIP3     H2       HT       0.417000       1.00800           0
     41315 TIP3     4227     TIP3     OH2      OT      -0.834000       15.9994           0
     41316 TIP3     4227     TIP3     H1       HT       0.417000       1.00800           0
     41317 TIP3     4227     TIP3     H2       HT       0.417000       1.00800           0
     41318 TIP3     4228     TIP3     OH2      OT      -0.834000       15.9994           0
     41319 TIP3     4228     TIP3     H1       HT       0.417000       1.00800           0
     41320 TIP3     4228     TIP3     H2       HT       0.417000       1.00800           0
     41321 TIP3     4229     TIP3     OH2      OT      -0.834000       15.9994           0
     41322 TIP3     4229     TIP3     H1       HT       0.417000       1.00800           0
     41323 TIP3     4229     TIP3     H2       HT       0.417000       1.00800           0
     41324 TIP3     4230     TIP3     OH2      OT      -0.834000       15.9994           0
     41325 TIP3     4230     TIP3     H1       HT       0.417000       1.00800           0
     41326 TIP3     4230     TIP3     H2       HT       0.417000       1.00800           0
     41327 TIP3     4231     TIP3     OH2      OT      -0.834000       15.9994           0
     41328 TIP3     4231     TIP3     H1       HT       0.417000       1.00800           0
     41329 TIP3     4231     TIP3     H2       HT       0.417000       1.00800           0
     41330 TIP3     4232     TIP3     OH2      OT      -0.834000       15.9994           0
     41331 TIP3     4232     TIP3     H1       HT       0.417000       1.00800           0
     41332 TIP3     4232     TIP3     H2       HT       0.417000       1.00800           0
     41333 TIP3     4233     TIP3     OH2      OT      -0.834000       15.9994           0
     41334 TIP3     4233     TIP3     H1       HT       0.417000       1.00800           0
     41335 TIP3     4233     TIP3     H2       HT       0.417000       1.00800           0
     41336 TIP3     4234     TIP3     OH2      OT      -0.834000       15.9994           0
     41337 TIP3     4234     TIP3     H1       HT       0.417000       1.00800           0
     41338 TIP3     4234     TIP3     H2       HT       0.417000       1.00800           0
     41339 TIP3     4235     TIP3     OH2      OT      -0.834000       15.9994           0
     41340 TIP3     4235     TIP3     H1       HT       0.417000       1.00800           0
     41341 TIP3     4235     TIP3     H2       HT       0.417000       1.00800           0
     41342 TIP3     4236     TIP3     OH2      OT      -0.834000       15.9994           0
     41343 TIP3     4236     TIP3     H1       HT       0.417000       1.00800           0
     41344 TIP3     4236     TIP3     H2       HT       0.417000       1.00800           0
     41345 TIP3     4237     TIP3     OH2      OT      -0.834000       15.9994           0
     41346 TIP3     4237     TIP3     H1       HT       0.417000       1.00800           0
     41347 TIP3     4237     TIP3     H2       HT       0.417000       1.00800           0
     41348 TIP3     4238     TIP3     OH2      OT      -0.834000       15.9994           0
     41349 TIP3     4238     TIP3     H1       HT       0.417000       1.00800           0
     41350 TIP3     4238     TIP3     H2       HT       0.417000       1.00800           0
     41351 TIP3     4239     TIP3     OH2      OT      -0.834000       15.9994           0
     41352 TIP3     4239     TIP3     H1       HT       0.417000       1.00800           0
     41353 TIP3     4239     TIP3     H2       HT       0.417000       1.00800           0
     41354 TIP3     4240     TIP3     OH2      OT      -0.834000       15.9994           0
     41355 TIP3     4240     TIP3     H1       HT       0.417000       1.00800           0
     41356 TIP3     4240     TIP3     H2       HT       0.417000       1.00800           0
     41357 TIP3     4241     TIP3     OH2      OT      -0.834000       15.9994           0
     41358 TIP3     4241     TIP3     H1       HT       0.417000       1.00800           0
     41359 TIP3     4241     TIP3     H2       HT       0.417000       1.00800           0
     41360 TIP3     4242     TIP3     OH2      OT      -0.834000       15.9994           0
     41361 TIP3     4242     TIP3     H1       HT       0.417000       1.00800           0
     41362 TIP3     4242     TIP3     H2       HT       0.417000       1.00800           0
     41363 TIP3     4243     TIP3     OH2      OT      -0.834000       15.9994           0
     41364 TIP3     4243     TIP3     H1       HT       0.417000       1.00800           0
     41365 TIP3     4243     TIP3     H2       HT       0.417000       1.00800           0
     41366 TIP3     4244     TIP3     OH2      OT      -0.834000       15.9994           0
     41367 TIP3     4244     TIP3     H1       HT       0.417000       1.00800           0
     41368 TIP3     4244     TIP3     H2       HT       0.417000       1.00800           0
     41369 TIP3     4245     TIP3     OH2      OT      -0.834000       15.9994           0
     41370 TIP3     4245     TIP3     H1       HT       0.417000       1.00800           0
     41371 TIP3     4245     TIP3     H2       HT       0.417000       1.00800           0
     41372 TIP3     4246     TIP3     OH2      OT      -0.834000       15.9994           0
     41373 TIP3     4246     TIP3     H1       HT       0.417000       1.00800           0
     41374 TIP3     4246     TIP3     H2       HT       0.417000       1.00800           0
     41375 TIP3     4247     TIP3     OH2      OT      -0.834000       15.9994           0
     41376 TIP3     4247     TIP3     H1       HT       0.417000       1.00800           0
     41377 TIP3     4247     TIP3     H2       HT       0.417000       1.00800           0
     41378 TIP3     4248     TIP3     OH2      OT      -0.834000       15.9994           0
     41379 TIP3     4248     TIP3     H1       HT       0.417000       1.00800           0
     41380 TIP3     4248     TIP3     H2       HT       0.417000       1.00800           0
     41381 TIP3     4249     TIP3     OH2      OT      -0.834000       15.9994           0
     41382 TIP3     4249     TIP3     H1       HT       0.417000       1.00800           0
     41383 TIP3     4249     TIP3     H2       HT       0.417000       1.00800           0
     41384 TIP3     4250     TIP3     OH2      OT      -0.834000       15.9994           0
     41385 TIP3     4250     TIP3     H1       HT       0.417000       1.00800           0
     41386 TIP3     4250     TIP3     H2       HT       0.417000       1.00800           0
     41387 TIP3     4251     TIP3     OH2      OT      -0.834000       15.9994           0
     41388 TIP3     4251     TIP3     H1       HT       0.417000       1.00800           0
     41389 TIP3     4251     TIP3     H2       HT       0.417000       1.00800           0
     41390 TIP3     4252     TIP3     OH2      OT      -0.834000       15.9994           0
     41391 TIP3     4252     TIP3     H1       HT       0.417000       1.00800           0
     41392 TIP3     4252     TIP3     H2       HT       0.417000       1.00800           0
     41393 TIP3     4253     TIP3     OH2      OT      -0.834000       15.9994           0
     41394 TIP3     4253     TIP3     H1       HT       0.417000       1.00800           0
     41395 TIP3     4253     TIP3     H2       HT       0.417000       1.00800           0
     41396 TIP3     4254     TIP3     OH2      OT      -0.834000       15.9994           0
     41397 TIP3     4254     TIP3     H1       HT       0.417000       1.00800           0
     41398 TIP3     4254     TIP3     H2       HT       0.417000       1.00800           0
     41399 TIP3     4255     TIP3     OH2      OT      -0.834000       15.9994           0
     41400 TIP3     4255     TIP3     H1       HT       0.417000       1.00800           0
     41401 TIP3     4255     TIP3     H2       HT       0.417000       1.00800           0
     41402 TIP3     4256     TIP3     OH2      OT      -0.834000       15.9994           0
     41403 TIP3     4256     TIP3     H1       HT       0.417000       1.00800           0
     41404 TIP3     4256     TIP3     H2       HT       0.417000       1.00800           0
     41405 TIP3     4257     TIP3     OH2      OT      -0.834000       15.9994           0
     41406 TIP3     4257     TIP3     H1       HT       0.417000       1.00800           0
     41407 TIP3     4257     TIP3     H2       HT       0.417000       1.00800           0
     41408 TIP3     4258     TIP3     OH2      OT      -0.834000       15.9994           0
     41409 TIP3     4258     TIP3     H1       HT       0.417000       1.00800           0
     41410 TIP3     4258     TIP3     H2       HT       0.417000       1.00800           0
     41411 TIP3     4259     TIP3     OH2      OT      -0.834000       15.9994           0
     41412 TIP3     4259     TIP3     H1       HT       0.417000       1.00800           0
     41413 TIP3     4259     TIP3     H2       HT       0.417000       1.00800           0
     41414 TIP3     4260     TIP3     OH2      OT      -0.834000       15.9994           0
     41415 TIP3     4260     TIP3     H1       HT       0.417000       1.00800           0
     41416 TIP3     4260     TIP3     H2       HT       0.417000       1.00800           0
     41417 TIP3     4261     TIP3     OH2      OT      -0.834000       15.9994           0
     41418 TIP3     4261     TIP3     H1       HT       0.417000       1.00800           0
     41419 TIP3     4261     TIP3     H2       HT       0.417000       1.00800           0
     41420 TIP3     4262     TIP3     OH2      OT      -0.834000       15.9994           0
     41421 TIP3     4262     TIP3     H1       HT       0.417000       1.00800           0
     41422 TIP3     4262     TIP3     H2       HT       0.417000       1.00800           0
     41423 TIP3     4263     TIP3     OH2      OT      -0.834000       15.9994           0
     41424 TIP3     4263     TIP3     H1       HT       0.417000       1.00800           0
     41425 TIP3     4263     TIP3     H2       HT       0.417000       1.00800           0
     41426 TIP3     4264     TIP3     OH2      OT      -0.834000       15.9994           0
     41427 TIP3     4264     TIP3     H1       HT       0.417000       1.00800           0
     41428 TIP3     4264     TIP3     H2       HT       0.417000       1.00800           0
     41429 TIP3     4265     TIP3     OH2      OT      -0.834000       15.9994           0
     41430 TIP3     4265     TIP3     H1       HT       0.417000       1.00800           0
     41431 TIP3     4265     TIP3     H2       HT       0.417000       1.00800           0
     41432 TIP3     4266     TIP3     OH2      OT      -0.834000       15.9994           0
     41433 TIP3     4266     TIP3     H1       HT       0.417000       1.00800           0
     41434 TIP3     4266     TIP3     H2       HT       0.417000       1.00800           0
     41435 TIP3     4267     TIP3     OH2      OT      -0.834000       15.9994           0
     41436 TIP3     4267     TIP3     H1       HT       0.417000       1.00800           0
     41437 TIP3     4267     TIP3     H2       HT       0.417000       1.00800           0
     41438 TIP3     4268     TIP3     OH2      OT      -0.834000       15.9994           0
     41439 TIP3     4268     TIP3     H1       HT       0.417000       1.00800           0
     41440 TIP3     4268     TIP3     H2       HT       0.417000       1.00800           0
     41441 TIP3     4269     TIP3     OH2      OT      -0.834000       15.9994           0
     41442 TIP3     4269     TIP3     H1       HT       0.417000       1.00800           0
     41443 TIP3     4269     TIP3     H2       HT       0.417000       1.00800           0
     41444 TIP3     4270     TIP3     OH2      OT      -0.834000       15.9994           0
     41445 TIP3     4270     TIP3     H1       HT       0.417000       1.00800           0
     41446 TIP3     4270     TIP3     H2       HT       0.417000       1.00800           0
     41447 TIP3     4271     TIP3     OH2      OT      -0.834000       15.9994           0
     41448 TIP3     4271     TIP3     H1       HT       0.417000       1.00800           0
     41449 TIP3     4271     TIP3     H2       HT       0.417000       1.00800           0
     41450 TIP3     4272     TIP3     OH2      OT      -0.834000       15.9994           0
     41451 TIP3     4272     TIP3     H1       HT       0.417000       1.00800           0
     41452 TIP3     4272     TIP3     H2       HT       0.417000       1.00800           0
     41453 TIP3     4273     TIP3     OH2      OT      -0.834000       15.9994           0
     41454 TIP3     4273     TIP3     H1       HT       0.417000       1.00800           0
     41455 TIP3     4273     TIP3     H2       HT       0.417000       1.00800           0
     41456 TIP3     4274     TIP3     OH2      OT      -0.834000       15.9994           0
     41457 TIP3     4274     TIP3     H1       HT       0.417000       1.00800           0
     41458 TIP3     4274     TIP3     H2       HT       0.417000       1.00800           0
     41459 TIP3     4275     TIP3     OH2      OT      -0.834000       15.9994           0
     41460 TIP3     4275     TIP3     H1       HT       0.417000       1.00800           0
     41461 TIP3     4275     TIP3     H2       HT       0.417000       1.00800           0
     41462 TIP3     4276     TIP3     OH2      OT      -0.834000       15.9994           0
     41463 TIP3     4276     TIP3     H1       HT       0.417000       1.00800           0
     41464 TIP3     4276     TIP3     H2       HT       0.417000       1.00800           0
     41465 TIP3     4277     TIP3     OH2      OT      -0.834000       15.9994           0
     41466 TIP3     4277     TIP3     H1       HT       0.417000       1.00800           0
     41467 TIP3     4277     TIP3     H2       HT       0.417000       1.00800           0
     41468 TIP3     4278     TIP3     OH2      OT      -0.834000       15.9994           0
     41469 TIP3     4278     TIP3     H1       HT       0.417000       1.00800           0
     41470 TIP3     4278     TIP3     H2       HT       0.417000       1.00800           0
     41471 TIP3     4279     TIP3     OH2      OT      -0.834000       15.9994           0
     41472 TIP3     4279     TIP3     H1       HT       0.417000       1.00800           0
     41473 TIP3     4279     TIP3     H2       HT       0.417000       1.00800           0
     41474 TIP3     4280     TIP3     OH2      OT      -0.834000       15.9994           0
     41475 TIP3     4280     TIP3     H1       HT       0.417000       1.00800           0
     41476 TIP3     4280     TIP3     H2       HT       0.417000       1.00800           0
     41477 TIP3     4281     TIP3     OH2      OT      -0.834000       15.9994           0
     41478 TIP3     4281     TIP3     H1       HT       0.417000       1.00800           0
     41479 TIP3     4281     TIP3     H2       HT       0.417000       1.00800           0
     41480 TIP3     4282     TIP3     OH2      OT      -0.834000       15.9994           0
     41481 TIP3     4282     TIP3     H1       HT       0.417000       1.00800           0
     41482 TIP3     4282     TIP3     H2       HT       0.417000       1.00800           0
     41483 TIP3     4283     TIP3     OH2      OT      -0.834000       15.9994           0
     41484 TIP3     4283     TIP3     H1       HT       0.417000       1.00800           0
     41485 TIP3     4283     TIP3     H2       HT       0.417000       1.00800           0
     41486 TIP3     4284     TIP3     OH2      OT      -0.834000       15.9994           0
     41487 TIP3     4284     TIP3     H1       HT       0.417000       1.00800           0
     41488 TIP3     4284     TIP3     H2       HT       0.417000       1.00800           0
     41489 TIP3     4285     TIP3     OH2      OT      -0.834000       15.9994           0
     41490 TIP3     4285     TIP3     H1       HT       0.417000       1.00800           0
     41491 TIP3     4285     TIP3     H2       HT       0.417000       1.00800           0
     41492 TIP3     4286     TIP3     OH2      OT      -0.834000       15.9994           0
     41493 TIP3     4286     TIP3     H1       HT       0.417000       1.00800           0
     41494 TIP3     4286     TIP3     H2       HT       0.417000       1.00800           0
     41495 TIP3     4287     TIP3     OH2      OT      -0.834000       15.9994           0
     41496 TIP3     4287     TIP3     H1       HT       0.417000       1.00800           0
     41497 TIP3     4287     TIP3     H2       HT       0.417000       1.00800           0
     41498 TIP3     4288     TIP3     OH2      OT      -0.834000       15.9994           0
     41499 TIP3     4288     TIP3     H1       HT       0.417000       1.00800           0
     41500 TIP3     4288     TIP3     H2       HT       0.417000       1.00800           0
     41501 TIP3     4289     TIP3     OH2      OT      -0.834000       15.9994           0
     41502 TIP3     4289     TIP3     H1       HT       0.417000       1.00800           0
     41503 TIP3     4289     TIP3     H2       HT       0.417000       1.00800           0
     41504 TIP3     4290     TIP3     OH2      OT      -0.834000       15.9994           0
     41505 TIP3     4290     TIP3     H1       HT       0.417000       1.00800           0
     41506 TIP3     4290     TIP3     H2       HT       0.417000       1.00800           0
     41507 TIP3     4291     TIP3     OH2      OT      -0.834000       15.9994           0
     41508 TIP3     4291     TIP3     H1       HT       0.417000       1.00800           0
     41509 TIP3     4291     TIP3     H2       HT       0.417000       1.00800           0
     41510 TIP3     4292     TIP3     OH2      OT      -0.834000       15.9994           0
     41511 TIP3     4292     TIP3     H1       HT       0.417000       1.00800           0
     41512 TIP3     4292     TIP3     H2       HT       0.417000       1.00800           0
     41513 TIP3     4293     TIP3     OH2      OT      -0.834000       15.9994           0
     41514 TIP3     4293     TIP3     H1       HT       0.417000       1.00800           0
     41515 TIP3     4293     TIP3     H2       HT       0.417000       1.00800           0
     41516 TIP3     4294     TIP3     OH2      OT      -0.834000       15.9994           0
     41517 TIP3     4294     TIP3     H1       HT       0.417000       1.00800           0
     41518 TIP3     4294     TIP3     H2       HT       0.417000       1.00800           0
     41519 TIP3     4295     TIP3     OH2      OT      -0.834000       15.9994           0
     41520 TIP3     4295     TIP3     H1       HT       0.417000       1.00800           0
     41521 TIP3     4295     TIP3     H2       HT       0.417000       1.00800           0
     41522 TIP3     4296     TIP3     OH2      OT      -0.834000       15.9994           0
     41523 TIP3     4296     TIP3     H1       HT       0.417000       1.00800           0
     41524 TIP3     4296     TIP3     H2       HT       0.417000       1.00800           0
     41525 TIP3     4297     TIP3     OH2      OT      -0.834000       15.9994           0
     41526 TIP3     4297     TIP3     H1       HT       0.417000       1.00800           0
     41527 TIP3     4297     TIP3     H2       HT       0.417000       1.00800           0
     41528 TIP3     4298     TIP3     OH2      OT      -0.834000       15.9994           0
     41529 TIP3     4298     TIP3     H1       HT       0.417000       1.00800           0
     41530 TIP3     4298     TIP3     H2       HT       0.417000       1.00800           0
     41531 TIP3     4299     TIP3     OH2      OT      -0.834000       15.9994           0
     41532 TIP3     4299     TIP3     H1       HT       0.417000       1.00800           0
     41533 TIP3     4299     TIP3     H2       HT       0.417000       1.00800           0
     41534 TIP3     4300     TIP3     OH2      OT      -0.834000       15.9994           0
     41535 TIP3     4300     TIP3     H1       HT       0.417000       1.00800           0
     41536 TIP3     4300     TIP3     H2       HT       0.417000       1.00800           0
     41537 TIP3     4301     TIP3     OH2      OT      -0.834000       15.9994           0
     41538 TIP3     4301     TIP3     H1       HT       0.417000       1.00800           0
     41539 TIP3     4301     TIP3     H2       HT       0.417000       1.00800           0
     41540 TIP3     4302     TIP3     OH2      OT      -0.834000       15.9994           0
     41541 TIP3     4302     TIP3     H1       HT       0.417000       1.00800           0
     41542 TIP3     4302     TIP3     H2       HT       0.417000       1.00800           0
     41543 TIP3     4303     TIP3     OH2      OT      -0.834000       15.9994           0
     41544 TIP3     4303     TIP3     H1       HT       0.417000       1.00800           0
     41545 TIP3     4303     TIP3     H2       HT       0.417000       1.00800           0
     41546 TIP3     4304     TIP3     OH2      OT      -0.834000       15.9994           0
     41547 TIP3     4304     TIP3     H1       HT       0.417000       1.00800           0
     41548 TIP3     4304     TIP3     H2       HT       0.417000       1.00800           0
     41549 TIP3     4305     TIP3     OH2      OT      -0.834000       15.9994           0
     41550 TIP3     4305     TIP3     H1       HT       0.417000       1.00800           0
     41551 TIP3     4305     TIP3     H2       HT       0.417000       1.00800           0
     41552 TIP3     4306     TIP3     OH2      OT      -0.834000       15.9994           0
     41553 TIP3     4306     TIP3     H1       HT       0.417000       1.00800           0
     41554 TIP3     4306     TIP3     H2       HT       0.417000       1.00800           0
     41555 TIP3     4307     TIP3     OH2      OT      -0.834000       15.9994           0
     41556 TIP3     4307     TIP3     H1       HT       0.417000       1.00800           0
     41557 TIP3     4307     TIP3     H2       HT       0.417000       1.00800           0
     41558 TIP3     4308     TIP3     OH2      OT      -0.834000       15.9994           0
     41559 TIP3     4308     TIP3     H1       HT       0.417000       1.00800           0
     41560 TIP3     4308     TIP3     H2       HT       0.417000       1.00800           0
     41561 TIP3     4309     TIP3     OH2      OT      -0.834000       15.9994           0
     41562 TIP3     4309     TIP3     H1       HT       0.417000       1.00800           0
     41563 TIP3     4309     TIP3     H2       HT       0.417000       1.00800           0
     41564 TIP3     4310     TIP3     OH2      OT      -0.834000       15.9994           0
     41565 TIP3     4310     TIP3     H1       HT       0.417000       1.00800           0
     41566 TIP3     4310     TIP3     H2       HT       0.417000       1.00800           0
     41567 TIP3     4311     TIP3     OH2      OT      -0.834000       15.9994           0
     41568 TIP3     4311     TIP3     H1       HT       0.417000       1.00800           0
     41569 TIP3     4311     TIP3     H2       HT       0.417000       1.00800           0
     41570 TIP3     4312     TIP3     OH2      OT      -0.834000       15.9994           0
     41571 TIP3     4312     TIP3     H1       HT       0.417000       1.00800           0
     41572 TIP3     4312     TIP3     H2       HT       0.417000       1.00800           0
     41573 TIP3     4313     TIP3     OH2      OT      -0.834000       15.9994           0
     41574 TIP3     4313     TIP3     H1       HT       0.417000       1.00800           0
     41575 TIP3     4313     TIP3     H2       HT       0.417000       1.00800           0
     41576 TIP3     4314     TIP3     OH2      OT      -0.834000       15.9994           0
     41577 TIP3     4314     TIP3     H1       HT       0.417000       1.00800           0
     41578 TIP3     4314     TIP3     H2       HT       0.417000       1.00800           0
     41579 TIP3     4315     TIP3     OH2      OT      -0.834000       15.9994           0
     41580 TIP3     4315     TIP3     H1       HT       0.417000       1.00800           0
     41581 TIP3     4315     TIP3     H2       HT       0.417000       1.00800           0
     41582 TIP3     4316     TIP3     OH2      OT      -0.834000       15.9994           0
     41583 TIP3     4316     TIP3     H1       HT       0.417000       1.00800           0
     41584 TIP3     4316     TIP3     H2       HT       0.417000       1.00800           0
     41585 TIP3     4317     TIP3     OH2      OT      -0.834000       15.9994           0
     41586 TIP3     4317     TIP3     H1       HT       0.417000       1.00800           0
     41587 TIP3     4317     TIP3     H2       HT       0.417000       1.00800           0
     41588 TIP3     4318     TIP3     OH2      OT      -0.834000       15.9994           0
     41589 TIP3     4318     TIP3     H1       HT       0.417000       1.00800           0
     41590 TIP3     4318     TIP3     H2       HT       0.417000       1.00800           0
     41591 TIP3     4319     TIP3     OH2      OT      -0.834000       15.9994           0
     41592 TIP3     4319     TIP3     H1       HT       0.417000       1.00800           0
     41593 TIP3     4319     TIP3     H2       HT       0.417000       1.00800           0
     41594 TIP3     4320     TIP3     OH2      OT      -0.834000       15.9994           0
     41595 TIP3     4320     TIP3     H1       HT       0.417000       1.00800           0
     41596 TIP3     4320     TIP3     H2       HT       0.417000       1.00800           0
     41597 TIP3     4321     TIP3     OH2      OT      -0.834000       15.9994           0
     41598 TIP3     4321     TIP3     H1       HT       0.417000       1.00800           0
     41599 TIP3     4321     TIP3     H2       HT       0.417000       1.00800           0
     41600 TIP3     4322     TIP3     OH2      OT      -0.834000       15.9994           0
     41601 TIP3     4322     TIP3     H1       HT       0.417000       1.00800           0
     41602 TIP3     4322     TIP3     H2       HT       0.417000       1.00800           0
     41603 TIP3     4323     TIP3     OH2      OT      -0.834000       15.9994           0
     41604 TIP3     4323     TIP3     H1       HT       0.417000       1.00800           0
     41605 TIP3     4323     TIP3     H2       HT       0.417000       1.00800           0
     41606 TIP3     4324     TIP3     OH2      OT      -0.834000       15.9994           0
     41607 TIP3     4324     TIP3     H1       HT       0.417000       1.00800           0
     41608 TIP3     4324     TIP3     H2       HT       0.417000       1.00800           0
     41609 TIP3     4325     TIP3     OH2      OT      -0.834000       15.9994           0
     41610 TIP3     4325     TIP3     H1       HT       0.417000       1.00800           0
     41611 TIP3     4325     TIP3     H2       HT       0.417000       1.00800           0
     41612 TIP3     4326     TIP3     OH2      OT      -0.834000       15.9994           0
     41613 TIP3     4326     TIP3     H1       HT       0.417000       1.00800           0
     41614 TIP3     4326     TIP3     H2       HT       0.417000       1.00800           0
     41615 TIP3     4327     TIP3     OH2      OT      -0.834000       15.9994           0
     41616 TIP3     4327     TIP3     H1       HT       0.417000       1.00800           0
     41617 TIP3     4327     TIP3     H2       HT       0.417000       1.00800           0
     41618 TIP3     4328     TIP3     OH2      OT      -0.834000       15.9994           0
     41619 TIP3     4328     TIP3     H1       HT       0.417000       1.00800           0
     41620 TIP3     4328     TIP3     H2       HT       0.417000       1.00800           0
     41621 TIP3     4329     TIP3     OH2      OT      -0.834000       15.9994           0
     41622 TIP3     4329     TIP3     H1       HT       0.417000       1.00800           0
     41623 TIP3     4329     TIP3     H2       HT       0.417000       1.00800           0
     41624 TIP3     4330     TIP3     OH2      OT      -0.834000       15.9994           0
     41625 TIP3     4330     TIP3     H1       HT       0.417000       1.00800           0
     41626 TIP3     4330     TIP3     H2       HT       0.417000       1.00800           0
     41627 TIP3     4331     TIP3     OH2      OT      -0.834000       15.9994           0
     41628 TIP3     4331     TIP3     H1       HT       0.417000       1.00800           0
     41629 TIP3     4331     TIP3     H2       HT       0.417000       1.00800           0
     41630 TIP3     4332     TIP3     OH2      OT      -0.834000       15.9994           0
     41631 TIP3     4332     TIP3     H1       HT       0.417000       1.00800           0
     41632 TIP3     4332     TIP3     H2       HT       0.417000       1.00800           0
     41633 TIP3     4333     TIP3     OH2      OT      -0.834000       15.9994           0
     41634 TIP3     4333     TIP3     H1       HT       0.417000       1.00800           0
     41635 TIP3     4333     TIP3     H2       HT       0.417000       1.00800           0
     41636 TIP3     4334     TIP3     OH2      OT      -0.834000       15.9994           0
     41637 TIP3     4334     TIP3     H1       HT       0.417000       1.00800           0
     41638 TIP3     4334     TIP3     H2       HT       0.417000       1.00800           0
     41639 TIP3     4335     TIP3     OH2      OT      -0.834000       15.9994           0
     41640 TIP3     4335     TIP3     H1       HT       0.417000       1.00800           0
     41641 TIP3     4335     TIP3     H2       HT       0.417000       1.00800           0
     41642 TIP3     4336     TIP3     OH2      OT      -0.834000       15.9994           0
     41643 TIP3     4336     TIP3     H1       HT       0.417000       1.00800           0
     41644 TIP3     4336     TIP3     H2       HT       0.417000       1.00800           0
     41645 TIP3     4337     TIP3     OH2      OT      -0.834000       15.9994           0
     41646 TIP3     4337     TIP3     H1       HT       0.417000       1.00800           0
     41647 TIP3     4337     TIP3     H2       HT       0.417000       1.00800           0
     41648 TIP3     4338     TIP3     OH2      OT      -0.834000       15.9994           0
     41649 TIP3     4338     TIP3     H1       HT       0.417000       1.00800           0
     41650 TIP3     4338     TIP3     H2       HT       0.417000       1.00800           0
     41651 TIP3     4339     TIP3     OH2      OT      -0.834000       15.9994           0
     41652 TIP3     4339     TIP3     H1       HT       0.417000       1.00800           0
     41653 TIP3     4339     TIP3     H2       HT       0.417000       1.00800           0
     41654 TIP3     4340     TIP3     OH2      OT      -0.834000       15.9994           0
     41655 TIP3     4340     TIP3     H1       HT       0.417000       1.00800           0
     41656 TIP3     4340     TIP3     H2       HT       0.417000       1.00800           0
     41657 TIP3     4341     TIP3     OH2      OT      -0.834000       15.9994           0
     41658 TIP3     4341     TIP3     H1       HT       0.417000       1.00800           0
     41659 TIP3     4341     TIP3     H2       HT       0.417000       1.00800           0
     41660 TIP3     4342     TIP3     OH2      OT      -0.834000       15.9994           0
     41661 TIP3     4342     TIP3     H1       HT       0.417000       1.00800           0
     41662 TIP3     4342     TIP3     H2       HT       0.417000       1.00800           0
     41663 TIP3     4343     TIP3     OH2      OT      -0.834000       15.9994           0
     41664 TIP3     4343     TIP3     H1       HT       0.417000       1.00800           0
     41665 TIP3     4343     TIP3     H2       HT       0.417000       1.00800           0
     41666 TIP3     4344     TIP3     OH2      OT      -0.834000       15.9994           0
     41667 TIP3     4344     TIP3     H1       HT       0.417000       1.00800           0
     41668 TIP3     4344     TIP3     H2       HT       0.417000       1.00800           0
     41669 TIP3     4345     TIP3     OH2      OT      -0.834000       15.9994           0
     41670 TIP3     4345     TIP3     H1       HT       0.417000       1.00800           0
     41671 TIP3     4345     TIP3     H2       HT       0.417000       1.00800           0
     41672 TIP3     4346     TIP3     OH2      OT      -0.834000       15.9994           0
     41673 TIP3     4346     TIP3     H1       HT       0.417000       1.00800           0
     41674 TIP3     4346     TIP3     H2       HT       0.417000       1.00800           0
     41675 TIP3     4347     TIP3     OH2      OT      -0.834000       15.9994           0
     41676 TIP3     4347     TIP3     H1       HT       0.417000       1.00800           0
     41677 TIP3     4347     TIP3     H2       HT       0.417000       1.00800           0
     41678 TIP3     4348     TIP3     OH2      OT      -0.834000       15.9994           0
     41679 TIP3     4348     TIP3     H1       HT       0.417000       1.00800           0
     41680 TIP3     4348     TIP3     H2       HT       0.417000       1.00800           0
     41681 TIP3     4349     TIP3     OH2      OT      -0.834000       15.9994           0
     41682 TIP3     4349     TIP3     H1       HT       0.417000       1.00800           0
     41683 TIP3     4349     TIP3     H2       HT       0.417000       1.00800           0
     41684 TIP3     4350     TIP3     OH2      OT      -0.834000       15.9994           0
     41685 TIP3     4350     TIP3     H1       HT       0.417000       1.00800           0
     41686 TIP3     4350     TIP3     H2       HT       0.417000       1.00800           0
     41687 TIP3     4351     TIP3     OH2      OT      -0.834000       15.9994           0
     41688 TIP3     4351     TIP3     H1       HT       0.417000       1.00800           0
     41689 TIP3     4351     TIP3     H2       HT       0.417000       1.00800           0
     41690 TIP3     4352     TIP3     OH2      OT      -0.834000       15.9994           0
     41691 TIP3     4352     TIP3     H1       HT       0.417000       1.00800           0
     41692 TIP3     4352     TIP3     H2       HT       0.417000       1.00800           0
     41693 TIP3     4353     TIP3     OH2      OT      -0.834000       15.9994           0
     41694 TIP3     4353     TIP3     H1       HT       0.417000       1.00800           0
     41695 TIP3     4353     TIP3     H2       HT       0.417000       1.00800           0
     41696 TIP3     4354     TIP3     OH2      OT      -0.834000       15.9994           0
     41697 TIP3     4354     TIP3     H1       HT       0.417000       1.00800           0
     41698 TIP3     4354     TIP3     H2       HT       0.417000       1.00800           0
     41699 TIP3     4355     TIP3     OH2      OT      -0.834000       15.9994           0
     41700 TIP3     4355     TIP3     H1       HT       0.417000       1.00800           0
     41701 TIP3     4355     TIP3     H2       HT       0.417000       1.00800           0
     41702 TIP3     4356     TIP3     OH2      OT      -0.834000       15.9994           0
     41703 TIP3     4356     TIP3     H1       HT       0.417000       1.00800           0
     41704 TIP3     4356     TIP3     H2       HT       0.417000       1.00800           0
     41705 TIP3     4357     TIP3     OH2      OT      -0.834000       15.9994           0
     41706 TIP3     4357     TIP3     H1       HT       0.417000       1.00800           0
     41707 TIP3     4357     TIP3     H2       HT       0.417000       1.00800           0
     41708 TIP3     4358     TIP3     OH2      OT      -0.834000       15.9994           0
     41709 TIP3     4358     TIP3     H1       HT       0.417000       1.00800           0
     41710 TIP3     4358     TIP3     H2       HT       0.417000       1.00800           0
     41711 TIP3     4359     TIP3     OH2      OT      -0.834000       15.9994           0
     41712 TIP3     4359     TIP3     H1       HT       0.417000       1.00800           0
     41713 TIP3     4359     TIP3     H2       HT       0.417000       1.00800           0
     41714 TIP3     4360     TIP3     OH2      OT      -0.834000       15.9994           0
     41715 TIP3     4360     TIP3     H1       HT       0.417000       1.00800           0
     41716 TIP3     4360     TIP3     H2       HT       0.417000       1.00800           0
     41717 TIP3     4361     TIP3     OH2      OT      -0.834000       15.9994           0
     41718 TIP3     4361     TIP3     H1       HT       0.417000       1.00800           0
     41719 TIP3     4361     TIP3     H2       HT       0.417000       1.00800           0
     41720 TIP3     4362     TIP3     OH2      OT      -0.834000       15.9994           0
     41721 TIP3     4362     TIP3     H1       HT       0.417000       1.00800           0
     41722 TIP3     4362     TIP3     H2       HT       0.417000       1.00800           0
     41723 TIP3     4363     TIP3     OH2      OT      -0.834000       15.9994           0
     41724 TIP3     4363     TIP3     H1       HT       0.417000       1.00800           0
     41725 TIP3     4363     TIP3     H2       HT       0.417000       1.00800           0
     41726 TIP3     4364     TIP3     OH2      OT      -0.834000       15.9994           0
     41727 TIP3     4364     TIP3     H1       HT       0.417000       1.00800           0
     41728 TIP3     4364     TIP3     H2       HT       0.417000       1.00800           0
     41729 TIP3     4365     TIP3     OH2      OT      -0.834000       15.9994           0
     41730 TIP3     4365     TIP3     H1       HT       0.417000       1.00800           0
     41731 TIP3     4365     TIP3     H2       HT       0.417000       1.00800           0
     41732 TIP3     4366     TIP3     OH2      OT      -0.834000       15.9994           0
     41733 TIP3     4366     TIP3     H1       HT       0.417000       1.00800           0
     41734 TIP3     4366     TIP3     H2       HT       0.417000       1.00800           0
     41735 TIP3     4367     TIP3     OH2      OT      -0.834000       15.9994           0
     41736 TIP3     4367     TIP3     H1       HT       0.417000       1.00800           0
     41737 TIP3     4367     TIP3     H2       HT       0.417000       1.00800           0
     41738 TIP3     4368     TIP3     OH2      OT      -0.834000       15.9994           0
     41739 TIP3     4368     TIP3     H1       HT       0.417000       1.00800           0
     41740 TIP3     4368     TIP3     H2       HT       0.417000       1.00800           0
     41741 TIP3     4369     TIP3     OH2      OT      -0.834000       15.9994           0
     41742 TIP3     4369     TIP3     H1       HT       0.417000       1.00800           0
     41743 TIP3     4369     TIP3     H2       HT       0.417000       1.00800           0
     41744 TIP3     4370     TIP3     OH2      OT      -0.834000       15.9994           0
     41745 TIP3     4370     TIP3     H1       HT       0.417000       1.00800           0
     41746 TIP3     4370     TIP3     H2       HT       0.417000       1.00800           0
     41747 TIP3     4371     TIP3     OH2      OT      -0.834000       15.9994           0
     41748 TIP3     4371     TIP3     H1       HT       0.417000       1.00800           0
     41749 TIP3     4371     TIP3     H2       HT       0.417000       1.00800           0
     41750 TIP3     4372     TIP3     OH2      OT      -0.834000       15.9994           0
     41751 TIP3     4372     TIP3     H1       HT       0.417000       1.00800           0
     41752 TIP3     4372     TIP3     H2       HT       0.417000       1.00800           0
     41753 TIP3     4373     TIP3     OH2      OT      -0.834000       15.9994           0
     41754 TIP3     4373     TIP3     H1       HT       0.417000       1.00800           0
     41755 TIP3     4373     TIP3     H2       HT       0.417000       1.00800           0
     41756 TIP3     4374     TIP3     OH2      OT      -0.834000       15.9994           0
     41757 TIP3     4374     TIP3     H1       HT       0.417000       1.00800           0
     41758 TIP3     4374     TIP3     H2       HT       0.417000       1.00800           0
     41759 TIP3     4375     TIP3     OH2      OT      -0.834000       15.9994           0
     41760 TIP3     4375     TIP3     H1       HT       0.417000       1.00800           0
     41761 TIP3     4375     TIP3     H2       HT       0.417000       1.00800           0
     41762 TIP3     4376     TIP3     OH2      OT      -0.834000       15.9994           0
     41763 TIP3     4376     TIP3     H1       HT       0.417000       1.00800           0
     41764 TIP3     4376     TIP3     H2       HT       0.417000       1.00800           0
     41765 TIP3     4377     TIP3     OH2      OT      -0.834000       15.9994           0
     41766 TIP3     4377     TIP3     H1       HT       0.417000       1.00800           0
     41767 TIP3     4377     TIP3     H2       HT       0.417000       1.00800           0
     41768 TIP3     4378     TIP3     OH2      OT      -0.834000       15.9994           0
     41769 TIP3     4378     TIP3     H1       HT       0.417000       1.00800           0
     41770 TIP3     4378     TIP3     H2       HT       0.417000       1.00800           0
     41771 TIP3     4379     TIP3     OH2      OT      -0.834000       15.9994           0
     41772 TIP3     4379     TIP3     H1       HT       0.417000       1.00800           0
     41773 TIP3     4379     TIP3     H2       HT       0.417000       1.00800           0
     41774 TIP3     4380     TIP3     OH2      OT      -0.834000       15.9994           0
     41775 TIP3     4380     TIP3     H1       HT       0.417000       1.00800           0
     41776 TIP3     4380     TIP3     H2       HT       0.417000       1.00800           0
     41777 TIP3     4381     TIP3     OH2      OT      -0.834000       15.9994           0
     41778 TIP3     4381     TIP3     H1       HT       0.417000       1.00800           0
     41779 TIP3     4381     TIP3     H2       HT       0.417000       1.00800           0
     41780 TIP3     4382     TIP3     OH2      OT      -0.834000       15.9994           0
     41781 TIP3     4382     TIP3     H1       HT       0.417000       1.00800           0
     41782 TIP3     4382     TIP3     H2       HT       0.417000       1.00800           0
     41783 TIP3     4383     TIP3     OH2      OT      -0.834000       15.9994           0
     41784 TIP3     4383     TIP3     H1       HT       0.417000       1.00800           0
     41785 TIP3     4383     TIP3     H2       HT       0.417000       1.00800           0
     41786 TIP3     4384     TIP3     OH2      OT      -0.834000       15.9994           0
     41787 TIP3     4384     TIP3     H1       HT       0.417000       1.00800           0
     41788 TIP3     4384     TIP3     H2       HT       0.417000       1.00800           0
     41789 TIP3     4385     TIP3     OH2      OT      -0.834000       15.9994           0
     41790 TIP3     4385     TIP3     H1       HT       0.417000       1.00800           0
     41791 TIP3     4385     TIP3     H2       HT       0.417000       1.00800           0
     41792 TIP3     4386     TIP3     OH2      OT      -0.834000       15.9994           0
     41793 TIP3     4386     TIP3     H1       HT       0.417000       1.00800           0
     41794 TIP3     4386     TIP3     H2       HT       0.417000       1.00800           0
     41795 TIP3     4387     TIP3     OH2      OT      -0.834000       15.9994           0
     41796 TIP3     4387     TIP3     H1       HT       0.417000       1.00800           0
     41797 TIP3     4387     TIP3     H2       HT       0.417000       1.00800           0
     41798 TIP3     4388     TIP3     OH2      OT      -0.834000       15.9994           0
     41799 TIP3     4388     TIP3     H1       HT       0.417000       1.00800           0
     41800 TIP3     4388     TIP3     H2       HT       0.417000       1.00800           0
     41801 TIP3     4389     TIP3     OH2      OT      -0.834000       15.9994           0
     41802 TIP3     4389     TIP3     H1       HT       0.417000       1.00800           0
     41803 TIP3     4389     TIP3     H2       HT       0.417000       1.00800           0
     41804 TIP3     4390     TIP3     OH2      OT      -0.834000       15.9994           0
     41805 TIP3     4390     TIP3     H1       HT       0.417000       1.00800           0
     41806 TIP3     4390     TIP3     H2       HT       0.417000       1.00800           0
     41807 TIP3     4391     TIP3     OH2      OT      -0.834000       15.9994           0
     41808 TIP3     4391     TIP3     H1       HT       0.417000       1.00800           0
     41809 TIP3     4391     TIP3     H2       HT       0.417000       1.00800           0
     41810 TIP3     4392     TIP3     OH2      OT      -0.834000       15.9994           0
     41811 TIP3     4392     TIP3     H1       HT       0.417000       1.00800           0
     41812 TIP3     4392     TIP3     H2       HT       0.417000       1.00800           0
     41813 TIP3     4393     TIP3     OH2      OT      -0.834000       15.9994           0
     41814 TIP3     4393     TIP3     H1       HT       0.417000       1.00800           0
     41815 TIP3     4393     TIP3     H2       HT       0.417000       1.00800           0
     41816 TIP3     4394     TIP3     OH2      OT      -0.834000       15.9994           0
     41817 TIP3     4394     TIP3     H1       HT       0.417000       1.00800           0
     41818 TIP3     4394     TIP3     H2       HT       0.417000       1.00800           0
     41819 TIP3     4395     TIP3     OH2      OT      -0.834000       15.9994           0
     41820 TIP3     4395     TIP3     H1       HT       0.417000       1.00800           0
     41821 TIP3     4395     TIP3     H2       HT       0.417000       1.00800           0
     41822 TIP3     4396     TIP3     OH2      OT      -0.834000       15.9994           0
     41823 TIP3     4396     TIP3     H1       HT       0.417000       1.00800           0
     41824 TIP3     4396     TIP3     H2       HT       0.417000       1.00800           0
     41825 TIP3     4397     TIP3     OH2      OT      -0.834000       15.9994           0
     41826 TIP3     4397     TIP3     H1       HT       0.417000       1.00800           0
     41827 TIP3     4397     TIP3     H2       HT       0.417000       1.00800           0
     41828 TIP3     4398     TIP3     OH2      OT      -0.834000       15.9994           0
     41829 TIP3     4398     TIP3     H1       HT       0.417000       1.00800           0
     41830 TIP3     4398     TIP3     H2       HT       0.417000       1.00800           0
     41831 TIP3     4399     TIP3     OH2      OT      -0.834000       15.9994           0
     41832 TIP3     4399     TIP3     H1       HT       0.417000       1.00800           0
     41833 TIP3     4399     TIP3     H2       HT       0.417000       1.00800           0
     41834 TIP3     4400     TIP3     OH2      OT      -0.834000       15.9994           0
     41835 TIP3     4400     TIP3     H1       HT       0.417000       1.00800           0
     41836 TIP3     4400     TIP3     H2       HT       0.417000       1.00800           0
     41837 TIP3     4401     TIP3     OH2      OT      -0.834000       15.9994           0
     41838 TIP3     4401     TIP3     H1       HT       0.417000       1.00800           0
     41839 TIP3     4401     TIP3     H2       HT       0.417000       1.00800           0
     41840 TIP3     4402     TIP3     OH2      OT      -0.834000       15.9994           0
     41841 TIP3     4402     TIP3     H1       HT       0.417000       1.00800           0
     41842 TIP3     4402     TIP3     H2       HT       0.417000       1.00800           0
     41843 TIP3     4403     TIP3     OH2      OT      -0.834000       15.9994           0
     41844 TIP3     4403     TIP3     H1       HT       0.417000       1.00800           0
     41845 TIP3     4403     TIP3     H2       HT       0.417000       1.00800           0
     41846 TIP3     4404     TIP3     OH2      OT      -0.834000       15.9994           0
     41847 TIP3     4404     TIP3     H1       HT       0.417000       1.00800           0
     41848 TIP3     4404     TIP3     H2       HT       0.417000       1.00800           0
     41849 TIP3     4405     TIP3     OH2      OT      -0.834000       15.9994           0
     41850 TIP3     4405     TIP3     H1       HT       0.417000       1.00800           0
     41851 TIP3     4405     TIP3     H2       HT       0.417000       1.00800           0
     41852 TIP3     4406     TIP3     OH2      OT      -0.834000       15.9994           0
     41853 TIP3     4406     TIP3     H1       HT       0.417000       1.00800           0
     41854 TIP3     4406     TIP3     H2       HT       0.417000       1.00800           0
     41855 TIP3     4407     TIP3     OH2      OT      -0.834000       15.9994           0
     41856 TIP3     4407     TIP3     H1       HT       0.417000       1.00800           0
     41857 TIP3     4407     TIP3     H2       HT       0.417000       1.00800           0
     41858 TIP3     4408     TIP3     OH2      OT      -0.834000       15.9994           0
     41859 TIP3     4408     TIP3     H1       HT       0.417000       1.00800           0
     41860 TIP3     4408     TIP3     H2       HT       0.417000       1.00800           0
     41861 TIP3     4409     TIP3     OH2      OT      -0.834000       15.9994           0
     41862 TIP3     4409     TIP3     H1       HT       0.417000       1.00800           0
     41863 TIP3     4409     TIP3     H2       HT       0.417000       1.00800           0
     41864 TIP3     4410     TIP3     OH2      OT      -0.834000       15.9994           0
     41865 TIP3     4410     TIP3     H1       HT       0.417000       1.00800           0
     41866 TIP3     4410     TIP3     H2       HT       0.417000       1.00800           0
     41867 TIP3     4411     TIP3     OH2      OT      -0.834000       15.9994           0
     41868 TIP3     4411     TIP3     H1       HT       0.417000       1.00800           0
     41869 TIP3     4411     TIP3     H2       HT       0.417000       1.00800           0
     41870 TIP3     4412     TIP3     OH2      OT      -0.834000       15.9994           0
     41871 TIP3     4412     TIP3     H1       HT       0.417000       1.00800           0
     41872 TIP3     4412     TIP3     H2       HT       0.417000       1.00800           0
     41873 TIP3     4413     TIP3     OH2      OT      -0.834000       15.9994           0
     41874 TIP3     4413     TIP3     H1       HT       0.417000       1.00800           0
     41875 TIP3     4413     TIP3     H2       HT       0.417000       1.00800           0
     41876 TIP3     4414     TIP3     OH2      OT      -0.834000       15.9994           0
     41877 TIP3     4414     TIP3     H1       HT       0.417000       1.00800           0
     41878 TIP3     4414     TIP3     H2       HT       0.417000       1.00800           0
     41879 TIP3     4415     TIP3     OH2      OT      -0.834000       15.9994           0
     41880 TIP3     4415     TIP3     H1       HT       0.417000       1.00800           0
     41881 TIP3     4415     TIP3     H2       HT       0.417000       1.00800           0
     41882 TIP3     4416     TIP3     OH2      OT      -0.834000       15.9994           0
     41883 TIP3     4416     TIP3     H1       HT       0.417000       1.00800           0
     41884 TIP3     4416     TIP3     H2       HT       0.417000       1.00800           0
     41885 TIP3     4417     TIP3     OH2      OT      -0.834000       15.9994           0
     41886 TIP3     4417     TIP3     H1       HT       0.417000       1.00800           0
     41887 TIP3     4417     TIP3     H2       HT       0.417000       1.00800           0
     41888 TIP3     4418     TIP3     OH2      OT      -0.834000       15.9994           0
     41889 TIP3     4418     TIP3     H1       HT       0.417000       1.00800           0
     41890 TIP3     4418     TIP3     H2       HT       0.417000       1.00800           0
     41891 TIP3     4419     TIP3     OH2      OT      -0.834000       15.9994           0
     41892 TIP3     4419     TIP3     H1       HT       0.417000       1.00800           0
     41893 TIP3     4419     TIP3     H2       HT       0.417000       1.00800           0
     41894 TIP3     4420     TIP3     OH2      OT      -0.834000       15.9994           0
     41895 TIP3     4420     TIP3     H1       HT       0.417000       1.00800           0
     41896 TIP3     4420     TIP3     H2       HT       0.417000       1.00800           0
     41897 TIP3     4421     TIP3     OH2      OT      -0.834000       15.9994           0
     41898 TIP3     4421     TIP3     H1       HT       0.417000       1.00800           0
     41899 TIP3     4421     TIP3     H2       HT       0.417000       1.00800           0
     41900 TIP3     4422     TIP3     OH2      OT      -0.834000       15.9994           0
     41901 TIP3     4422     TIP3     H1       HT       0.417000       1.00800           0
     41902 TIP3     4422     TIP3     H2       HT       0.417000       1.00800           0
     41903 TIP3     4423     TIP3     OH2      OT      -0.834000       15.9994           0
     41904 TIP3     4423     TIP3     H1       HT       0.417000       1.00800           0
     41905 TIP3     4423     TIP3     H2       HT       0.417000       1.00800           0
     41906 TIP3     4424     TIP3     OH2      OT      -0.834000       15.9994           0
     41907 TIP3     4424     TIP3     H1       HT       0.417000       1.00800           0
     41908 TIP3     4424     TIP3     H2       HT       0.417000       1.00800           0
     41909 TIP3     4425     TIP3     OH2      OT      -0.834000       15.9994           0
     41910 TIP3     4425     TIP3     H1       HT       0.417000       1.00800           0
     41911 TIP3     4425     TIP3     H2       HT       0.417000       1.00800           0
     41912 TIP3     4426     TIP3     OH2      OT      -0.834000       15.9994           0
     41913 TIP3     4426     TIP3     H1       HT       0.417000       1.00800           0
     41914 TIP3     4426     TIP3     H2       HT       0.417000       1.00800           0
     41915 TIP3     4427     TIP3     OH2      OT      -0.834000       15.9994           0
     41916 TIP3     4427     TIP3     H1       HT       0.417000       1.00800           0
     41917 TIP3     4427     TIP3     H2       HT       0.417000       1.00800           0
     41918 TIP3     4428     TIP3     OH2      OT      -0.834000       15.9994           0
     41919 TIP3     4428     TIP3     H1       HT       0.417000       1.00800           0
     41920 TIP3     4428     TIP3     H2       HT       0.417000       1.00800           0
     41921 TIP3     4429     TIP3     OH2      OT      -0.834000       15.9994           0
     41922 TIP3     4429     TIP3     H1       HT       0.417000       1.00800           0
     41923 TIP3     4429     TIP3     H2       HT       0.417000       1.00800           0
     41924 TIP3     4430     TIP3     OH2      OT      -0.834000       15.9994           0
     41925 TIP3     4430     TIP3     H1       HT       0.417000       1.00800           0
     41926 TIP3     4430     TIP3     H2       HT       0.417000       1.00800           0
     41927 TIP3     4431     TIP3     OH2      OT      -0.834000       15.9994           0
     41928 TIP3     4431     TIP3     H1       HT       0.417000       1.00800           0
     41929 TIP3     4431     TIP3     H2       HT       0.417000       1.00800           0
     41930 TIP3     4432     TIP3     OH2      OT      -0.834000       15.9994           0
     41931 TIP3     4432     TIP3     H1       HT       0.417000       1.00800           0
     41932 TIP3     4432     TIP3     H2       HT       0.417000       1.00800           0
     41933 TIP3     4433     TIP3     OH2      OT      -0.834000       15.9994           0
     41934 TIP3     4433     TIP3     H1       HT       0.417000       1.00800           0
     41935 TIP3     4433     TIP3     H2       HT       0.417000       1.00800           0
     41936 TIP3     4434     TIP3     OH2      OT      -0.834000       15.9994           0
     41937 TIP3     4434     TIP3     H1       HT       0.417000       1.00800           0
     41938 TIP3     4434     TIP3     H2       HT       0.417000       1.00800           0
     41939 TIP3     4435     TIP3     OH2      OT      -0.834000       15.9994           0
     41940 TIP3     4435     TIP3     H1       HT       0.417000       1.00800           0
     41941 TIP3     4435     TIP3     H2       HT       0.417000       1.00800           0
     41942 TIP3     4436     TIP3     OH2      OT      -0.834000       15.9994           0
     41943 TIP3     4436     TIP3     H1       HT       0.417000       1.00800           0
     41944 TIP3     4436     TIP3     H2       HT       0.417000       1.00800           0
     41945 TIP3     4437     TIP3     OH2      OT      -0.834000       15.9994           0
     41946 TIP3     4437     TIP3     H1       HT       0.417000       1.00800           0
     41947 TIP3     4437     TIP3     H2       HT       0.417000       1.00800           0
     41948 TIP3     4438     TIP3     OH2      OT      -0.834000       15.9994           0
     41949 TIP3     4438     TIP3     H1       HT       0.417000       1.00800           0
     41950 TIP3     4438     TIP3     H2       HT       0.417000       1.00800           0
     41951 TIP3     4439     TIP3     OH2      OT      -0.834000       15.9994           0
     41952 TIP3     4439     TIP3     H1       HT       0.417000       1.00800           0
     41953 TIP3     4439     TIP3     H2       HT       0.417000       1.00800           0
     41954 TIP3     4440     TIP3     OH2      OT      -0.834000       15.9994           0
     41955 TIP3     4440     TIP3     H1       HT       0.417000       1.00800           0
     41956 TIP3     4440     TIP3     H2       HT       0.417000       1.00800           0
     41957 TIP3     4441     TIP3     OH2      OT      -0.834000       15.9994           0
     41958 TIP3     4441     TIP3     H1       HT       0.417000       1.00800           0
     41959 TIP3     4441     TIP3     H2       HT       0.417000       1.00800           0
     41960 TIP3     4442     TIP3     OH2      OT      -0.834000       15.9994           0
     41961 TIP3     4442     TIP3     H1       HT       0.417000       1.00800           0
     41962 TIP3     4442     TIP3     H2       HT       0.417000       1.00800           0
     41963 TIP3     4443     TIP3     OH2      OT      -0.834000       15.9994           0
     41964 TIP3     4443     TIP3     H1       HT       0.417000       1.00800           0
     41965 TIP3     4443     TIP3     H2       HT       0.417000       1.00800           0
     41966 TIP3     4444     TIP3     OH2      OT      -0.834000       15.9994           0
     41967 TIP3     4444     TIP3     H1       HT       0.417000       1.00800           0
     41968 TIP3     4444     TIP3     H2       HT       0.417000       1.00800           0
     41969 TIP3     4445     TIP3     OH2      OT      -0.834000       15.9994           0
     41970 TIP3     4445     TIP3     H1       HT       0.417000       1.00800           0
     41971 TIP3     4445     TIP3     H2       HT       0.417000       1.00800           0
     41972 TIP3     4446     TIP3     OH2      OT      -0.834000       15.9994           0
     41973 TIP3     4446     TIP3     H1       HT       0.417000       1.00800           0
     41974 TIP3     4446     TIP3     H2       HT       0.417000       1.00800           0
     41975 TIP3     4447     TIP3     OH2      OT      -0.834000       15.9994           0
     41976 TIP3     4447     TIP3     H1       HT       0.417000       1.00800           0
     41977 TIP3     4447     TIP3     H2       HT       0.417000       1.00800           0
     41978 TIP3     4448     TIP3     OH2      OT      -0.834000       15.9994           0
     41979 TIP3     4448     TIP3     H1       HT       0.417000       1.00800           0
     41980 TIP3     4448     TIP3     H2       HT       0.417000       1.00800           0
     41981 TIP3     4449     TIP3     OH2      OT      -0.834000       15.9994           0
     41982 TIP3     4449     TIP3     H1       HT       0.417000       1.00800           0
     41983 TIP3     4449     TIP3     H2       HT       0.417000       1.00800           0
     41984 TIP3     4450     TIP3     OH2      OT      -0.834000       15.9994           0
     41985 TIP3     4450     TIP3     H1       HT       0.417000       1.00800           0
     41986 TIP3     4450     TIP3     H2       HT       0.417000       1.00800           0
     41987 TIP3     4451     TIP3     OH2      OT      -0.834000       15.9994           0
     41988 TIP3     4451     TIP3     H1       HT       0.417000       1.00800           0
     41989 TIP3     4451     TIP3     H2       HT       0.417000       1.00800           0
     41990 TIP3     4452     TIP3     OH2      OT      -0.834000       15.9994           0
     41991 TIP3     4452     TIP3     H1       HT       0.417000       1.00800           0
     41992 TIP3     4452     TIP3     H2       HT       0.417000       1.00800           0
     41993 TIP3     4453     TIP3     OH2      OT      -0.834000       15.9994           0
     41994 TIP3     4453     TIP3     H1       HT       0.417000       1.00800           0
     41995 TIP3     4453     TIP3     H2       HT       0.417000       1.00800           0
     41996 TIP3     4454     TIP3     OH2      OT      -0.834000       15.9994           0
     41997 TIP3     4454     TIP3     H1       HT       0.417000       1.00800           0
     41998 TIP3     4454     TIP3     H2       HT       0.417000       1.00800           0
     41999 TIP3     4455     TIP3     OH2      OT      -0.834000       15.9994           0
     42000 TIP3     4455     TIP3     H1       HT       0.417000       1.00800           0
     42001 TIP3     4455     TIP3     H2       HT       0.417000       1.00800           0
     42002 TIP3     4456     TIP3     OH2      OT      -0.834000       15.9994           0
     42003 TIP3     4456     TIP3     H1       HT       0.417000       1.00800           0
     42004 TIP3     4456     TIP3     H2       HT       0.417000       1.00800           0
     42005 TIP3     4457     TIP3     OH2      OT      -0.834000       15.9994           0
     42006 TIP3     4457     TIP3     H1       HT       0.417000       1.00800           0
     42007 TIP3     4457     TIP3     H2       HT       0.417000       1.00800           0
     42008 TIP3     4458     TIP3     OH2      OT      -0.834000       15.9994           0
     42009 TIP3     4458     TIP3     H1       HT       0.417000       1.00800           0
     42010 TIP3     4458     TIP3     H2       HT       0.417000       1.00800           0
     42011 TIP3     4459     TIP3     OH2      OT      -0.834000       15.9994           0
     42012 TIP3     4459     TIP3     H1       HT       0.417000       1.00800           0
     42013 TIP3     4459     TIP3     H2       HT       0.417000       1.00800           0
     42014 TIP3     4460     TIP3     OH2      OT      -0.834000       15.9994           0
     42015 TIP3     4460     TIP3     H1       HT       0.417000       1.00800           0
     42016 TIP3     4460     TIP3     H2       HT       0.417000       1.00800           0
     42017 TIP3     4461     TIP3     OH2      OT      -0.834000       15.9994           0
     42018 TIP3     4461     TIP3     H1       HT       0.417000       1.00800           0
     42019 TIP3     4461     TIP3     H2       HT       0.417000       1.00800           0
     42020 TIP3     4462     TIP3     OH2      OT      -0.834000       15.9994           0
     42021 TIP3     4462     TIP3     H1       HT       0.417000       1.00800           0
     42022 TIP3     4462     TIP3     H2       HT       0.417000       1.00800           0
     42023 TIP3     4463     TIP3     OH2      OT      -0.834000       15.9994           0
     42024 TIP3     4463     TIP3     H1       HT       0.417000       1.00800           0
     42025 TIP3     4463     TIP3     H2       HT       0.417000       1.00800           0
     42026 TIP3     4464     TIP3     OH2      OT      -0.834000       15.9994           0
     42027 TIP3     4464     TIP3     H1       HT       0.417000       1.00800           0
     42028 TIP3     4464     TIP3     H2       HT       0.417000       1.00800           0
     42029 TIP3     4465     TIP3     OH2      OT      -0.834000       15.9994           0
     42030 TIP3     4465     TIP3     H1       HT       0.417000       1.00800           0
     42031 TIP3     4465     TIP3     H2       HT       0.417000       1.00800           0
     42032 TIP3     4466     TIP3     OH2      OT      -0.834000       15.9994           0
     42033 TIP3     4466     TIP3     H1       HT       0.417000       1.00800           0
     42034 TIP3     4466     TIP3     H2       HT       0.417000       1.00800           0
     42035 TIP3     4467     TIP3     OH2      OT      -0.834000       15.9994           0
     42036 TIP3     4467     TIP3     H1       HT       0.417000       1.00800           0
     42037 TIP3     4467     TIP3     H2       HT       0.417000       1.00800           0
     42038 TIP3     4468     TIP3     OH2      OT      -0.834000       15.9994           0
     42039 TIP3     4468     TIP3     H1       HT       0.417000       1.00800           0
     42040 TIP3     4468     TIP3     H2       HT       0.417000       1.00800           0
     42041 TIP3     4469     TIP3     OH2      OT      -0.834000       15.9994           0
     42042 TIP3     4469     TIP3     H1       HT       0.417000       1.00800           0
     42043 TIP3     4469     TIP3     H2       HT       0.417000       1.00800           0
     42044 TIP3     4470     TIP3     OH2      OT      -0.834000       15.9994           0
     42045 TIP3     4470     TIP3     H1       HT       0.417000       1.00800           0
     42046 TIP3     4470     TIP3     H2       HT       0.417000       1.00800           0
     42047 TIP3     4471     TIP3     OH2      OT      -0.834000       15.9994           0
     42048 TIP3     4471     TIP3     H1       HT       0.417000       1.00800           0
     42049 TIP3     4471     TIP3     H2       HT       0.417000       1.00800           0
     42050 TIP3     4472     TIP3     OH2      OT      -0.834000       15.9994           0
     42051 TIP3     4472     TIP3     H1       HT       0.417000       1.00800           0
     42052 TIP3     4472     TIP3     H2       HT       0.417000       1.00800           0
     42053 TIP3     4473     TIP3     OH2      OT      -0.834000       15.9994           0
     42054 TIP3     4473     TIP3     H1       HT       0.417000       1.00800           0
     42055 TIP3     4473     TIP3     H2       HT       0.417000       1.00800           0
     42056 TIP3     4474     TIP3     OH2      OT      -0.834000       15.9994           0
     42057 TIP3     4474     TIP3     H1       HT       0.417000       1.00800           0
     42058 TIP3     4474     TIP3     H2       HT       0.417000       1.00800           0
     42059 TIP3     4475     TIP3     OH2      OT      -0.834000       15.9994           0
     42060 TIP3     4475     TIP3     H1       HT       0.417000       1.00800           0
     42061 TIP3     4475     TIP3     H2       HT       0.417000       1.00800           0
     42062 TIP3     4476     TIP3     OH2      OT      -0.834000       15.9994           0
     42063 TIP3     4476     TIP3     H1       HT       0.417000       1.00800           0
     42064 TIP3     4476     TIP3     H2       HT       0.417000       1.00800           0
     42065 TIP3     4477     TIP3     OH2      OT      -0.834000       15.9994           0
     42066 TIP3     4477     TIP3     H1       HT       0.417000       1.00800           0
     42067 TIP3     4477     TIP3     H2       HT       0.417000       1.00800           0
     42068 TIP3     4478     TIP3     OH2      OT      -0.834000       15.9994           0
     42069 TIP3     4478     TIP3     H1       HT       0.417000       1.00800           0
     42070 TIP3     4478     TIP3     H2       HT       0.417000       1.00800           0
     42071 TIP3     4479     TIP3     OH2      OT      -0.834000       15.9994           0
     42072 TIP3     4479     TIP3     H1       HT       0.417000       1.00800           0
     42073 TIP3     4479     TIP3     H2       HT       0.417000       1.00800           0
     42074 TIP3     4480     TIP3     OH2      OT      -0.834000       15.9994           0
     42075 TIP3     4480     TIP3     H1       HT       0.417000       1.00800           0
     42076 TIP3     4480     TIP3     H2       HT       0.417000       1.00800           0
     42077 TIP3     4481     TIP3     OH2      OT      -0.834000       15.9994           0
     42078 TIP3     4481     TIP3     H1       HT       0.417000       1.00800           0
     42079 TIP3     4481     TIP3     H2       HT       0.417000       1.00800           0
     42080 TIP3     4482     TIP3     OH2      OT      -0.834000       15.9994           0
     42081 TIP3     4482     TIP3     H1       HT       0.417000       1.00800           0
     42082 TIP3     4482     TIP3     H2       HT       0.417000       1.00800           0
     42083 TIP3     4483     TIP3     OH2      OT      -0.834000       15.9994           0
     42084 TIP3     4483     TIP3     H1       HT       0.417000       1.00800           0
     42085 TIP3     4483     TIP3     H2       HT       0.417000       1.00800           0
     42086 TIP3     4484     TIP3     OH2      OT      -0.834000       15.9994           0
     42087 TIP3     4484     TIP3     H1       HT       0.417000       1.00800           0
     42088 TIP3     4484     TIP3     H2       HT       0.417000       1.00800           0
     42089 TIP3     4485     TIP3     OH2      OT      -0.834000       15.9994           0
     42090 TIP3     4485     TIP3     H1       HT       0.417000       1.00800           0
     42091 TIP3     4485     TIP3     H2       HT       0.417000       1.00800           0
     42092 TIP3     4486     TIP3     OH2      OT      -0.834000       15.9994           0
     42093 TIP3     4486     TIP3     H1       HT       0.417000       1.00800           0
     42094 TIP3     4486     TIP3     H2       HT       0.417000       1.00800           0
     42095 TIP3     4487     TIP3     OH2      OT      -0.834000       15.9994           0
     42096 TIP3     4487     TIP3     H1       HT       0.417000       1.00800           0
     42097 TIP3     4487     TIP3     H2       HT       0.417000       1.00800           0
     42098 TIP3     4488     TIP3     OH2      OT      -0.834000       15.9994           0
     42099 TIP3     4488     TIP3     H1       HT       0.417000       1.00800           0
     42100 TIP3     4488     TIP3     H2       HT       0.417000       1.00800           0
     42101 TIP3     4489     TIP3     OH2      OT      -0.834000       15.9994           0
     42102 TIP3     4489     TIP3     H1       HT       0.417000       1.00800           0
     42103 TIP3     4489     TIP3     H2       HT       0.417000       1.00800           0
     42104 TIP3     4490     TIP3     OH2      OT      -0.834000       15.9994           0
     42105 TIP3     4490     TIP3     H1       HT       0.417000       1.00800           0
     42106 TIP3     4490     TIP3     H2       HT       0.417000       1.00800           0
     42107 TIP3     4491     TIP3     OH2      OT      -0.834000       15.9994           0
     42108 TIP3     4491     TIP3     H1       HT       0.417000       1.00800           0
     42109 TIP3     4491     TIP3     H2       HT       0.417000       1.00800           0
     42110 TIP3     4492     TIP3     OH2      OT      -0.834000       15.9994           0
     42111 TIP3     4492     TIP3     H1       HT       0.417000       1.00800           0
     42112 TIP3     4492     TIP3     H2       HT       0.417000       1.00800           0
     42113 TIP3     4493     TIP3     OH2      OT      -0.834000       15.9994           0
     42114 TIP3     4493     TIP3     H1       HT       0.417000       1.00800           0
     42115 TIP3     4493     TIP3     H2       HT       0.417000       1.00800           0
     42116 TIP3     4494     TIP3     OH2      OT      -0.834000       15.9994           0
     42117 TIP3     4494     TIP3     H1       HT       0.417000       1.00800           0
     42118 TIP3     4494     TIP3     H2       HT       0.417000       1.00800           0
     42119 TIP3     4495     TIP3     OH2      OT      -0.834000       15.9994           0
     42120 TIP3     4495     TIP3     H1       HT       0.417000       1.00800           0
     42121 TIP3     4495     TIP3     H2       HT       0.417000       1.00800           0
     42122 TIP3     4496     TIP3     OH2      OT      -0.834000       15.9994           0
     42123 TIP3     4496     TIP3     H1       HT       0.417000       1.00800           0
     42124 TIP3     4496     TIP3     H2       HT       0.417000       1.00800           0
     42125 TIP3     4497     TIP3     OH2      OT      -0.834000       15.9994           0
     42126 TIP3     4497     TIP3     H1       HT       0.417000       1.00800           0
     42127 TIP3     4497     TIP3     H2       HT       0.417000       1.00800           0
     42128 TIP3     4498     TIP3     OH2      OT      -0.834000       15.9994           0
     42129 TIP3     4498     TIP3     H1       HT       0.417000       1.00800           0
     42130 TIP3     4498     TIP3     H2       HT       0.417000       1.00800           0
     42131 TIP3     4499     TIP3     OH2      OT      -0.834000       15.9994           0
     42132 TIP3     4499     TIP3     H1       HT       0.417000       1.00800           0
     42133 TIP3     4499     TIP3     H2       HT       0.417000       1.00800           0
     42134 TIP3     4500     TIP3     OH2      OT      -0.834000       15.9994           0
     42135 TIP3     4500     TIP3     H1       HT       0.417000       1.00800           0
     42136 TIP3     4500     TIP3     H2       HT       0.417000       1.00800           0
     42137 TIP3     4501     TIP3     OH2      OT      -0.834000       15.9994           0
     42138 TIP3     4501     TIP3     H1       HT       0.417000       1.00800           0
     42139 TIP3     4501     TIP3     H2       HT       0.417000       1.00800           0
     42140 TIP3     4502     TIP3     OH2      OT      -0.834000       15.9994           0
     42141 TIP3     4502     TIP3     H1       HT       0.417000       1.00800           0
     42142 TIP3     4502     TIP3     H2       HT       0.417000       1.00800           0
     42143 TIP3     4503     TIP3     OH2      OT      -0.834000       15.9994           0
     42144 TIP3     4503     TIP3     H1       HT       0.417000       1.00800           0
     42145 TIP3     4503     TIP3     H2       HT       0.417000       1.00800           0
     42146 TIP3     4504     TIP3     OH2      OT      -0.834000       15.9994           0
     42147 TIP3     4504     TIP3     H1       HT       0.417000       1.00800           0
     42148 TIP3     4504     TIP3     H2       HT       0.417000       1.00800           0
     42149 TIP3     4505     TIP3     OH2      OT      -0.834000       15.9994           0
     42150 TIP3     4505     TIP3     H1       HT       0.417000       1.00800           0
     42151 TIP3     4505     TIP3     H2       HT       0.417000       1.00800           0
     42152 TIP3     4506     TIP3     OH2      OT      -0.834000       15.9994           0
     42153 TIP3     4506     TIP3     H1       HT       0.417000       1.00800           0
     42154 TIP3     4506     TIP3     H2       HT       0.417000       1.00800           0
     42155 TIP3     4507     TIP3     OH2      OT      -0.834000       15.9994           0
     42156 TIP3     4507     TIP3     H1       HT       0.417000       1.00800           0
     42157 TIP3     4507     TIP3     H2       HT       0.417000       1.00800           0
     42158 TIP3     4508     TIP3     OH2      OT      -0.834000       15.9994           0
     42159 TIP3     4508     TIP3     H1       HT       0.417000       1.00800           0
     42160 TIP3     4508     TIP3     H2       HT       0.417000       1.00800           0
     42161 TIP3     4509     TIP3     OH2      OT      -0.834000       15.9994           0
     42162 TIP3     4509     TIP3     H1       HT       0.417000       1.00800           0
     42163 TIP3     4509     TIP3     H2       HT       0.417000       1.00800           0
     42164 TIP3     4510     TIP3     OH2      OT      -0.834000       15.9994           0
     42165 TIP3     4510     TIP3     H1       HT       0.417000       1.00800           0
     42166 TIP3     4510     TIP3     H2       HT       0.417000       1.00800           0
     42167 TIP3     4511     TIP3     OH2      OT      -0.834000       15.9994           0
     42168 TIP3     4511     TIP3     H1       HT       0.417000       1.00800           0
     42169 TIP3     4511     TIP3     H2       HT       0.417000       1.00800           0
     42170 TIP3     4512     TIP3     OH2      OT      -0.834000       15.9994           0
     42171 TIP3     4512     TIP3     H1       HT       0.417000       1.00800           0
     42172 TIP3     4512     TIP3     H2       HT       0.417000       1.00800           0
     42173 TIP3     4513     TIP3     OH2      OT      -0.834000       15.9994           0
     42174 TIP3     4513     TIP3     H1       HT       0.417000       1.00800           0
     42175 TIP3     4513     TIP3     H2       HT       0.417000       1.00800           0
     42176 TIP3     4514     TIP3     OH2      OT      -0.834000       15.9994           0
     42177 TIP3     4514     TIP3     H1       HT       0.417000       1.00800           0
     42178 TIP3     4514     TIP3     H2       HT       0.417000       1.00800           0
     42179 TIP3     4515     TIP3     OH2      OT      -0.834000       15.9994           0
     42180 TIP3     4515     TIP3     H1       HT       0.417000       1.00800           0
     42181 TIP3     4515     TIP3     H2       HT       0.417000       1.00800           0
     42182 TIP3     4516     TIP3     OH2      OT      -0.834000       15.9994           0
     42183 TIP3     4516     TIP3     H1       HT       0.417000       1.00800           0
     42184 TIP3     4516     TIP3     H2       HT       0.417000       1.00800           0
     42185 TIP3     4517     TIP3     OH2      OT      -0.834000       15.9994           0
     42186 TIP3     4517     TIP3     H1       HT       0.417000       1.00800           0
     42187 TIP3     4517     TIP3     H2       HT       0.417000       1.00800           0
     42188 TIP3     4518     TIP3     OH2      OT      -0.834000       15.9994           0
     42189 TIP3     4518     TIP3     H1       HT       0.417000       1.00800           0
     42190 TIP3     4518     TIP3     H2       HT       0.417000       1.00800           0
     42191 TIP3     4519     TIP3     OH2      OT      -0.834000       15.9994           0
     42192 TIP3     4519     TIP3     H1       HT       0.417000       1.00800           0
     42193 TIP3     4519     TIP3     H2       HT       0.417000       1.00800           0
     42194 TIP3     4520     TIP3     OH2      OT      -0.834000       15.9994           0
     42195 TIP3     4520     TIP3     H1       HT       0.417000       1.00800           0
     42196 TIP3     4520     TIP3     H2       HT       0.417000       1.00800           0
     42197 TIP3     4521     TIP3     OH2      OT      -0.834000       15.9994           0
     42198 TIP3     4521     TIP3     H1       HT       0.417000       1.00800           0
     42199 TIP3     4521     TIP3     H2       HT       0.417000       1.00800           0
     42200 TIP3     4522     TIP3     OH2      OT      -0.834000       15.9994           0
     42201 TIP3     4522     TIP3     H1       HT       0.417000       1.00800           0
     42202 TIP3     4522     TIP3     H2       HT       0.417000       1.00800           0
     42203 TIP3     4523     TIP3     OH2      OT      -0.834000       15.9994           0
     42204 TIP3     4523     TIP3     H1       HT       0.417000       1.00800           0
     42205 TIP3     4523     TIP3     H2       HT       0.417000       1.00800           0
     42206 TIP3     4524     TIP3     OH2      OT      -0.834000       15.9994           0
     42207 TIP3     4524     TIP3     H1       HT       0.417000       1.00800           0
     42208 TIP3     4524     TIP3     H2       HT       0.417000       1.00800           0
     42209 TIP3     4525     TIP3     OH2      OT      -0.834000       15.9994           0
     42210 TIP3     4525     TIP3     H1       HT       0.417000       1.00800           0
     42211 TIP3     4525     TIP3     H2       HT       0.417000       1.00800           0
     42212 TIP3     4526     TIP3     OH2      OT      -0.834000       15.9994           0
     42213 TIP3     4526     TIP3     H1       HT       0.417000       1.00800           0
     42214 TIP3     4526     TIP3     H2       HT       0.417000       1.00800           0
     42215 TIP3     4527     TIP3     OH2      OT      -0.834000       15.9994           0
     42216 TIP3     4527     TIP3     H1       HT       0.417000       1.00800           0
     42217 TIP3     4527     TIP3     H2       HT       0.417000       1.00800           0
     42218 TIP3     4528     TIP3     OH2      OT      -0.834000       15.9994           0
     42219 TIP3     4528     TIP3     H1       HT       0.417000       1.00800           0
     42220 TIP3     4528     TIP3     H2       HT       0.417000       1.00800           0
     42221 TIP3     4529     TIP3     OH2      OT      -0.834000       15.9994           0
     42222 TIP3     4529     TIP3     H1       HT       0.417000       1.00800           0
     42223 TIP3     4529     TIP3     H2       HT       0.417000       1.00800           0
     42224 TIP3     4530     TIP3     OH2      OT      -0.834000       15.9994           0
     42225 TIP3     4530     TIP3     H1       HT       0.417000       1.00800           0
     42226 TIP3     4530     TIP3     H2       HT       0.417000       1.00800           0
     42227 TIP3     4531     TIP3     OH2      OT      -0.834000       15.9994           0
     42228 TIP3     4531     TIP3     H1       HT       0.417000       1.00800           0
     42229 TIP3     4531     TIP3     H2       HT       0.417000       1.00800           0
     42230 TIP3     4532     TIP3     OH2      OT      -0.834000       15.9994           0
     42231 TIP3     4532     TIP3     H1       HT       0.417000       1.00800           0
     42232 TIP3     4532     TIP3     H2       HT       0.417000       1.00800           0
     42233 TIP3     4533     TIP3     OH2      OT      -0.834000       15.9994           0
     42234 TIP3     4533     TIP3     H1       HT       0.417000       1.00800           0
     42235 TIP3     4533     TIP3     H2       HT       0.417000       1.00800           0
     42236 TIP3     4534     TIP3     OH2      OT      -0.834000       15.9994           0
     42237 TIP3     4534     TIP3     H1       HT       0.417000       1.00800           0
     42238 TIP3     4534     TIP3     H2       HT       0.417000       1.00800           0
     42239 TIP3     4535     TIP3     OH2      OT      -0.834000       15.9994           0
     42240 TIP3     4535     TIP3     H1       HT       0.417000       1.00800           0
     42241 TIP3     4535     TIP3     H2       HT       0.417000       1.00800           0
     42242 TIP3     4536     TIP3     OH2      OT      -0.834000       15.9994           0
     42243 TIP3     4536     TIP3     H1       HT       0.417000       1.00800           0
     42244 TIP3     4536     TIP3     H2       HT       0.417000       1.00800           0
     42245 TIP3     4537     TIP3     OH2      OT      -0.834000       15.9994           0
     42246 TIP3     4537     TIP3     H1       HT       0.417000       1.00800           0
     42247 TIP3     4537     TIP3     H2       HT       0.417000       1.00800           0
     42248 TIP3     4538     TIP3     OH2      OT      -0.834000       15.9994           0
     42249 TIP3     4538     TIP3     H1       HT       0.417000       1.00800           0
     42250 TIP3     4538     TIP3     H2       HT       0.417000       1.00800           0
     42251 TIP3     4539     TIP3     OH2      OT      -0.834000       15.9994           0
     42252 TIP3     4539     TIP3     H1       HT       0.417000       1.00800           0
     42253 TIP3     4539     TIP3     H2       HT       0.417000       1.00800           0
     42254 TIP3     4540     TIP3     OH2      OT      -0.834000       15.9994           0
     42255 TIP3     4540     TIP3     H1       HT       0.417000       1.00800           0
     42256 TIP3     4540     TIP3     H2       HT       0.417000       1.00800           0
     42257 TIP3     4541     TIP3     OH2      OT      -0.834000       15.9994           0
     42258 TIP3     4541     TIP3     H1       HT       0.417000       1.00800           0
     42259 TIP3     4541     TIP3     H2       HT       0.417000       1.00800           0
     42260 TIP3     4542     TIP3     OH2      OT      -0.834000       15.9994           0
     42261 TIP3     4542     TIP3     H1       HT       0.417000       1.00800           0
     42262 TIP3     4542     TIP3     H2       HT       0.417000       1.00800           0
     42263 TIP3     4543     TIP3     OH2      OT      -0.834000       15.9994           0
     42264 TIP3     4543     TIP3     H1       HT       0.417000       1.00800           0
     42265 TIP3     4543     TIP3     H2       HT       0.417000       1.00800           0
     42266 TIP3     4544     TIP3     OH2      OT      -0.834000       15.9994           0
     42267 TIP3     4544     TIP3     H1       HT       0.417000       1.00800           0
     42268 TIP3     4544     TIP3     H2       HT       0.417000       1.00800           0
     42269 TIP3     4545     TIP3     OH2      OT      -0.834000       15.9994           0
     42270 TIP3     4545     TIP3     H1       HT       0.417000       1.00800           0
     42271 TIP3     4545     TIP3     H2       HT       0.417000       1.00800           0
     42272 TIP3     4546     TIP3     OH2      OT      -0.834000       15.9994           0
     42273 TIP3     4546     TIP3     H1       HT       0.417000       1.00800           0
     42274 TIP3     4546     TIP3     H2       HT       0.417000       1.00800           0
     42275 TIP3     4547     TIP3     OH2      OT      -0.834000       15.9994           0
     42276 TIP3     4547     TIP3     H1       HT       0.417000       1.00800           0
     42277 TIP3     4547     TIP3     H2       HT       0.417000       1.00800           0
     42278 TIP3     4548     TIP3     OH2      OT      -0.834000       15.9994           0
     42279 TIP3     4548     TIP3     H1       HT       0.417000       1.00800           0
     42280 TIP3     4548     TIP3     H2       HT       0.417000       1.00800           0
     42281 TIP3     4549     TIP3     OH2      OT      -0.834000       15.9994           0
     42282 TIP3     4549     TIP3     H1       HT       0.417000       1.00800           0
     42283 TIP3     4549     TIP3     H2       HT       0.417000       1.00800           0
     42284 TIP3     4550     TIP3     OH2      OT      -0.834000       15.9994           0
     42285 TIP3     4550     TIP3     H1       HT       0.417000       1.00800           0
     42286 TIP3     4550     TIP3     H2       HT       0.417000       1.00800           0
     42287 TIP3     4551     TIP3     OH2      OT      -0.834000       15.9994           0
     42288 TIP3     4551     TIP3     H1       HT       0.417000       1.00800           0
     42289 TIP3     4551     TIP3     H2       HT       0.417000       1.00800           0
     42290 TIP3     4552     TIP3     OH2      OT      -0.834000       15.9994           0
     42291 TIP3     4552     TIP3     H1       HT       0.417000       1.00800           0
     42292 TIP3     4552     TIP3     H2       HT       0.417000       1.00800           0
     42293 TIP3     4553     TIP3     OH2      OT      -0.834000       15.9994           0
     42294 TIP3     4553     TIP3     H1       HT       0.417000       1.00800           0
     42295 TIP3     4553     TIP3     H2       HT       0.417000       1.00800           0
     42296 TIP3     4554     TIP3     OH2      OT      -0.834000       15.9994           0
     42297 TIP3     4554     TIP3     H1       HT       0.417000       1.00800           0
     42298 TIP3     4554     TIP3     H2       HT       0.417000       1.00800           0
     42299 TIP3     4555     TIP3     OH2      OT      -0.834000       15.9994           0
     42300 TIP3     4555     TIP3     H1       HT       0.417000       1.00800           0
     42301 TIP3     4555     TIP3     H2       HT       0.417000       1.00800           0
     42302 TIP3     4556     TIP3     OH2      OT      -0.834000       15.9994           0
     42303 TIP3     4556     TIP3     H1       HT       0.417000       1.00800           0
     42304 TIP3     4556     TIP3     H2       HT       0.417000       1.00800           0
     42305 TIP3     4557     TIP3     OH2      OT      -0.834000       15.9994           0
     42306 TIP3     4557     TIP3     H1       HT       0.417000       1.00800           0
     42307 TIP3     4557     TIP3     H2       HT       0.417000       1.00800           0
     42308 TIP3     4558     TIP3     OH2      OT      -0.834000       15.9994           0
     42309 TIP3     4558     TIP3     H1       HT       0.417000       1.00800           0
     42310 TIP3     4558     TIP3     H2       HT       0.417000       1.00800           0
     42311 TIP3     4559     TIP3     OH2      OT      -0.834000       15.9994           0
     42312 TIP3     4559     TIP3     H1       HT       0.417000       1.00800           0
     42313 TIP3     4559     TIP3     H2       HT       0.417000       1.00800           0
     42314 TIP3     4560     TIP3     OH2      OT      -0.834000       15.9994           0
     42315 TIP3     4560     TIP3     H1       HT       0.417000       1.00800           0
     42316 TIP3     4560     TIP3     H2       HT       0.417000       1.00800           0
     42317 TIP3     4561     TIP3     OH2      OT      -0.834000       15.9994           0
     42318 TIP3     4561     TIP3     H1       HT       0.417000       1.00800           0
     42319 TIP3     4561     TIP3     H2       HT       0.417000       1.00800           0
     42320 TIP3     4562     TIP3     OH2      OT      -0.834000       15.9994           0
     42321 TIP3     4562     TIP3     H1       HT       0.417000       1.00800           0
     42322 TIP3     4562     TIP3     H2       HT       0.417000       1.00800           0
     42323 TIP3     4563     TIP3     OH2      OT      -0.834000       15.9994           0
     42324 TIP3     4563     TIP3     H1       HT       0.417000       1.00800           0
     42325 TIP3     4563     TIP3     H2       HT       0.417000       1.00800           0
     42326 TIP3     4564     TIP3     OH2      OT      -0.834000       15.9994           0
     42327 TIP3     4564     TIP3     H1       HT       0.417000       1.00800           0
     42328 TIP3     4564     TIP3     H2       HT       0.417000       1.00800           0
     42329 TIP3     4565     TIP3     OH2      OT      -0.834000       15.9994           0
     42330 TIP3     4565     TIP3     H1       HT       0.417000       1.00800           0
     42331 TIP3     4565     TIP3     H2       HT       0.417000       1.00800           0
     42332 TIP3     4566     TIP3     OH2      OT      -0.834000       15.9994           0
     42333 TIP3     4566     TIP3     H1       HT       0.417000       1.00800           0
     42334 TIP3     4566     TIP3     H2       HT       0.417000       1.00800           0
     42335 TIP3     4567     TIP3     OH2      OT      -0.834000       15.9994           0
     42336 TIP3     4567     TIP3     H1       HT       0.417000       1.00800           0
     42337 TIP3     4567     TIP3     H2       HT       0.417000       1.00800           0
     42338 TIP3     4568     TIP3     OH2      OT      -0.834000       15.9994           0
     42339 TIP3     4568     TIP3     H1       HT       0.417000       1.00800           0
     42340 TIP3     4568     TIP3     H2       HT       0.417000       1.00800           0
     42341 TIP3     4569     TIP3     OH2      OT      -0.834000       15.9994           0
     42342 TIP3     4569     TIP3     H1       HT       0.417000       1.00800           0
     42343 TIP3     4569     TIP3     H2       HT       0.417000       1.00800           0
     42344 TIP3     4570     TIP3     OH2      OT      -0.834000       15.9994           0
     42345 TIP3     4570     TIP3     H1       HT       0.417000       1.00800           0
     42346 TIP3     4570     TIP3     H2       HT       0.417000       1.00800           0
     42347 TIP3     4571     TIP3     OH2      OT      -0.834000       15.9994           0
     42348 TIP3     4571     TIP3     H1       HT       0.417000       1.00800           0
     42349 TIP3     4571     TIP3     H2       HT       0.417000       1.00800           0
     42350 TIP3     4572     TIP3     OH2      OT      -0.834000       15.9994           0
     42351 TIP3     4572     TIP3     H1       HT       0.417000       1.00800           0
     42352 TIP3     4572     TIP3     H2       HT       0.417000       1.00800           0
     42353 TIP3     4573     TIP3     OH2      OT      -0.834000       15.9994           0
     42354 TIP3     4573     TIP3     H1       HT       0.417000       1.00800           0
     42355 TIP3     4573     TIP3     H2       HT       0.417000       1.00800           0
     42356 TIP3     4574     TIP3     OH2      OT      -0.834000       15.9994           0
     42357 TIP3     4574     TIP3     H1       HT       0.417000       1.00800           0
     42358 TIP3     4574     TIP3     H2       HT       0.417000       1.00800           0
     42359 TIP3     4575     TIP3     OH2      OT      -0.834000       15.9994           0
     42360 TIP3     4575     TIP3     H1       HT       0.417000       1.00800           0
     42361 TIP3     4575     TIP3     H2       HT       0.417000       1.00800           0
     42362 TIP3     4576     TIP3     OH2      OT      -0.834000       15.9994           0
     42363 TIP3     4576     TIP3     H1       HT       0.417000       1.00800           0
     42364 TIP3     4576     TIP3     H2       HT       0.417000       1.00800           0
     42365 TIP3     4577     TIP3     OH2      OT      -0.834000       15.9994           0
     42366 TIP3     4577     TIP3     H1       HT       0.417000       1.00800           0
     42367 TIP3     4577     TIP3     H2       HT       0.417000       1.00800           0
     42368 TIP3     4578     TIP3     OH2      OT      -0.834000       15.9994           0
     42369 TIP3     4578     TIP3     H1       HT       0.417000       1.00800           0
     42370 TIP3     4578     TIP3     H2       HT       0.417000       1.00800           0
     42371 TIP3     4579     TIP3     OH2      OT      -0.834000       15.9994           0
     42372 TIP3     4579     TIP3     H1       HT       0.417000       1.00800           0
     42373 TIP3     4579     TIP3     H2       HT       0.417000       1.00800           0
     42374 TIP3     4580     TIP3     OH2      OT      -0.834000       15.9994           0
     42375 TIP3     4580     TIP3     H1       HT       0.417000       1.00800           0
     42376 TIP3     4580     TIP3     H2       HT       0.417000       1.00800           0
     42377 TIP3     4581     TIP3     OH2      OT      -0.834000       15.9994           0
     42378 TIP3     4581     TIP3     H1       HT       0.417000       1.00800           0
     42379 TIP3     4581     TIP3     H2       HT       0.417000       1.00800           0
     42380 TIP3     4582     TIP3     OH2      OT      -0.834000       15.9994           0
     42381 TIP3     4582     TIP3     H1       HT       0.417000       1.00800           0
     42382 TIP3     4582     TIP3     H2       HT       0.417000       1.00800           0
     42383 TIP3     4583     TIP3     OH2      OT      -0.834000       15.9994           0
     42384 TIP3     4583     TIP3     H1       HT       0.417000       1.00800           0
     42385 TIP3     4583     TIP3     H2       HT       0.417000       1.00800           0
     42386 TIP3     4584     TIP3     OH2      OT      -0.834000       15.9994           0
     42387 TIP3     4584     TIP3     H1       HT       0.417000       1.00800           0
     42388 TIP3     4584     TIP3     H2       HT       0.417000       1.00800           0
     42389 TIP3     4585     TIP3     OH2      OT      -0.834000       15.9994           0
     42390 TIP3     4585     TIP3     H1       HT       0.417000       1.00800           0
     42391 TIP3     4585     TIP3     H2       HT       0.417000       1.00800           0
     42392 TIP3     4586     TIP3     OH2      OT      -0.834000       15.9994           0
     42393 TIP3     4586     TIP3     H1       HT       0.417000       1.00800           0
     42394 TIP3     4586     TIP3     H2       HT       0.417000       1.00800           0
     42395 TIP3     4587     TIP3     OH2      OT      -0.834000       15.9994           0
     42396 TIP3     4587     TIP3     H1       HT       0.417000       1.00800           0
     42397 TIP3     4587     TIP3     H2       HT       0.417000       1.00800           0
     42398 TIP3     4588     TIP3     OH2      OT      -0.834000       15.9994           0
     42399 TIP3     4588     TIP3     H1       HT       0.417000       1.00800           0
     42400 TIP3     4588     TIP3     H2       HT       0.417000       1.00800           0
     42401 TIP3     4589     TIP3     OH2      OT      -0.834000       15.9994           0
     42402 TIP3     4589     TIP3     H1       HT       0.417000       1.00800           0
     42403 TIP3     4589     TIP3     H2       HT       0.417000       1.00800           0
     42404 TIP3     4590     TIP3     OH2      OT      -0.834000       15.9994           0
     42405 TIP3     4590     TIP3     H1       HT       0.417000       1.00800           0
     42406 TIP3     4590     TIP3     H2       HT       0.417000       1.00800           0
     42407 TIP3     4591     TIP3     OH2      OT      -0.834000       15.9994           0
     42408 TIP3     4591     TIP3     H1       HT       0.417000       1.00800           0
     42409 TIP3     4591     TIP3     H2       HT       0.417000       1.00800           0
     42410 TIP3     4592     TIP3     OH2      OT      -0.834000       15.9994           0
     42411 TIP3     4592     TIP3     H1       HT       0.417000       1.00800           0
     42412 TIP3     4592     TIP3     H2       HT       0.417000       1.00800           0
     42413 TIP3     4593     TIP3     OH2      OT      -0.834000       15.9994           0
     42414 TIP3     4593     TIP3     H1       HT       0.417000       1.00800           0
     42415 TIP3     4593     TIP3     H2       HT       0.417000       1.00800           0
     42416 TIP3     4594     TIP3     OH2      OT      -0.834000       15.9994           0
     42417 TIP3     4594     TIP3     H1       HT       0.417000       1.00800           0
     42418 TIP3     4594     TIP3     H2       HT       0.417000       1.00800           0
     42419 TIP3     4595     TIP3     OH2      OT      -0.834000       15.9994           0
     42420 TIP3     4595     TIP3     H1       HT       0.417000       1.00800           0
     42421 TIP3     4595     TIP3     H2       HT       0.417000       1.00800           0
     42422 TIP3     4596     TIP3     OH2      OT      -0.834000       15.9994           0
     42423 TIP3     4596     TIP3     H1       HT       0.417000       1.00800           0
     42424 TIP3     4596     TIP3     H2       HT       0.417000       1.00800           0
     42425 TIP3     4597     TIP3     OH2      OT      -0.834000       15.9994           0
     42426 TIP3     4597     TIP3     H1       HT       0.417000       1.00800           0
     42427 TIP3     4597     TIP3     H2       HT       0.417000       1.00800           0
     42428 TIP3     4598     TIP3     OH2      OT      -0.834000       15.9994           0
     42429 TIP3     4598     TIP3     H1       HT       0.417000       1.00800           0
     42430 TIP3     4598     TIP3     H2       HT       0.417000       1.00800           0
     42431 TIP3     4599     TIP3     OH2      OT      -0.834000       15.9994           0
     42432 TIP3     4599     TIP3     H1       HT       0.417000       1.00800           0
     42433 TIP3     4599     TIP3     H2       HT       0.417000       1.00800           0
     42434 TIP3     4600     TIP3     OH2      OT      -0.834000       15.9994           0
     42435 TIP3     4600     TIP3     H1       HT       0.417000       1.00800           0
     42436 TIP3     4600     TIP3     H2       HT       0.417000       1.00800           0
     42437 TIP3     4601     TIP3     OH2      OT      -0.834000       15.9994           0
     42438 TIP3     4601     TIP3     H1       HT       0.417000       1.00800           0
     42439 TIP3     4601     TIP3     H2       HT       0.417000       1.00800           0
     42440 TIP3     4602     TIP3     OH2      OT      -0.834000       15.9994           0
     42441 TIP3     4602     TIP3     H1       HT       0.417000       1.00800           0
     42442 TIP3     4602     TIP3     H2       HT       0.417000       1.00800           0
     42443 TIP3     4603     TIP3     OH2      OT      -0.834000       15.9994           0
     42444 TIP3     4603     TIP3     H1       HT       0.417000       1.00800           0
     42445 TIP3     4603     TIP3     H2       HT       0.417000       1.00800           0
     42446 TIP3     4604     TIP3     OH2      OT      -0.834000       15.9994           0
     42447 TIP3     4604     TIP3     H1       HT       0.417000       1.00800           0
     42448 TIP3     4604     TIP3     H2       HT       0.417000       1.00800           0
     42449 TIP3     4605     TIP3     OH2      OT      -0.834000       15.9994           0
     42450 TIP3     4605     TIP3     H1       HT       0.417000       1.00800           0
     42451 TIP3     4605     TIP3     H2       HT       0.417000       1.00800           0
     42452 TIP3     4606     TIP3     OH2      OT      -0.834000       15.9994           0
     42453 TIP3     4606     TIP3     H1       HT       0.417000       1.00800           0
     42454 TIP3     4606     TIP3     H2       HT       0.417000       1.00800           0
     42455 TIP3     4607     TIP3     OH2      OT      -0.834000       15.9994           0
     42456 TIP3     4607     TIP3     H1       HT       0.417000       1.00800           0
     42457 TIP3     4607     TIP3     H2       HT       0.417000       1.00800           0
     42458 TIP3     4608     TIP3     OH2      OT      -0.834000       15.9994           0
     42459 TIP3     4608     TIP3     H1       HT       0.417000       1.00800           0
     42460 TIP3     4608     TIP3     H2       HT       0.417000       1.00800           0
     42461 TIP3     4609     TIP3     OH2      OT      -0.834000       15.9994           0
     42462 TIP3     4609     TIP3     H1       HT       0.417000       1.00800           0
     42463 TIP3     4609     TIP3     H2       HT       0.417000       1.00800           0
     42464 TIP3     4610     TIP3     OH2      OT      -0.834000       15.9994           0
     42465 TIP3     4610     TIP3     H1       HT       0.417000       1.00800           0
     42466 TIP3     4610     TIP3     H2       HT       0.417000       1.00800           0
     42467 TIP3     4611     TIP3     OH2      OT      -0.834000       15.9994           0
     42468 TIP3     4611     TIP3     H1       HT       0.417000       1.00800           0
     42469 TIP3     4611     TIP3     H2       HT       0.417000       1.00800           0
     42470 TIP3     4612     TIP3     OH2      OT      -0.834000       15.9994           0
     42471 TIP3     4612     TIP3     H1       HT       0.417000       1.00800           0
     42472 TIP3     4612     TIP3     H2       HT       0.417000       1.00800           0
     42473 TIP3     4613     TIP3     OH2      OT      -0.834000       15.9994           0
     42474 TIP3     4613     TIP3     H1       HT       0.417000       1.00800           0
     42475 TIP3     4613     TIP3     H2       HT       0.417000       1.00800           0
     42476 TIP3     4614     TIP3     OH2      OT      -0.834000       15.9994           0
     42477 TIP3     4614     TIP3     H1       HT       0.417000       1.00800           0
     42478 TIP3     4614     TIP3     H2       HT       0.417000       1.00800           0
     42479 TIP3     4615     TIP3     OH2      OT      -0.834000       15.9994           0
     42480 TIP3     4615     TIP3     H1       HT       0.417000       1.00800           0
     42481 TIP3     4615     TIP3     H2       HT       0.417000       1.00800           0
     42482 TIP3     4616     TIP3     OH2      OT      -0.834000       15.9994           0
     42483 TIP3     4616     TIP3     H1       HT       0.417000       1.00800           0
     42484 TIP3     4616     TIP3     H2       HT       0.417000       1.00800           0
     42485 TIP3     4617     TIP3     OH2      OT      -0.834000       15.9994           0
     42486 TIP3     4617     TIP3     H1       HT       0.417000       1.00800           0
     42487 TIP3     4617     TIP3     H2       HT       0.417000       1.00800           0
     42488 TIP3     4618     TIP3     OH2      OT      -0.834000       15.9994           0
     42489 TIP3     4618     TIP3     H1       HT       0.417000       1.00800           0
     42490 TIP3     4618     TIP3     H2       HT       0.417000       1.00800           0
     42491 TIP3     4619     TIP3     OH2      OT      -0.834000       15.9994           0
     42492 TIP3     4619     TIP3     H1       HT       0.417000       1.00800           0
     42493 TIP3     4619     TIP3     H2       HT       0.417000       1.00800           0
     42494 TIP3     4620     TIP3     OH2      OT      -0.834000       15.9994           0
     42495 TIP3     4620     TIP3     H1       HT       0.417000       1.00800           0
     42496 TIP3     4620     TIP3     H2       HT       0.417000       1.00800           0
     42497 TIP3     4621     TIP3     OH2      OT      -0.834000       15.9994           0
     42498 TIP3     4621     TIP3     H1       HT       0.417000       1.00800           0
     42499 TIP3     4621     TIP3     H2       HT       0.417000       1.00800           0
     42500 TIP3     4622     TIP3     OH2      OT      -0.834000       15.9994           0
     42501 TIP3     4622     TIP3     H1       HT       0.417000       1.00800           0
     42502 TIP3     4622     TIP3     H2       HT       0.417000       1.00800           0
     42503 TIP3     4623     TIP3     OH2      OT      -0.834000       15.9994           0
     42504 TIP3     4623     TIP3     H1       HT       0.417000       1.00800           0
     42505 TIP3     4623     TIP3     H2       HT       0.417000       1.00800           0
     42506 TIP3     4624     TIP3     OH2      OT      -0.834000       15.9994           0
     42507 TIP3     4624     TIP3     H1       HT       0.417000       1.00800           0
     42508 TIP3     4624     TIP3     H2       HT       0.417000       1.00800           0
     42509 TIP3     4625     TIP3     OH2      OT      -0.834000       15.9994           0
     42510 TIP3     4625     TIP3     H1       HT       0.417000       1.00800           0
     42511 TIP3     4625     TIP3     H2       HT       0.417000       1.00800           0
     42512 TIP3     4626     TIP3     OH2      OT      -0.834000       15.9994           0
     42513 TIP3     4626     TIP3     H1       HT       0.417000       1.00800           0
     42514 TIP3     4626     TIP3     H2       HT       0.417000       1.00800           0
     42515 TIP3     4627     TIP3     OH2      OT      -0.834000       15.9994           0
     42516 TIP3     4627     TIP3     H1       HT       0.417000       1.00800           0
     42517 TIP3     4627     TIP3     H2       HT       0.417000       1.00800           0
     42518 TIP3     4628     TIP3     OH2      OT      -0.834000       15.9994           0
     42519 TIP3     4628     TIP3     H1       HT       0.417000       1.00800           0
     42520 TIP3     4628     TIP3     H2       HT       0.417000       1.00800           0
     42521 TIP3     4629     TIP3     OH2      OT      -0.834000       15.9994           0
     42522 TIP3     4629     TIP3     H1       HT       0.417000       1.00800           0
     42523 TIP3     4629     TIP3     H2       HT       0.417000       1.00800           0
     42524 TIP3     4630     TIP3     OH2      OT      -0.834000       15.9994           0
     42525 TIP3     4630     TIP3     H1       HT       0.417000       1.00800           0
     42526 TIP3     4630     TIP3     H2       HT       0.417000       1.00800           0
     42527 TIP3     4631     TIP3     OH2      OT      -0.834000       15.9994           0
     42528 TIP3     4631     TIP3     H1       HT       0.417000       1.00800           0
     42529 TIP3     4631     TIP3     H2       HT       0.417000       1.00800           0
     42530 TIP3     4632     TIP3     OH2      OT      -0.834000       15.9994           0
     42531 TIP3     4632     TIP3     H1       HT       0.417000       1.00800           0
     42532 TIP3     4632     TIP3     H2       HT       0.417000       1.00800           0
     42533 TIP3     4633     TIP3     OH2      OT      -0.834000       15.9994           0
     42534 TIP3     4633     TIP3     H1       HT       0.417000       1.00800           0
     42535 TIP3     4633     TIP3     H2       HT       0.417000       1.00800           0
     42536 TIP3     4634     TIP3     OH2      OT      -0.834000       15.9994           0
     42537 TIP3     4634     TIP3     H1       HT       0.417000       1.00800           0
     42538 TIP3     4634     TIP3     H2       HT       0.417000       1.00800           0
     42539 TIP3     4635     TIP3     OH2      OT      -0.834000       15.9994           0
     42540 TIP3     4635     TIP3     H1       HT       0.417000       1.00800           0
     42541 TIP3     4635     TIP3     H2       HT       0.417000       1.00800           0
     42542 TIP3     4636     TIP3     OH2      OT      -0.834000       15.9994           0
     42543 TIP3     4636     TIP3     H1       HT       0.417000       1.00800           0
     42544 TIP3     4636     TIP3     H2       HT       0.417000       1.00800           0
     42545 TIP3     4637     TIP3     OH2      OT      -0.834000       15.9994           0
     42546 TIP3     4637     TIP3     H1       HT       0.417000       1.00800           0
     42547 TIP3     4637     TIP3     H2       HT       0.417000       1.00800           0
     42548 TIP3     4638     TIP3     OH2      OT      -0.834000       15.9994           0
     42549 TIP3     4638     TIP3     H1       HT       0.417000       1.00800           0
     42550 TIP3     4638     TIP3     H2       HT       0.417000       1.00800           0
     42551 TIP3     4639     TIP3     OH2      OT      -0.834000       15.9994           0
     42552 TIP3     4639     TIP3     H1       HT       0.417000       1.00800           0
     42553 TIP3     4639     TIP3     H2       HT       0.417000       1.00800           0
     42554 TIP3     4640     TIP3     OH2      OT      -0.834000       15.9994           0
     42555 TIP3     4640     TIP3     H1       HT       0.417000       1.00800           0
     42556 TIP3     4640     TIP3     H2       HT       0.417000       1.00800           0
     42557 TIP3     4641     TIP3     OH2      OT      -0.834000       15.9994           0
     42558 TIP3     4641     TIP3     H1       HT       0.417000       1.00800           0
     42559 TIP3     4641     TIP3     H2       HT       0.417000       1.00800           0
     42560 TIP3     4642     TIP3     OH2      OT      -0.834000       15.9994           0
     42561 TIP3     4642     TIP3     H1       HT       0.417000       1.00800           0
     42562 TIP3     4642     TIP3     H2       HT       0.417000       1.00800           0
     42563 TIP3     4643     TIP3     OH2      OT      -0.834000       15.9994           0
     42564 TIP3     4643     TIP3     H1       HT       0.417000       1.00800           0
     42565 TIP3     4643     TIP3     H2       HT       0.417000       1.00800           0
     42566 TIP3     4644     TIP3     OH2      OT      -0.834000       15.9994           0
     42567 TIP3     4644     TIP3     H1       HT       0.417000       1.00800           0
     42568 TIP3     4644     TIP3     H2       HT       0.417000       1.00800           0
     42569 TIP3     4645     TIP3     OH2      OT      -0.834000       15.9994           0
     42570 TIP3     4645     TIP3     H1       HT       0.417000       1.00800           0
     42571 TIP3     4645     TIP3     H2       HT       0.417000       1.00800           0
     42572 TIP3     4646     TIP3     OH2      OT      -0.834000       15.9994           0
     42573 TIP3     4646     TIP3     H1       HT       0.417000       1.00800           0
     42574 TIP3     4646     TIP3     H2       HT       0.417000       1.00800           0
     42575 TIP3     4647     TIP3     OH2      OT      -0.834000       15.9994           0
     42576 TIP3     4647     TIP3     H1       HT       0.417000       1.00800           0
     42577 TIP3     4647     TIP3     H2       HT       0.417000       1.00800           0
     42578 TIP3     4648     TIP3     OH2      OT      -0.834000       15.9994           0
     42579 TIP3     4648     TIP3     H1       HT       0.417000       1.00800           0
     42580 TIP3     4648     TIP3     H2       HT       0.417000       1.00800           0
     42581 TIP3     4649     TIP3     OH2      OT      -0.834000       15.9994           0
     42582 TIP3     4649     TIP3     H1       HT       0.417000       1.00800           0
     42583 TIP3     4649     TIP3     H2       HT       0.417000       1.00800           0
     42584 TIP3     4650     TIP3     OH2      OT      -0.834000       15.9994           0
     42585 TIP3     4650     TIP3     H1       HT       0.417000       1.00800           0
     42586 TIP3     4650     TIP3     H2       HT       0.417000       1.00800           0
     42587 TIP3     4651     TIP3     OH2      OT      -0.834000       15.9994           0
     42588 TIP3     4651     TIP3     H1       HT       0.417000       1.00800           0
     42589 TIP3     4651     TIP3     H2       HT       0.417000       1.00800           0
     42590 TIP3     4652     TIP3     OH2      OT      -0.834000       15.9994           0
     42591 TIP3     4652     TIP3     H1       HT       0.417000       1.00800           0
     42592 TIP3     4652     TIP3     H2       HT       0.417000       1.00800           0
     42593 TIP3     4653     TIP3     OH2      OT      -0.834000       15.9994           0
     42594 TIP3     4653     TIP3     H1       HT       0.417000       1.00800           0
     42595 TIP3     4653     TIP3     H2       HT       0.417000       1.00800           0
     42596 TIP3     4654     TIP3     OH2      OT      -0.834000       15.9994           0
     42597 TIP3     4654     TIP3     H1       HT       0.417000       1.00800           0
     42598 TIP3     4654     TIP3     H2       HT       0.417000       1.00800           0
     42599 TIP3     4655     TIP3     OH2      OT      -0.834000       15.9994           0
     42600 TIP3     4655     TIP3     H1       HT       0.417000       1.00800           0
     42601 TIP3     4655     TIP3     H2       HT       0.417000       1.00800           0
     42602 TIP3     4656     TIP3     OH2      OT      -0.834000       15.9994           0
     42603 TIP3     4656     TIP3     H1       HT       0.417000       1.00800           0
     42604 TIP3     4656     TIP3     H2       HT       0.417000       1.00800           0
     42605 TIP3     4657     TIP3     OH2      OT      -0.834000       15.9994           0
     42606 TIP3     4657     TIP3     H1       HT       0.417000       1.00800           0
     42607 TIP3     4657     TIP3     H2       HT       0.417000       1.00800           0
     42608 TIP3     4658     TIP3     OH2      OT      -0.834000       15.9994           0
     42609 TIP3     4658     TIP3     H1       HT       0.417000       1.00800           0
     42610 TIP3     4658     TIP3     H2       HT       0.417000       1.00800           0
     42611 TIP3     4659     TIP3     OH2      OT      -0.834000       15.9994           0
     42612 TIP3     4659     TIP3     H1       HT       0.417000       1.00800           0
     42613 TIP3     4659     TIP3     H2       HT       0.417000       1.00800           0
     42614 TIP3     4660     TIP3     OH2      OT      -0.834000       15.9994           0
     42615 TIP3     4660     TIP3     H1       HT       0.417000       1.00800           0
     42616 TIP3     4660     TIP3     H2       HT       0.417000       1.00800           0
     42617 TIP3     4661     TIP3     OH2      OT      -0.834000       15.9994           0
     42618 TIP3     4661     TIP3     H1       HT       0.417000       1.00800           0
     42619 TIP3     4661     TIP3     H2       HT       0.417000       1.00800           0
     42620 TIP3     4662     TIP3     OH2      OT      -0.834000       15.9994           0
     42621 TIP3     4662     TIP3     H1       HT       0.417000       1.00800           0
     42622 TIP3     4662     TIP3     H2       HT       0.417000       1.00800           0
     42623 TIP3     4663     TIP3     OH2      OT      -0.834000       15.9994           0
     42624 TIP3     4663     TIP3     H1       HT       0.417000       1.00800           0
     42625 TIP3     4663     TIP3     H2       HT       0.417000       1.00800           0
     42626 TIP3     4664     TIP3     OH2      OT      -0.834000       15.9994           0
     42627 TIP3     4664     TIP3     H1       HT       0.417000       1.00800           0
     42628 TIP3     4664     TIP3     H2       HT       0.417000       1.00800           0
     42629 TIP3     4665     TIP3     OH2      OT      -0.834000       15.9994           0
     42630 TIP3     4665     TIP3     H1       HT       0.417000       1.00800           0
     42631 TIP3     4665     TIP3     H2       HT       0.417000       1.00800           0
     42632 TIP3     4666     TIP3     OH2      OT      -0.834000       15.9994           0
     42633 TIP3     4666     TIP3     H1       HT       0.417000       1.00800           0
     42634 TIP3     4666     TIP3     H2       HT       0.417000       1.00800           0
     42635 TIP3     4667     TIP3     OH2      OT      -0.834000       15.9994           0
     42636 TIP3     4667     TIP3     H1       HT       0.417000       1.00800           0
     42637 TIP3     4667     TIP3     H2       HT       0.417000       1.00800           0
     42638 TIP3     4668     TIP3     OH2      OT      -0.834000       15.9994           0
     42639 TIP3     4668     TIP3     H1       HT       0.417000       1.00800           0
     42640 TIP3     4668     TIP3     H2       HT       0.417000       1.00800           0
     42641 TIP3     4669     TIP3     OH2      OT      -0.834000       15.9994           0
     42642 TIP3     4669     TIP3     H1       HT       0.417000       1.00800           0
     42643 TIP3     4669     TIP3     H2       HT       0.417000       1.00800           0
     42644 TIP3     4670     TIP3     OH2      OT      -0.834000       15.9994           0
     42645 TIP3     4670     TIP3     H1       HT       0.417000       1.00800           0
     42646 TIP3     4670     TIP3     H2       HT       0.417000       1.00800           0
     42647 TIP3     4671     TIP3     OH2      OT      -0.834000       15.9994           0
     42648 TIP3     4671     TIP3     H1       HT       0.417000       1.00800           0
     42649 TIP3     4671     TIP3     H2       HT       0.417000       1.00800           0
     42650 TIP3     4672     TIP3     OH2      OT      -0.834000       15.9994           0
     42651 TIP3     4672     TIP3     H1       HT       0.417000       1.00800           0
     42652 TIP3     4672     TIP3     H2       HT       0.417000       1.00800           0
     42653 TIP3     4673     TIP3     OH2      OT      -0.834000       15.9994           0
     42654 TIP3     4673     TIP3     H1       HT       0.417000       1.00800           0
     42655 TIP3     4673     TIP3     H2       HT       0.417000       1.00800           0
     42656 TIP3     4674     TIP3     OH2      OT      -0.834000       15.9994           0
     42657 TIP3     4674     TIP3     H1       HT       0.417000       1.00800           0
     42658 TIP3     4674     TIP3     H2       HT       0.417000       1.00800           0
     42659 TIP3     4675     TIP3     OH2      OT      -0.834000       15.9994           0
     42660 TIP3     4675     TIP3     H1       HT       0.417000       1.00800           0
     42661 TIP3     4675     TIP3     H2       HT       0.417000       1.00800           0
     42662 TIP3     4676     TIP3     OH2      OT      -0.834000       15.9994           0
     42663 TIP3     4676     TIP3     H1       HT       0.417000       1.00800           0
     42664 TIP3     4676     TIP3     H2       HT       0.417000       1.00800           0
     42665 TIP3     4677     TIP3     OH2      OT      -0.834000       15.9994           0
     42666 TIP3     4677     TIP3     H1       HT       0.417000       1.00800           0
     42667 TIP3     4677     TIP3     H2       HT       0.417000       1.00800           0
     42668 TIP3     4678     TIP3     OH2      OT      -0.834000       15.9994           0
     42669 TIP3     4678     TIP3     H1       HT       0.417000       1.00800           0
     42670 TIP3     4678     TIP3     H2       HT       0.417000       1.00800           0
     42671 TIP3     4679     TIP3     OH2      OT      -0.834000       15.9994           0
     42672 TIP3     4679     TIP3     H1       HT       0.417000       1.00800           0
     42673 TIP3     4679     TIP3     H2       HT       0.417000       1.00800           0
     42674 TIP3     4680     TIP3     OH2      OT      -0.834000       15.9994           0
     42675 TIP3     4680     TIP3     H1       HT       0.417000       1.00800           0
     42676 TIP3     4680     TIP3     H2       HT       0.417000       1.00800           0
     42677 TIP3     4681     TIP3     OH2      OT      -0.834000       15.9994           0
     42678 TIP3     4681     TIP3     H1       HT       0.417000       1.00800           0
     42679 TIP3     4681     TIP3     H2       HT       0.417000       1.00800           0
     42680 TIP3     4682     TIP3     OH2      OT      -0.834000       15.9994           0
     42681 TIP3     4682     TIP3     H1       HT       0.417000       1.00800           0
     42682 TIP3     4682     TIP3     H2       HT       0.417000       1.00800           0
     42683 TIP3     4683     TIP3     OH2      OT      -0.834000       15.9994           0
     42684 TIP3     4683     TIP3     H1       HT       0.417000       1.00800           0
     42685 TIP3     4683     TIP3     H2       HT       0.417000       1.00800           0
     42686 TIP3     4684     TIP3     OH2      OT      -0.834000       15.9994           0
     42687 TIP3     4684     TIP3     H1       HT       0.417000       1.00800           0
     42688 TIP3     4684     TIP3     H2       HT       0.417000       1.00800           0
     42689 TIP3     4685     TIP3     OH2      OT      -0.834000       15.9994           0
     42690 TIP3     4685     TIP3     H1       HT       0.417000       1.00800           0
     42691 TIP3     4685     TIP3     H2       HT       0.417000       1.00800           0
     42692 TIP3     4686     TIP3     OH2      OT      -0.834000       15.9994           0
     42693 TIP3     4686     TIP3     H1       HT       0.417000       1.00800           0
     42694 TIP3     4686     TIP3     H2       HT       0.417000       1.00800           0
     42695 TIP3     4687     TIP3     OH2      OT      -0.834000       15.9994           0
     42696 TIP3     4687     TIP3     H1       HT       0.417000       1.00800           0
     42697 TIP3     4687     TIP3     H2       HT       0.417000       1.00800           0
     42698 TIP3     4688     TIP3     OH2      OT      -0.834000       15.9994           0
     42699 TIP3     4688     TIP3     H1       HT       0.417000       1.00800           0
     42700 TIP3     4688     TIP3     H2       HT       0.417000       1.00800           0
     42701 TIP3     4689     TIP3     OH2      OT      -0.834000       15.9994           0
     42702 TIP3     4689     TIP3     H1       HT       0.417000       1.00800           0
     42703 TIP3     4689     TIP3     H2       HT       0.417000       1.00800           0
     42704 TIP3     4690     TIP3     OH2      OT      -0.834000       15.9994           0
     42705 TIP3     4690     TIP3     H1       HT       0.417000       1.00800           0
     42706 TIP3     4690     TIP3     H2       HT       0.417000       1.00800           0
     42707 TIP3     4691     TIP3     OH2      OT      -0.834000       15.9994           0
     42708 TIP3     4691     TIP3     H1       HT       0.417000       1.00800           0
     42709 TIP3     4691     TIP3     H2       HT       0.417000       1.00800           0
     42710 TIP3     4692     TIP3     OH2      OT      -0.834000       15.9994           0
     42711 TIP3     4692     TIP3     H1       HT       0.417000       1.00800           0
     42712 TIP3     4692     TIP3     H2       HT       0.417000       1.00800           0
     42713 TIP3     4693     TIP3     OH2      OT      -0.834000       15.9994           0
     42714 TIP3     4693     TIP3     H1       HT       0.417000       1.00800           0
     42715 TIP3     4693     TIP3     H2       HT       0.417000       1.00800           0
     42716 TIP3     4694     TIP3     OH2      OT      -0.834000       15.9994           0
     42717 TIP3     4694     TIP3     H1       HT       0.417000       1.00800           0
     42718 TIP3     4694     TIP3     H2       HT       0.417000       1.00800           0
     42719 TIP3     4695     TIP3     OH2      OT      -0.834000       15.9994           0
     42720 TIP3     4695     TIP3     H1       HT       0.417000       1.00800           0
     42721 TIP3     4695     TIP3     H2       HT       0.417000       1.00800           0
     42722 TIP3     4696     TIP3     OH2      OT      -0.834000       15.9994           0
     42723 TIP3     4696     TIP3     H1       HT       0.417000       1.00800           0
     42724 TIP3     4696     TIP3     H2       HT       0.417000       1.00800           0
     42725 TIP3     4697     TIP3     OH2      OT      -0.834000       15.9994           0
     42726 TIP3     4697     TIP3     H1       HT       0.417000       1.00800           0
     42727 TIP3     4697     TIP3     H2       HT       0.417000       1.00800           0
     42728 TIP3     4698     TIP3     OH2      OT      -0.834000       15.9994           0
     42729 TIP3     4698     TIP3     H1       HT       0.417000       1.00800           0
     42730 TIP3     4698     TIP3     H2       HT       0.417000       1.00800           0
     42731 TIP3     4699     TIP3     OH2      OT      -0.834000       15.9994           0
     42732 TIP3     4699     TIP3     H1       HT       0.417000       1.00800           0
     42733 TIP3     4699     TIP3     H2       HT       0.417000       1.00800           0
     42734 TIP3     4700     TIP3     OH2      OT      -0.834000       15.9994           0
     42735 TIP3     4700     TIP3     H1       HT       0.417000       1.00800           0
     42736 TIP3     4700     TIP3     H2       HT       0.417000       1.00800           0
     42737 TIP3     4701     TIP3     OH2      OT      -0.834000       15.9994           0
     42738 TIP3     4701     TIP3     H1       HT       0.417000       1.00800           0
     42739 TIP3     4701     TIP3     H2       HT       0.417000       1.00800           0
     42740 TIP3     4702     TIP3     OH2      OT      -0.834000       15.9994           0
     42741 TIP3     4702     TIP3     H1       HT       0.417000       1.00800           0
     42742 TIP3     4702     TIP3     H2       HT       0.417000       1.00800           0
     42743 TIP3     4703     TIP3     OH2      OT      -0.834000       15.9994           0
     42744 TIP3     4703     TIP3     H1       HT       0.417000       1.00800           0
     42745 TIP3     4703     TIP3     H2       HT       0.417000       1.00800           0
     42746 TIP3     4704     TIP3     OH2      OT      -0.834000       15.9994           0
     42747 TIP3     4704     TIP3     H1       HT       0.417000       1.00800           0
     42748 TIP3     4704     TIP3     H2       HT       0.417000       1.00800           0
     42749 TIP3     4705     TIP3     OH2      OT      -0.834000       15.9994           0
     42750 TIP3     4705     TIP3     H1       HT       0.417000       1.00800           0
     42751 TIP3     4705     TIP3     H2       HT       0.417000       1.00800           0
     42752 TIP3     4706     TIP3     OH2      OT      -0.834000       15.9994           0
     42753 TIP3     4706     TIP3     H1       HT       0.417000       1.00800           0
     42754 TIP3     4706     TIP3     H2       HT       0.417000       1.00800           0
     42755 TIP3     4707     TIP3     OH2      OT      -0.834000       15.9994           0
     42756 TIP3     4707     TIP3     H1       HT       0.417000       1.00800           0
     42757 TIP3     4707     TIP3     H2       HT       0.417000       1.00800           0
     42758 TIP3     4708     TIP3     OH2      OT      -0.834000       15.9994           0
     42759 TIP3     4708     TIP3     H1       HT       0.417000       1.00800           0
     42760 TIP3     4708     TIP3     H2       HT       0.417000       1.00800           0
     42761 TIP3     4709     TIP3     OH2      OT      -0.834000       15.9994           0
     42762 TIP3     4709     TIP3     H1       HT       0.417000       1.00800           0
     42763 TIP3     4709     TIP3     H2       HT       0.417000       1.00800           0
     42764 TIP3     4710     TIP3     OH2      OT      -0.834000       15.9994           0
     42765 TIP3     4710     TIP3     H1       HT       0.417000       1.00800           0
     42766 TIP3     4710     TIP3     H2       HT       0.417000       1.00800           0
     42767 TIP3     4711     TIP3     OH2      OT      -0.834000       15.9994           0
     42768 TIP3     4711     TIP3     H1       HT       0.417000       1.00800           0
     42769 TIP3     4711     TIP3     H2       HT       0.417000       1.00800           0
     42770 TIP3     4712     TIP3     OH2      OT      -0.834000       15.9994           0
     42771 TIP3     4712     TIP3     H1       HT       0.417000       1.00800           0
     42772 TIP3     4712     TIP3     H2       HT       0.417000       1.00800           0
     42773 TIP3     4713     TIP3     OH2      OT      -0.834000       15.9994           0
     42774 TIP3     4713     TIP3     H1       HT       0.417000       1.00800           0
     42775 TIP3     4713     TIP3     H2       HT       0.417000       1.00800           0
     42776 TIP3     4714     TIP3     OH2      OT      -0.834000       15.9994           0
     42777 TIP3     4714     TIP3     H1       HT       0.417000       1.00800           0
     42778 TIP3     4714     TIP3     H2       HT       0.417000       1.00800           0
     42779 TIP3     4715     TIP3     OH2      OT      -0.834000       15.9994           0
     42780 TIP3     4715     TIP3     H1       HT       0.417000       1.00800           0
     42781 TIP3     4715     TIP3     H2       HT       0.417000       1.00800           0
     42782 TIP3     4716     TIP3     OH2      OT      -0.834000       15.9994           0
     42783 TIP3     4716     TIP3     H1       HT       0.417000       1.00800           0
     42784 TIP3     4716     TIP3     H2       HT       0.417000       1.00800           0
     42785 TIP3     4717     TIP3     OH2      OT      -0.834000       15.9994           0
     42786 TIP3     4717     TIP3     H1       HT       0.417000       1.00800           0
     42787 TIP3     4717     TIP3     H2       HT       0.417000       1.00800           0
     42788 TIP3     4718     TIP3     OH2      OT      -0.834000       15.9994           0
     42789 TIP3     4718     TIP3     H1       HT       0.417000       1.00800           0
     42790 TIP3     4718     TIP3     H2       HT       0.417000       1.00800           0
     42791 TIP3     4719     TIP3     OH2      OT      -0.834000       15.9994           0
     42792 TIP3     4719     TIP3     H1       HT       0.417000       1.00800           0
     42793 TIP3     4719     TIP3     H2       HT       0.417000       1.00800           0
     42794 TIP3     4720     TIP3     OH2      OT      -0.834000       15.9994           0
     42795 TIP3     4720     TIP3     H1       HT       0.417000       1.00800           0
     42796 TIP3     4720     TIP3     H2       HT       0.417000       1.00800           0
     42797 TIP3     4721     TIP3     OH2      OT      -0.834000       15.9994           0
     42798 TIP3     4721     TIP3     H1       HT       0.417000       1.00800           0
     42799 TIP3     4721     TIP3     H2       HT       0.417000       1.00800           0
     42800 TIP3     4722     TIP3     OH2      OT      -0.834000       15.9994           0
     42801 TIP3     4722     TIP3     H1       HT       0.417000       1.00800           0
     42802 TIP3     4722     TIP3     H2       HT       0.417000       1.00800           0
     42803 TIP3     4723     TIP3     OH2      OT      -0.834000       15.9994           0
     42804 TIP3     4723     TIP3     H1       HT       0.417000       1.00800           0
     42805 TIP3     4723     TIP3     H2       HT       0.417000       1.00800           0
     42806 TIP3     4724     TIP3     OH2      OT      -0.834000       15.9994           0
     42807 TIP3     4724     TIP3     H1       HT       0.417000       1.00800           0
     42808 TIP3     4724     TIP3     H2       HT       0.417000       1.00800           0
     42809 TIP3     4725     TIP3     OH2      OT      -0.834000       15.9994           0
     42810 TIP3     4725     TIP3     H1       HT       0.417000       1.00800           0
     42811 TIP3     4725     TIP3     H2       HT       0.417000       1.00800           0
     42812 TIP3     4726     TIP3     OH2      OT      -0.834000       15.9994           0
     42813 TIP3     4726     TIP3     H1       HT       0.417000       1.00800           0
     42814 TIP3     4726     TIP3     H2       HT       0.417000       1.00800           0
     42815 TIP3     4727     TIP3     OH2      OT      -0.834000       15.9994           0
     42816 TIP3     4727     TIP3     H1       HT       0.417000       1.00800           0
     42817 TIP3     4727     TIP3     H2       HT       0.417000       1.00800           0
     42818 TIP3     4728     TIP3     OH2      OT      -0.834000       15.9994           0
     42819 TIP3     4728     TIP3     H1       HT       0.417000       1.00800           0
     42820 TIP3     4728     TIP3     H2       HT       0.417000       1.00800           0
     42821 TIP3     4729     TIP3     OH2      OT      -0.834000       15.9994           0
     42822 TIP3     4729     TIP3     H1       HT       0.417000       1.00800           0
     42823 TIP3     4729     TIP3     H2       HT       0.417000       1.00800           0
     42824 TIP3     4730     TIP3     OH2      OT      -0.834000       15.9994           0
     42825 TIP3     4730     TIP3     H1       HT       0.417000       1.00800           0
     42826 TIP3     4730     TIP3     H2       HT       0.417000       1.00800           0
     42827 TIP3     4731     TIP3     OH2      OT      -0.834000       15.9994           0
     42828 TIP3     4731     TIP3     H1       HT       0.417000       1.00800           0
     42829 TIP3     4731     TIP3     H2       HT       0.417000       1.00800           0
     42830 TIP3     4732     TIP3     OH2      OT      -0.834000       15.9994           0
     42831 TIP3     4732     TIP3     H1       HT       0.417000       1.00800           0
     42832 TIP3     4732     TIP3     H2       HT       0.417000       1.00800           0
     42833 TIP3     4733     TIP3     OH2      OT      -0.834000       15.9994           0
     42834 TIP3     4733     TIP3     H1       HT       0.417000       1.00800           0
     42835 TIP3     4733     TIP3     H2       HT       0.417000       1.00800           0
     42836 TIP3     4734     TIP3     OH2      OT      -0.834000       15.9994           0
     42837 TIP3     4734     TIP3     H1       HT       0.417000       1.00800           0
     42838 TIP3     4734     TIP3     H2       HT       0.417000       1.00800           0
     42839 TIP3     4735     TIP3     OH2      OT      -0.834000       15.9994           0
     42840 TIP3     4735     TIP3     H1       HT       0.417000       1.00800           0
     42841 TIP3     4735     TIP3     H2       HT       0.417000       1.00800           0
     42842 TIP3     4736     TIP3     OH2      OT      -0.834000       15.9994           0
     42843 TIP3     4736     TIP3     H1       HT       0.417000       1.00800           0
     42844 TIP3     4736     TIP3     H2       HT       0.417000       1.00800           0
     42845 TIP3     4737     TIP3     OH2      OT      -0.834000       15.9994           0
     42846 TIP3     4737     TIP3     H1       HT       0.417000       1.00800           0
     42847 TIP3     4737     TIP3     H2       HT       0.417000       1.00800           0
     42848 TIP3     4738     TIP3     OH2      OT      -0.834000       15.9994           0
     42849 TIP3     4738     TIP3     H1       HT       0.417000       1.00800           0
     42850 TIP3     4738     TIP3     H2       HT       0.417000       1.00800           0
     42851 TIP3     4739     TIP3     OH2      OT      -0.834000       15.9994           0
     42852 TIP3     4739     TIP3     H1       HT       0.417000       1.00800           0
     42853 TIP3     4739     TIP3     H2       HT       0.417000       1.00800           0
     42854 TIP3     4740     TIP3     OH2      OT      -0.834000       15.9994           0
     42855 TIP3     4740     TIP3     H1       HT       0.417000       1.00800           0
     42856 TIP3     4740     TIP3     H2       HT       0.417000       1.00800           0
     42857 TIP3     4741     TIP3     OH2      OT      -0.834000       15.9994           0
     42858 TIP3     4741     TIP3     H1       HT       0.417000       1.00800           0
     42859 TIP3     4741     TIP3     H2       HT       0.417000       1.00800           0
     42860 TIP3     4742     TIP3     OH2      OT      -0.834000       15.9994           0
     42861 TIP3     4742     TIP3     H1       HT       0.417000       1.00800           0
     42862 TIP3     4742     TIP3     H2       HT       0.417000       1.00800           0
     42863 TIP3     4743     TIP3     OH2      OT      -0.834000       15.9994           0
     42864 TIP3     4743     TIP3     H1       HT       0.417000       1.00800           0
     42865 TIP3     4743     TIP3     H2       HT       0.417000       1.00800           0
     42866 TIP3     4744     TIP3     OH2      OT      -0.834000       15.9994           0
     42867 TIP3     4744     TIP3     H1       HT       0.417000       1.00800           0
     42868 TIP3     4744     TIP3     H2       HT       0.417000       1.00800           0
     42869 TIP3     4745     TIP3     OH2      OT      -0.834000       15.9994           0
     42870 TIP3     4745     TIP3     H1       HT       0.417000       1.00800           0
     42871 TIP3     4745     TIP3     H2       HT       0.417000       1.00800           0
     42872 TIP3     4746     TIP3     OH2      OT      -0.834000       15.9994           0
     42873 TIP3     4746     TIP3     H1       HT       0.417000       1.00800           0
     42874 TIP3     4746     TIP3     H2       HT       0.417000       1.00800           0
     42875 TIP3     4747     TIP3     OH2      OT      -0.834000       15.9994           0
     42876 TIP3     4747     TIP3     H1       HT       0.417000       1.00800           0
     42877 TIP3     4747     TIP3     H2       HT       0.417000       1.00800           0
     42878 TIP3     4748     TIP3     OH2      OT      -0.834000       15.9994           0
     42879 TIP3     4748     TIP3     H1       HT       0.417000       1.00800           0
     42880 TIP3     4748     TIP3     H2       HT       0.417000       1.00800           0
     42881 TIP3     4749     TIP3     OH2      OT      -0.834000       15.9994           0
     42882 TIP3     4749     TIP3     H1       HT       0.417000       1.00800           0
     42883 TIP3     4749     TIP3     H2       HT       0.417000       1.00800           0
     42884 TIP3     4750     TIP3     OH2      OT      -0.834000       15.9994           0
     42885 TIP3     4750     TIP3     H1       HT       0.417000       1.00800           0
     42886 TIP3     4750     TIP3     H2       HT       0.417000       1.00800           0
     42887 TIP3     4751     TIP3     OH2      OT      -0.834000       15.9994           0
     42888 TIP3     4751     TIP3     H1       HT       0.417000       1.00800           0
     42889 TIP3     4751     TIP3     H2       HT       0.417000       1.00800           0
     42890 TIP3     4752     TIP3     OH2      OT      -0.834000       15.9994           0
     42891 TIP3     4752     TIP3     H1       HT       0.417000       1.00800           0
     42892 TIP3     4752     TIP3     H2       HT       0.417000       1.00800           0
     42893 TIP3     4753     TIP3     OH2      OT      -0.834000       15.9994           0
     42894 TIP3     4753     TIP3     H1       HT       0.417000       1.00800           0
     42895 TIP3     4753     TIP3     H2       HT       0.417000       1.00800           0
     42896 TIP3     4754     TIP3     OH2      OT      -0.834000       15.9994           0
     42897 TIP3     4754     TIP3     H1       HT       0.417000       1.00800           0
     42898 TIP3     4754     TIP3     H2       HT       0.417000       1.00800           0
     42899 TIP3     4755     TIP3     OH2      OT      -0.834000       15.9994           0
     42900 TIP3     4755     TIP3     H1       HT       0.417000       1.00800           0
     42901 TIP3     4755     TIP3     H2       HT       0.417000       1.00800           0
     42902 TIP3     4756     TIP3     OH2      OT      -0.834000       15.9994           0
     42903 TIP3     4756     TIP3     H1       HT       0.417000       1.00800           0
     42904 TIP3     4756     TIP3     H2       HT       0.417000       1.00800           0
     42905 TIP3     4757     TIP3     OH2      OT      -0.834000       15.9994           0
     42906 TIP3     4757     TIP3     H1       HT       0.417000       1.00800           0
     42907 TIP3     4757     TIP3     H2       HT       0.417000       1.00800           0
     42908 TIP3     4758     TIP3     OH2      OT      -0.834000       15.9994           0
     42909 TIP3     4758     TIP3     H1       HT       0.417000       1.00800           0
     42910 TIP3     4758     TIP3     H2       HT       0.417000       1.00800           0
     42911 TIP3     4759     TIP3     OH2      OT      -0.834000       15.9994           0
     42912 TIP3     4759     TIP3     H1       HT       0.417000       1.00800           0
     42913 TIP3     4759     TIP3     H2       HT       0.417000       1.00800           0
     42914 TIP3     4760     TIP3     OH2      OT      -0.834000       15.9994           0
     42915 TIP3     4760     TIP3     H1       HT       0.417000       1.00800           0
     42916 TIP3     4760     TIP3     H2       HT       0.417000       1.00800           0
     42917 TIP3     4761     TIP3     OH2      OT      -0.834000       15.9994           0
     42918 TIP3     4761     TIP3     H1       HT       0.417000       1.00800           0
     42919 TIP3     4761     TIP3     H2       HT       0.417000       1.00800           0
     42920 TIP3     4762     TIP3     OH2      OT      -0.834000       15.9994           0
     42921 TIP3     4762     TIP3     H1       HT       0.417000       1.00800           0
     42922 TIP3     4762     TIP3     H2       HT       0.417000       1.00800           0
     42923 TIP3     4763     TIP3     OH2      OT      -0.834000       15.9994           0
     42924 TIP3     4763     TIP3     H1       HT       0.417000       1.00800           0
     42925 TIP3     4763     TIP3     H2       HT       0.417000       1.00800           0
     42926 TIP3     4764     TIP3     OH2      OT      -0.834000       15.9994           0
     42927 TIP3     4764     TIP3     H1       HT       0.417000       1.00800           0
     42928 TIP3     4764     TIP3     H2       HT       0.417000       1.00800           0
     42929 TIP3     4765     TIP3     OH2      OT      -0.834000       15.9994           0
     42930 TIP3     4765     TIP3     H1       HT       0.417000       1.00800           0
     42931 TIP3     4765     TIP3     H2       HT       0.417000       1.00800           0
     42932 TIP3     4766     TIP3     OH2      OT      -0.834000       15.9994           0
     42933 TIP3     4766     TIP3     H1       HT       0.417000       1.00800           0
     42934 TIP3     4766     TIP3     H2       HT       0.417000       1.00800           0
     42935 TIP3     4767     TIP3     OH2      OT      -0.834000       15.9994           0
     42936 TIP3     4767     TIP3     H1       HT       0.417000       1.00800           0
     42937 TIP3     4767     TIP3     H2       HT       0.417000       1.00800           0
     42938 TIP3     4768     TIP3     OH2      OT      -0.834000       15.9994           0
     42939 TIP3     4768     TIP3     H1       HT       0.417000       1.00800           0
     42940 TIP3     4768     TIP3     H2       HT       0.417000       1.00800           0
     42941 TIP3     4769     TIP3     OH2      OT      -0.834000       15.9994           0
     42942 TIP3     4769     TIP3     H1       HT       0.417000       1.00800           0
     42943 TIP3     4769     TIP3     H2       HT       0.417000       1.00800           0
     42944 TIP3     4770     TIP3     OH2      OT      -0.834000       15.9994           0
     42945 TIP3     4770     TIP3     H1       HT       0.417000       1.00800           0
     42946 TIP3     4770     TIP3     H2       HT       0.417000       1.00800           0
     42947 TIP3     4771     TIP3     OH2      OT      -0.834000       15.9994           0
     42948 TIP3     4771     TIP3     H1       HT       0.417000       1.00800           0
     42949 TIP3     4771     TIP3     H2       HT       0.417000       1.00800           0
     42950 TIP3     4772     TIP3     OH2      OT      -0.834000       15.9994           0
     42951 TIP3     4772     TIP3     H1       HT       0.417000       1.00800           0
     42952 TIP3     4772     TIP3     H2       HT       0.417000       1.00800           0
     42953 TIP3     4773     TIP3     OH2      OT      -0.834000       15.9994           0
     42954 TIP3     4773     TIP3     H1       HT       0.417000       1.00800           0
     42955 TIP3     4773     TIP3     H2       HT       0.417000       1.00800           0
     42956 TIP3     4774     TIP3     OH2      OT      -0.834000       15.9994           0
     42957 TIP3     4774     TIP3     H1       HT       0.417000       1.00800           0
     42958 TIP3     4774     TIP3     H2       HT       0.417000       1.00800           0
     42959 TIP3     4775     TIP3     OH2      OT      -0.834000       15.9994           0
     42960 TIP3     4775     TIP3     H1       HT       0.417000       1.00800           0
     42961 TIP3     4775     TIP3     H2       HT       0.417000       1.00800           0
     42962 TIP3     4776     TIP3     OH2      OT      -0.834000       15.9994           0
     42963 TIP3     4776     TIP3     H1       HT       0.417000       1.00800           0
     42964 TIP3     4776     TIP3     H2       HT       0.417000       1.00800           0
     42965 TIP3     4777     TIP3     OH2      OT      -0.834000       15.9994           0
     42966 TIP3     4777     TIP3     H1       HT       0.417000       1.00800           0
     42967 TIP3     4777     TIP3     H2       HT       0.417000       1.00800           0
     42968 TIP3     4778     TIP3     OH2      OT      -0.834000       15.9994           0
     42969 TIP3     4778     TIP3     H1       HT       0.417000       1.00800           0
     42970 TIP3     4778     TIP3     H2       HT       0.417000       1.00800           0
     42971 TIP3     4779     TIP3     OH2      OT      -0.834000       15.9994           0
     42972 TIP3     4779     TIP3     H1       HT       0.417000       1.00800           0
     42973 TIP3     4779     TIP3     H2       HT       0.417000       1.00800           0
     42974 TIP3     4780     TIP3     OH2      OT      -0.834000       15.9994           0
     42975 TIP3     4780     TIP3     H1       HT       0.417000       1.00800           0
     42976 TIP3     4780     TIP3     H2       HT       0.417000       1.00800           0
     42977 TIP3     4781     TIP3     OH2      OT      -0.834000       15.9994           0
     42978 TIP3     4781     TIP3     H1       HT       0.417000       1.00800           0
     42979 TIP3     4781     TIP3     H2       HT       0.417000       1.00800           0
     42980 TIP3     4782     TIP3     OH2      OT      -0.834000       15.9994           0
     42981 TIP3     4782     TIP3     H1       HT       0.417000       1.00800           0
     42982 TIP3     4782     TIP3     H2       HT       0.417000       1.00800           0
     42983 TIP3     4783     TIP3     OH2      OT      -0.834000       15.9994           0
     42984 TIP3     4783     TIP3     H1       HT       0.417000       1.00800           0
     42985 TIP3     4783     TIP3     H2       HT       0.417000       1.00800           0
     42986 TIP3     4784     TIP3     OH2      OT      -0.834000       15.9994           0
     42987 TIP3     4784     TIP3     H1       HT       0.417000       1.00800           0
     42988 TIP3     4784     TIP3     H2       HT       0.417000       1.00800           0
     42989 TIP3     4785     TIP3     OH2      OT      -0.834000       15.9994           0
     42990 TIP3     4785     TIP3     H1       HT       0.417000       1.00800           0
     42991 TIP3     4785     TIP3     H2       HT       0.417000       1.00800           0
     42992 TIP3     4786     TIP3     OH2      OT      -0.834000       15.9994           0
     42993 TIP3     4786     TIP3     H1       HT       0.417000       1.00800           0
     42994 TIP3     4786     TIP3     H2       HT       0.417000       1.00800           0
     42995 TIP3     4787     TIP3     OH2      OT      -0.834000       15.9994           0
     42996 TIP3     4787     TIP3     H1       HT       0.417000       1.00800           0
     42997 TIP3     4787     TIP3     H2       HT       0.417000       1.00800           0
     42998 TIP3     4788     TIP3     OH2      OT      -0.834000       15.9994           0
     42999 TIP3     4788     TIP3     H1       HT       0.417000       1.00800           0
     43000 TIP3     4788     TIP3     H2       HT       0.417000       1.00800           0
     43001 TIP3     4789     TIP3     OH2      OT      -0.834000       15.9994           0
     43002 TIP3     4789     TIP3     H1       HT       0.417000       1.00800           0
     43003 TIP3     4789     TIP3     H2       HT       0.417000       1.00800           0
     43004 TIP3     4790     TIP3     OH2      OT      -0.834000       15.9994           0
     43005 TIP3     4790     TIP3     H1       HT       0.417000       1.00800           0
     43006 TIP3     4790     TIP3     H2       HT       0.417000       1.00800           0
     43007 TIP3     4791     TIP3     OH2      OT      -0.834000       15.9994           0
     43008 TIP3     4791     TIP3     H1       HT       0.417000       1.00800           0
     43009 TIP3     4791     TIP3     H2       HT       0.417000       1.00800           0
     43010 TIP3     4792     TIP3     OH2      OT      -0.834000       15.9994           0
     43011 TIP3     4792     TIP3     H1       HT       0.417000       1.00800           0
     43012 TIP3     4792     TIP3     H2       HT       0.417000       1.00800           0
     43013 TIP3     4793     TIP3     OH2      OT      -0.834000       15.9994           0
     43014 TIP3     4793     TIP3     H1       HT       0.417000       1.00800           0
     43015 TIP3     4793     TIP3     H2       HT       0.417000       1.00800           0
     43016 TIP3     4794     TIP3     OH2      OT      -0.834000       15.9994           0
     43017 TIP3     4794     TIP3     H1       HT       0.417000       1.00800           0
     43018 TIP3     4794     TIP3     H2       HT       0.417000       1.00800           0
     43019 TIP3     4795     TIP3     OH2      OT      -0.834000       15.9994           0
     43020 TIP3     4795     TIP3     H1       HT       0.417000       1.00800           0
     43021 TIP3     4795     TIP3     H2       HT       0.417000       1.00800           0
     43022 TIP3     4796     TIP3     OH2      OT      -0.834000       15.9994           0
     43023 TIP3     4796     TIP3     H1       HT       0.417000       1.00800           0
     43024 TIP3     4796     TIP3     H2       HT       0.417000       1.00800           0
     43025 TIP3     4797     TIP3     OH2      OT      -0.834000       15.9994           0
     43026 TIP3     4797     TIP3     H1       HT       0.417000       1.00800           0
     43027 TIP3     4797     TIP3     H2       HT       0.417000       1.00800           0
     43028 TIP3     4798     TIP3     OH2      OT      -0.834000       15.9994           0
     43029 TIP3     4798     TIP3     H1       HT       0.417000       1.00800           0
     43030 TIP3     4798     TIP3     H2       HT       0.417000       1.00800           0
     43031 TIP3     4799     TIP3     OH2      OT      -0.834000       15.9994           0
     43032 TIP3     4799     TIP3     H1       HT       0.417000       1.00800           0
     43033 TIP3     4799     TIP3     H2       HT       0.417000       1.00800           0
     43034 TIP3     4800     TIP3     OH2      OT      -0.834000       15.9994           0
     43035 TIP3     4800     TIP3     H1       HT       0.417000       1.00800           0
     43036 TIP3     4800     TIP3     H2       HT       0.417000       1.00800           0
     43037 TIP3     4801     TIP3     OH2      OT      -0.834000       15.9994           0
     43038 TIP3     4801     TIP3     H1       HT       0.417000       1.00800           0
     43039 TIP3     4801     TIP3     H2       HT       0.417000       1.00800           0
     43040 TIP3     4802     TIP3     OH2      OT      -0.834000       15.9994           0
     43041 TIP3     4802     TIP3     H1       HT       0.417000       1.00800           0
     43042 TIP3     4802     TIP3     H2       HT       0.417000       1.00800           0
     43043 TIP3     4803     TIP3     OH2      OT      -0.834000       15.9994           0
     43044 TIP3     4803     TIP3     H1       HT       0.417000       1.00800           0
     43045 TIP3     4803     TIP3     H2       HT       0.417000       1.00800           0
     43046 TIP3     4804     TIP3     OH2      OT      -0.834000       15.9994           0
     43047 TIP3     4804     TIP3     H1       HT       0.417000       1.00800           0
     43048 TIP3     4804     TIP3     H2       HT       0.417000       1.00800           0
     43049 TIP3     4805     TIP3     OH2      OT      -0.834000       15.9994           0
     43050 TIP3     4805     TIP3     H1       HT       0.417000       1.00800           0
     43051 TIP3     4805     TIP3     H2       HT       0.417000       1.00800           0
     43052 TIP3     4806     TIP3     OH2      OT      -0.834000       15.9994           0
     43053 TIP3     4806     TIP3     H1       HT       0.417000       1.00800           0
     43054 TIP3     4806     TIP3     H2       HT       0.417000       1.00800           0
     43055 TIP3     4807     TIP3     OH2      OT      -0.834000       15.9994           0
     43056 TIP3     4807     TIP3     H1       HT       0.417000       1.00800           0
     43057 TIP3     4807     TIP3     H2       HT       0.417000       1.00800           0
     43058 TIP3     4808     TIP3     OH2      OT      -0.834000       15.9994           0
     43059 TIP3     4808     TIP3     H1       HT       0.417000       1.00800           0
     43060 TIP3     4808     TIP3     H2       HT       0.417000       1.00800           0
     43061 TIP3     4809     TIP3     OH2      OT      -0.834000       15.9994           0
     43062 TIP3     4809     TIP3     H1       HT       0.417000       1.00800           0
     43063 TIP3     4809     TIP3     H2       HT       0.417000       1.00800           0
     43064 TIP3     4810     TIP3     OH2      OT      -0.834000       15.9994           0
     43065 TIP3     4810     TIP3     H1       HT       0.417000       1.00800           0
     43066 TIP3     4810     TIP3     H2       HT       0.417000       1.00800           0
     43067 TIP3     4811     TIP3     OH2      OT      -0.834000       15.9994           0
     43068 TIP3     4811     TIP3     H1       HT       0.417000       1.00800           0
     43069 TIP3     4811     TIP3     H2       HT       0.417000       1.00800           0
     43070 TIP3     4812     TIP3     OH2      OT      -0.834000       15.9994           0
     43071 TIP3     4812     TIP3     H1       HT       0.417000       1.00800           0
     43072 TIP3     4812     TIP3     H2       HT       0.417000       1.00800           0
     43073 TIP3     4813     TIP3     OH2      OT      -0.834000       15.9994           0
     43074 TIP3     4813     TIP3     H1       HT       0.417000       1.00800           0
     43075 TIP3     4813     TIP3     H2       HT       0.417000       1.00800           0
     43076 TIP3     4814     TIP3     OH2      OT      -0.834000       15.9994           0
     43077 TIP3     4814     TIP3     H1       HT       0.417000       1.00800           0
     43078 TIP3     4814     TIP3     H2       HT       0.417000       1.00800           0
     43079 TIP3     4815     TIP3     OH2      OT      -0.834000       15.9994           0
     43080 TIP3     4815     TIP3     H1       HT       0.417000       1.00800           0
     43081 TIP3     4815     TIP3     H2       HT       0.417000       1.00800           0
     43082 TIP3     4816     TIP3     OH2      OT      -0.834000       15.9994           0
     43083 TIP3     4816     TIP3     H1       HT       0.417000       1.00800           0
     43084 TIP3     4816     TIP3     H2       HT       0.417000       1.00800           0
     43085 TIP3     4817     TIP3     OH2      OT      -0.834000       15.9994           0
     43086 TIP3     4817     TIP3     H1       HT       0.417000       1.00800           0
     43087 TIP3     4817     TIP3     H2       HT       0.417000       1.00800           0
     43088 TIP3     4818     TIP3     OH2      OT      -0.834000       15.9994           0
     43089 TIP3     4818     TIP3     H1       HT       0.417000       1.00800           0
     43090 TIP3     4818     TIP3     H2       HT       0.417000       1.00800           0
     43091 TIP3     4819     TIP3     OH2      OT      -0.834000       15.9994           0
     43092 TIP3     4819     TIP3     H1       HT       0.417000       1.00800           0
     43093 TIP3     4819     TIP3     H2       HT       0.417000       1.00800           0
     43094 TIP3     4820     TIP3     OH2      OT      -0.834000       15.9994           0
     43095 TIP3     4820     TIP3     H1       HT       0.417000       1.00800           0
     43096 TIP3     4820     TIP3     H2       HT       0.417000       1.00800           0
     43097 TIP3     4821     TIP3     OH2      OT      -0.834000       15.9994           0
     43098 TIP3     4821     TIP3     H1       HT       0.417000       1.00800           0
     43099 TIP3     4821     TIP3     H2       HT       0.417000       1.00800           0
     43100 TIP3     4822     TIP3     OH2      OT      -0.834000       15.9994           0
     43101 TIP3     4822     TIP3     H1       HT       0.417000       1.00800           0
     43102 TIP3     4822     TIP3     H2       HT       0.417000       1.00800           0
     43103 TIP3     4823     TIP3     OH2      OT      -0.834000       15.9994           0
     43104 TIP3     4823     TIP3     H1       HT       0.417000       1.00800           0
     43105 TIP3     4823     TIP3     H2       HT       0.417000       1.00800           0
     43106 TIP3     4824     TIP3     OH2      OT      -0.834000       15.9994           0
     43107 TIP3     4824     TIP3     H1       HT       0.417000       1.00800           0
     43108 TIP3     4824     TIP3     H2       HT       0.417000       1.00800           0
     43109 TIP3     4825     TIP3     OH2      OT      -0.834000       15.9994           0
     43110 TIP3     4825     TIP3     H1       HT       0.417000       1.00800           0
     43111 TIP3     4825     TIP3     H2       HT       0.417000       1.00800           0
     43112 TIP3     4826     TIP3     OH2      OT      -0.834000       15.9994           0
     43113 TIP3     4826     TIP3     H1       HT       0.417000       1.00800           0
     43114 TIP3     4826     TIP3     H2       HT       0.417000       1.00800           0
     43115 TIP3     4827     TIP3     OH2      OT      -0.834000       15.9994           0
     43116 TIP3     4827     TIP3     H1       HT       0.417000       1.00800           0
     43117 TIP3     4827     TIP3     H2       HT       0.417000       1.00800           0
     43118 TIP3     4828     TIP3     OH2      OT      -0.834000       15.9994           0
     43119 TIP3     4828     TIP3     H1       HT       0.417000       1.00800           0
     43120 TIP3     4828     TIP3     H2       HT       0.417000       1.00800           0
     43121 TIP3     4829     TIP3     OH2      OT      -0.834000       15.9994           0
     43122 TIP3     4829     TIP3     H1       HT       0.417000       1.00800           0
     43123 TIP3     4829     TIP3     H2       HT       0.417000       1.00800           0
     43124 TIP3     4830     TIP3     OH2      OT      -0.834000       15.9994           0
     43125 TIP3     4830     TIP3     H1       HT       0.417000       1.00800           0
     43126 TIP3     4830     TIP3     H2       HT       0.417000       1.00800           0
     43127 TIP3     4831     TIP3     OH2      OT      -0.834000       15.9994           0
     43128 TIP3     4831     TIP3     H1       HT       0.417000       1.00800           0
     43129 TIP3     4831     TIP3     H2       HT       0.417000       1.00800           0
     43130 TIP3     4832     TIP3     OH2      OT      -0.834000       15.9994           0
     43131 TIP3     4832     TIP3     H1       HT       0.417000       1.00800           0
     43132 TIP3     4832     TIP3     H2       HT       0.417000       1.00800           0
     43133 TIP3     4833     TIP3     OH2      OT      -0.834000       15.9994           0
     43134 TIP3     4833     TIP3     H1       HT       0.417000       1.00800           0
     43135 TIP3     4833     TIP3     H2       HT       0.417000       1.00800           0
     43136 TIP3     4834     TIP3     OH2      OT      -0.834000       15.9994           0
     43137 TIP3     4834     TIP3     H1       HT       0.417000       1.00800           0
     43138 TIP3     4834     TIP3     H2       HT       0.417000       1.00800           0
     43139 TIP3     4835     TIP3     OH2      OT      -0.834000       15.9994           0
     43140 TIP3     4835     TIP3     H1       HT       0.417000       1.00800           0
     43141 TIP3     4835     TIP3     H2       HT       0.417000       1.00800           0
     43142 TIP3     4836     TIP3     OH2      OT      -0.834000       15.9994           0
     43143 TIP3     4836     TIP3     H1       HT       0.417000       1.00800           0
     43144 TIP3     4836     TIP3     H2       HT       0.417000       1.00800           0
     43145 TIP3     4837     TIP3     OH2      OT      -0.834000       15.9994           0
     43146 TIP3     4837     TIP3     H1       HT       0.417000       1.00800           0
     43147 TIP3     4837     TIP3     H2       HT       0.417000       1.00800           0
     43148 TIP3     4838     TIP3     OH2      OT      -0.834000       15.9994           0
     43149 TIP3     4838     TIP3     H1       HT       0.417000       1.00800           0
     43150 TIP3     4838     TIP3     H2       HT       0.417000       1.00800           0
     43151 TIP3     4839     TIP3     OH2      OT      -0.834000       15.9994           0
     43152 TIP3     4839     TIP3     H1       HT       0.417000       1.00800           0
     43153 TIP3     4839     TIP3     H2       HT       0.417000       1.00800           0
     43154 TIP3     4840     TIP3     OH2      OT      -0.834000       15.9994           0
     43155 TIP3     4840     TIP3     H1       HT       0.417000       1.00800           0
     43156 TIP3     4840     TIP3     H2       HT       0.417000       1.00800           0
     43157 TIP3     4841     TIP3     OH2      OT      -0.834000       15.9994           0
     43158 TIP3     4841     TIP3     H1       HT       0.417000       1.00800           0
     43159 TIP3     4841     TIP3     H2       HT       0.417000       1.00800           0
     43160 TIP3     4842     TIP3     OH2      OT      -0.834000       15.9994           0
     43161 TIP3     4842     TIP3     H1       HT       0.417000       1.00800           0
     43162 TIP3     4842     TIP3     H2       HT       0.417000       1.00800           0
     43163 TIP3     4843     TIP3     OH2      OT      -0.834000       15.9994           0
     43164 TIP3     4843     TIP3     H1       HT       0.417000       1.00800           0
     43165 TIP3     4843     TIP3     H2       HT       0.417000       1.00800           0
     43166 TIP3     4844     TIP3     OH2      OT      -0.834000       15.9994           0
     43167 TIP3     4844     TIP3     H1       HT       0.417000       1.00800           0
     43168 TIP3     4844     TIP3     H2       HT       0.417000       1.00800           0
     43169 TIP3     4845     TIP3     OH2      OT      -0.834000       15.9994           0
     43170 TIP3     4845     TIP3     H1       HT       0.417000       1.00800           0
     43171 TIP3     4845     TIP3     H2       HT       0.417000       1.00800           0
     43172 TIP3     4846     TIP3     OH2      OT      -0.834000       15.9994           0
     43173 TIP3     4846     TIP3     H1       HT       0.417000       1.00800           0
     43174 TIP3     4846     TIP3     H2       HT       0.417000       1.00800           0
     43175 TIP3     4847     TIP3     OH2      OT      -0.834000       15.9994           0
     43176 TIP3     4847     TIP3     H1       HT       0.417000       1.00800           0
     43177 TIP3     4847     TIP3     H2       HT       0.417000       1.00800           0
     43178 TIP3     4848     TIP3     OH2      OT      -0.834000       15.9994           0
     43179 TIP3     4848     TIP3     H1       HT       0.417000       1.00800           0
     43180 TIP3     4848     TIP3     H2       HT       0.417000       1.00800           0
     43181 TIP3     4849     TIP3     OH2      OT      -0.834000       15.9994           0
     43182 TIP3     4849     TIP3     H1       HT       0.417000       1.00800           0
     43183 TIP3     4849     TIP3     H2       HT       0.417000       1.00800           0
     43184 TIP3     4850     TIP3     OH2      OT      -0.834000       15.9994           0
     43185 TIP3     4850     TIP3     H1       HT       0.417000       1.00800           0
     43186 TIP3     4850     TIP3     H2       HT       0.417000       1.00800           0
     43187 TIP3     4851     TIP3     OH2      OT      -0.834000       15.9994           0
     43188 TIP3     4851     TIP3     H1       HT       0.417000       1.00800           0
     43189 TIP3     4851     TIP3     H2       HT       0.417000       1.00800           0
     43190 TIP3     4852     TIP3     OH2      OT      -0.834000       15.9994           0
     43191 TIP3     4852     TIP3     H1       HT       0.417000       1.00800           0
     43192 TIP3     4852     TIP3     H2       HT       0.417000       1.00800           0
     43193 TIP3     4853     TIP3     OH2      OT      -0.834000       15.9994           0
     43194 TIP3     4853     TIP3     H1       HT       0.417000       1.00800           0
     43195 TIP3     4853     TIP3     H2       HT       0.417000       1.00800           0
     43196 TIP3     4854     TIP3     OH2      OT      -0.834000       15.9994           0
     43197 TIP3     4854     TIP3     H1       HT       0.417000       1.00800           0
     43198 TIP3     4854     TIP3     H2       HT       0.417000       1.00800           0
     43199 TIP3     4855     TIP3     OH2      OT      -0.834000       15.9994           0
     43200 TIP3     4855     TIP3     H1       HT       0.417000       1.00800           0
     43201 TIP3     4855     TIP3     H2       HT       0.417000       1.00800           0
     43202 TIP3     4856     TIP3     OH2      OT      -0.834000       15.9994           0
     43203 TIP3     4856     TIP3     H1       HT       0.417000       1.00800           0
     43204 TIP3     4856     TIP3     H2       HT       0.417000       1.00800           0
     43205 TIP3     4857     TIP3     OH2      OT      -0.834000       15.9994           0
     43206 TIP3     4857     TIP3     H1       HT       0.417000       1.00800           0
     43207 TIP3     4857     TIP3     H2       HT       0.417000       1.00800           0
     43208 TIP3     4858     TIP3     OH2      OT      -0.834000       15.9994           0
     43209 TIP3     4858     TIP3     H1       HT       0.417000       1.00800           0
     43210 TIP3     4858     TIP3     H2       HT       0.417000       1.00800           0
     43211 TIP3     4859     TIP3     OH2      OT      -0.834000       15.9994           0
     43212 TIP3     4859     TIP3     H1       HT       0.417000       1.00800           0
     43213 TIP3     4859     TIP3     H2       HT       0.417000       1.00800           0
     43214 TIP3     4860     TIP3     OH2      OT      -0.834000       15.9994           0
     43215 TIP3     4860     TIP3     H1       HT       0.417000       1.00800           0
     43216 TIP3     4860     TIP3     H2       HT       0.417000       1.00800           0
     43217 TIP3     4861     TIP3     OH2      OT      -0.834000       15.9994           0
     43218 TIP3     4861     TIP3     H1       HT       0.417000       1.00800           0
     43219 TIP3     4861     TIP3     H2       HT       0.417000       1.00800           0
     43220 TIP3     4862     TIP3     OH2      OT      -0.834000       15.9994           0
     43221 TIP3     4862     TIP3     H1       HT       0.417000       1.00800           0
     43222 TIP3     4862     TIP3     H2       HT       0.417000       1.00800           0
     43223 TIP3     4863     TIP3     OH2      OT      -0.834000       15.9994           0
     43224 TIP3     4863     TIP3     H1       HT       0.417000       1.00800           0
     43225 TIP3     4863     TIP3     H2       HT       0.417000       1.00800           0
     43226 TIP3     4864     TIP3     OH2      OT      -0.834000       15.9994           0
     43227 TIP3     4864     TIP3     H1       HT       0.417000       1.00800           0
     43228 TIP3     4864     TIP3     H2       HT       0.417000       1.00800           0
     43229 TIP3     4865     TIP3     OH2      OT      -0.834000       15.9994           0
     43230 TIP3     4865     TIP3     H1       HT       0.417000       1.00800           0
     43231 TIP3     4865     TIP3     H2       HT       0.417000       1.00800           0
     43232 TIP3     4866     TIP3     OH2      OT      -0.834000       15.9994           0
     43233 TIP3     4866     TIP3     H1       HT       0.417000       1.00800           0
     43234 TIP3     4866     TIP3     H2       HT       0.417000       1.00800           0
     43235 TIP3     4867     TIP3     OH2      OT      -0.834000       15.9994           0
     43236 TIP3     4867     TIP3     H1       HT       0.417000       1.00800           0
     43237 TIP3     4867     TIP3     H2       HT       0.417000       1.00800           0
     43238 TIP3     4868     TIP3     OH2      OT      -0.834000       15.9994           0
     43239 TIP3     4868     TIP3     H1       HT       0.417000       1.00800           0
     43240 TIP3     4868     TIP3     H2       HT       0.417000       1.00800           0
     43241 TIP3     4869     TIP3     OH2      OT      -0.834000       15.9994           0
     43242 TIP3     4869     TIP3     H1       HT       0.417000       1.00800           0
     43243 TIP3     4869     TIP3     H2       HT       0.417000       1.00800           0
     43244 TIP3     4870     TIP3     OH2      OT      -0.834000       15.9994           0
     43245 TIP3     4870     TIP3     H1       HT       0.417000       1.00800           0
     43246 TIP3     4870     TIP3     H2       HT       0.417000       1.00800           0
     43247 TIP3     4871     TIP3     OH2      OT      -0.834000       15.9994           0
     43248 TIP3     4871     TIP3     H1       HT       0.417000       1.00800           0
     43249 TIP3     4871     TIP3     H2       HT       0.417000       1.00800           0
     43250 TIP3     4872     TIP3     OH2      OT      -0.834000       15.9994           0
     43251 TIP3     4872     TIP3     H1       HT       0.417000       1.00800           0
     43252 TIP3     4872     TIP3     H2       HT       0.417000       1.00800           0
     43253 TIP3     4873     TIP3     OH2      OT      -0.834000       15.9994           0
     43254 TIP3     4873     TIP3     H1       HT       0.417000       1.00800           0
     43255 TIP3     4873     TIP3     H2       HT       0.417000       1.00800           0
     43256 TIP3     4874     TIP3     OH2      OT      -0.834000       15.9994           0
     43257 TIP3     4874     TIP3     H1       HT       0.417000       1.00800           0
     43258 TIP3     4874     TIP3     H2       HT       0.417000       1.00800           0
     43259 TIP3     4875     TIP3     OH2      OT      -0.834000       15.9994           0
     43260 TIP3     4875     TIP3     H1       HT       0.417000       1.00800           0
     43261 TIP3     4875     TIP3     H2       HT       0.417000       1.00800           0
     43262 TIP3     4876     TIP3     OH2      OT      -0.834000       15.9994           0
     43263 TIP3     4876     TIP3     H1       HT       0.417000       1.00800           0
     43264 TIP3     4876     TIP3     H2       HT       0.417000       1.00800           0
     43265 TIP3     4877     TIP3     OH2      OT      -0.834000       15.9994           0
     43266 TIP3     4877     TIP3     H1       HT       0.417000       1.00800           0
     43267 TIP3     4877     TIP3     H2       HT       0.417000       1.00800           0
     43268 TIP3     4878     TIP3     OH2      OT      -0.834000       15.9994           0
     43269 TIP3     4878     TIP3     H1       HT       0.417000       1.00800           0
     43270 TIP3     4878     TIP3     H2       HT       0.417000       1.00800           0
     43271 TIP3     4879     TIP3     OH2      OT      -0.834000       15.9994           0
     43272 TIP3     4879     TIP3     H1       HT       0.417000       1.00800           0
     43273 TIP3     4879     TIP3     H2       HT       0.417000       1.00800           0
     43274 TIP3     4880     TIP3     OH2      OT      -0.834000       15.9994           0
     43275 TIP3     4880     TIP3     H1       HT       0.417000       1.00800           0
     43276 TIP3     4880     TIP3     H2       HT       0.417000       1.00800           0
     43277 TIP3     4881     TIP3     OH2      OT      -0.834000       15.9994           0
     43278 TIP3     4881     TIP3     H1       HT       0.417000       1.00800           0
     43279 TIP3     4881     TIP3     H2       HT       0.417000       1.00800           0
     43280 TIP3     4882     TIP3     OH2      OT      -0.834000       15.9994           0
     43281 TIP3     4882     TIP3     H1       HT       0.417000       1.00800           0
     43282 TIP3     4882     TIP3     H2       HT       0.417000       1.00800           0
     43283 TIP3     4883     TIP3     OH2      OT      -0.834000       15.9994           0
     43284 TIP3     4883     TIP3     H1       HT       0.417000       1.00800           0
     43285 TIP3     4883     TIP3     H2       HT       0.417000       1.00800           0
     43286 TIP3     4884     TIP3     OH2      OT      -0.834000       15.9994           0
     43287 TIP3     4884     TIP3     H1       HT       0.417000       1.00800           0
     43288 TIP3     4884     TIP3     H2       HT       0.417000       1.00800           0
     43289 TIP3     4885     TIP3     OH2      OT      -0.834000       15.9994           0
     43290 TIP3     4885     TIP3     H1       HT       0.417000       1.00800           0
     43291 TIP3     4885     TIP3     H2       HT       0.417000       1.00800           0
     43292 TIP3     4886     TIP3     OH2      OT      -0.834000       15.9994           0
     43293 TIP3     4886     TIP3     H1       HT       0.417000       1.00800           0
     43294 TIP3     4886     TIP3     H2       HT       0.417000       1.00800           0
     43295 TIP3     4887     TIP3     OH2      OT      -0.834000       15.9994           0
     43296 TIP3     4887     TIP3     H1       HT       0.417000       1.00800           0
     43297 TIP3     4887     TIP3     H2       HT       0.417000       1.00800           0
     43298 TIP3     4888     TIP3     OH2      OT      -0.834000       15.9994           0
     43299 TIP3     4888     TIP3     H1       HT       0.417000       1.00800           0
     43300 TIP3     4888     TIP3     H2       HT       0.417000       1.00800           0
     43301 TIP3     4889     TIP3     OH2      OT      -0.834000       15.9994           0
     43302 TIP3     4889     TIP3     H1       HT       0.417000       1.00800           0
     43303 TIP3     4889     TIP3     H2       HT       0.417000       1.00800           0
     43304 TIP3     4890     TIP3     OH2      OT      -0.834000       15.9994           0
     43305 TIP3     4890     TIP3     H1       HT       0.417000       1.00800           0
     43306 TIP3     4890     TIP3     H2       HT       0.417000       1.00800           0
     43307 TIP3     4891     TIP3     OH2      OT      -0.834000       15.9994           0
     43308 TIP3     4891     TIP3     H1       HT       0.417000       1.00800           0
     43309 TIP3     4891     TIP3     H2       HT       0.417000       1.00800           0
     43310 TIP3     4892     TIP3     OH2      OT      -0.834000       15.9994           0
     43311 TIP3     4892     TIP3     H1       HT       0.417000       1.00800           0
     43312 TIP3     4892     TIP3     H2       HT       0.417000       1.00800           0
     43313 TIP3     4893     TIP3     OH2      OT      -0.834000       15.9994           0
     43314 TIP3     4893     TIP3     H1       HT       0.417000       1.00800           0
     43315 TIP3     4893     TIP3     H2       HT       0.417000       1.00800           0
     43316 TIP3     4894     TIP3     OH2      OT      -0.834000       15.9994           0
     43317 TIP3     4894     TIP3     H1       HT       0.417000       1.00800           0
     43318 TIP3     4894     TIP3     H2       HT       0.417000       1.00800           0
     43319 TIP3     4895     TIP3     OH2      OT      -0.834000       15.9994           0
     43320 TIP3     4895     TIP3     H1       HT       0.417000       1.00800           0
     43321 TIP3     4895     TIP3     H2       HT       0.417000       1.00800           0
     43322 TIP3     4896     TIP3     OH2      OT      -0.834000       15.9994           0
     43323 TIP3     4896     TIP3     H1       HT       0.417000       1.00800           0
     43324 TIP3     4896     TIP3     H2       HT       0.417000       1.00800           0
     43325 TIP3     4897     TIP3     OH2      OT      -0.834000       15.9994           0
     43326 TIP3     4897     TIP3     H1       HT       0.417000       1.00800           0
     43327 TIP3     4897     TIP3     H2       HT       0.417000       1.00800           0
     43328 TIP3     4898     TIP3     OH2      OT      -0.834000       15.9994           0
     43329 TIP3     4898     TIP3     H1       HT       0.417000       1.00800           0
     43330 TIP3     4898     TIP3     H2       HT       0.417000       1.00800           0
     43331 TIP3     4899     TIP3     OH2      OT      -0.834000       15.9994           0
     43332 TIP3     4899     TIP3     H1       HT       0.417000       1.00800           0
     43333 TIP3     4899     TIP3     H2       HT       0.417000       1.00800           0
     43334 TIP3     4900     TIP3     OH2      OT      -0.834000       15.9994           0
     43335 TIP3     4900     TIP3     H1       HT       0.417000       1.00800           0
     43336 TIP3     4900     TIP3     H2       HT       0.417000       1.00800           0
     43337 TIP3     4901     TIP3     OH2      OT      -0.834000       15.9994           0
     43338 TIP3     4901     TIP3     H1       HT       0.417000       1.00800           0
     43339 TIP3     4901     TIP3     H2       HT       0.417000       1.00800           0
     43340 TIP3     4902     TIP3     OH2      OT      -0.834000       15.9994           0
     43341 TIP3     4902     TIP3     H1       HT       0.417000       1.00800           0
     43342 TIP3     4902     TIP3     H2       HT       0.417000       1.00800           0
     43343 TIP3     4903     TIP3     OH2      OT      -0.834000       15.9994           0
     43344 TIP3     4903     TIP3     H1       HT       0.417000       1.00800           0
     43345 TIP3     4903     TIP3     H2       HT       0.417000       1.00800           0
     43346 TIP3     4904     TIP3     OH2      OT      -0.834000       15.9994           0
     43347 TIP3     4904     TIP3     H1       HT       0.417000       1.00800           0
     43348 TIP3     4904     TIP3     H2       HT       0.417000       1.00800           0
     43349 TIP3     4905     TIP3     OH2      OT      -0.834000       15.9994           0
     43350 TIP3     4905     TIP3     H1       HT       0.417000       1.00800           0
     43351 TIP3     4905     TIP3     H2       HT       0.417000       1.00800           0
     43352 TIP3     4906     TIP3     OH2      OT      -0.834000       15.9994           0
     43353 TIP3     4906     TIP3     H1       HT       0.417000       1.00800           0
     43354 TIP3     4906     TIP3     H2       HT       0.417000       1.00800           0
     43355 TIP3     4907     TIP3     OH2      OT      -0.834000       15.9994           0
     43356 TIP3     4907     TIP3     H1       HT       0.417000       1.00800           0
     43357 TIP3     4907     TIP3     H2       HT       0.417000       1.00800           0
     43358 TIP3     4908     TIP3     OH2      OT      -0.834000       15.9994           0
     43359 TIP3     4908     TIP3     H1       HT       0.417000       1.00800           0
     43360 TIP3     4908     TIP3     H2       HT       0.417000       1.00800           0
     43361 TIP3     4909     TIP3     OH2      OT      -0.834000       15.9994           0
     43362 TIP3     4909     TIP3     H1       HT       0.417000       1.00800           0
     43363 TIP3     4909     TIP3     H2       HT       0.417000       1.00800           0
     43364 TIP3     4910     TIP3     OH2      OT      -0.834000       15.9994           0
     43365 TIP3     4910     TIP3     H1       HT       0.417000       1.00800           0
     43366 TIP3     4910     TIP3     H2       HT       0.417000       1.00800           0
     43367 TIP3     4911     TIP3     OH2      OT      -0.834000       15.9994           0
     43368 TIP3     4911     TIP3     H1       HT       0.417000       1.00800           0
     43369 TIP3     4911     TIP3     H2       HT       0.417000       1.00800           0
     43370 TIP3     4912     TIP3     OH2      OT      -0.834000       15.9994           0
     43371 TIP3     4912     TIP3     H1       HT       0.417000       1.00800           0
     43372 TIP3     4912     TIP3     H2       HT       0.417000       1.00800           0
     43373 TIP3     4913     TIP3     OH2      OT      -0.834000       15.9994           0
     43374 TIP3     4913     TIP3     H1       HT       0.417000       1.00800           0
     43375 TIP3     4913     TIP3     H2       HT       0.417000       1.00800           0
     43376 TIP3     4914     TIP3     OH2      OT      -0.834000       15.9994           0
     43377 TIP3     4914     TIP3     H1       HT       0.417000       1.00800           0
     43378 TIP3     4914     TIP3     H2       HT       0.417000       1.00800           0
     43379 TIP3     4915     TIP3     OH2      OT      -0.834000       15.9994           0
     43380 TIP3     4915     TIP3     H1       HT       0.417000       1.00800           0
     43381 TIP3     4915     TIP3     H2       HT       0.417000       1.00800           0
     43382 TIP3     4916     TIP3     OH2      OT      -0.834000       15.9994           0
     43383 TIP3     4916     TIP3     H1       HT       0.417000       1.00800           0
     43384 TIP3     4916     TIP3     H2       HT       0.417000       1.00800           0
     43385 TIP3     4917     TIP3     OH2      OT      -0.834000       15.9994           0
     43386 TIP3     4917     TIP3     H1       HT       0.417000       1.00800           0
     43387 TIP3     4917     TIP3     H2       HT       0.417000       1.00800           0
     43388 TIP3     4918     TIP3     OH2      OT      -0.834000       15.9994           0
     43389 TIP3     4918     TIP3     H1       HT       0.417000       1.00800           0
     43390 TIP3     4918     TIP3     H2       HT       0.417000       1.00800           0
     43391 TIP3     4919     TIP3     OH2      OT      -0.834000       15.9994           0
     43392 TIP3     4919     TIP3     H1       HT       0.417000       1.00800           0
     43393 TIP3     4919     TIP3     H2       HT       0.417000       1.00800           0
     43394 TIP3     4920     TIP3     OH2      OT      -0.834000       15.9994           0
     43395 TIP3     4920     TIP3     H1       HT       0.417000       1.00800           0
     43396 TIP3     4920     TIP3     H2       HT       0.417000       1.00800           0
     43397 TIP3     4921     TIP3     OH2      OT      -0.834000       15.9994           0
     43398 TIP3     4921     TIP3     H1       HT       0.417000       1.00800           0
     43399 TIP3     4921     TIP3     H2       HT       0.417000       1.00800           0
     43400 TIP3     4922     TIP3     OH2      OT      -0.834000       15.9994           0
     43401 TIP3     4922     TIP3     H1       HT       0.417000       1.00800           0
     43402 TIP3     4922     TIP3     H2       HT       0.417000       1.00800           0
     43403 TIP3     4923     TIP3     OH2      OT      -0.834000       15.9994           0
     43404 TIP3     4923     TIP3     H1       HT       0.417000       1.00800           0
     43405 TIP3     4923     TIP3     H2       HT       0.417000       1.00800           0
     43406 TIP3     4924     TIP3     OH2      OT      -0.834000       15.9994           0
     43407 TIP3     4924     TIP3     H1       HT       0.417000       1.00800           0
     43408 TIP3     4924     TIP3     H2       HT       0.417000       1.00800           0
     43409 TIP3     4925     TIP3     OH2      OT      -0.834000       15.9994           0
     43410 TIP3     4925     TIP3     H1       HT       0.417000       1.00800           0
     43411 TIP3     4925     TIP3     H2       HT       0.417000       1.00800           0
     43412 TIP3     4926     TIP3     OH2      OT      -0.834000       15.9994           0
     43413 TIP3     4926     TIP3     H1       HT       0.417000       1.00800           0
     43414 TIP3     4926     TIP3     H2       HT       0.417000       1.00800           0
     43415 TIP3     4927     TIP3     OH2      OT      -0.834000       15.9994           0
     43416 TIP3     4927     TIP3     H1       HT       0.417000       1.00800           0
     43417 TIP3     4927     TIP3     H2       HT       0.417000       1.00800           0
     43418 TIP3     4928     TIP3     OH2      OT      -0.834000       15.9994           0
     43419 TIP3     4928     TIP3     H1       HT       0.417000       1.00800           0
     43420 TIP3     4928     TIP3     H2       HT       0.417000       1.00800           0
     43421 TIP3     4929     TIP3     OH2      OT      -0.834000       15.9994           0
     43422 TIP3     4929     TIP3     H1       HT       0.417000       1.00800           0
     43423 TIP3     4929     TIP3     H2       HT       0.417000       1.00800           0
     43424 TIP3     4930     TIP3     OH2      OT      -0.834000       15.9994           0
     43425 TIP3     4930     TIP3     H1       HT       0.417000       1.00800           0
     43426 TIP3     4930     TIP3     H2       HT       0.417000       1.00800           0
     43427 TIP3     4931     TIP3     OH2      OT      -0.834000       15.9994           0
     43428 TIP3     4931     TIP3     H1       HT       0.417000       1.00800           0
     43429 TIP3     4931     TIP3     H2       HT       0.417000       1.00800           0
     43430 TIP3     4932     TIP3     OH2      OT      -0.834000       15.9994           0
     43431 TIP3     4932     TIP3     H1       HT       0.417000       1.00800           0
     43432 TIP3     4932     TIP3     H2       HT       0.417000       1.00800           0
     43433 TIP3     4933     TIP3     OH2      OT      -0.834000       15.9994           0
     43434 TIP3     4933     TIP3     H1       HT       0.417000       1.00800           0
     43435 TIP3     4933     TIP3     H2       HT       0.417000       1.00800           0
     43436 TIP3     4934     TIP3     OH2      OT      -0.834000       15.9994           0
     43437 TIP3     4934     TIP3     H1       HT       0.417000       1.00800           0
     43438 TIP3     4934     TIP3     H2       HT       0.417000       1.00800           0
     43439 TIP3     4935     TIP3     OH2      OT      -0.834000       15.9994           0
     43440 TIP3     4935     TIP3     H1       HT       0.417000       1.00800           0
     43441 TIP3     4935     TIP3     H2       HT       0.417000       1.00800           0
     43442 TIP3     4936     TIP3     OH2      OT      -0.834000       15.9994           0
     43443 TIP3     4936     TIP3     H1       HT       0.417000       1.00800           0
     43444 TIP3     4936     TIP3     H2       HT       0.417000       1.00800           0
     43445 TIP3     4937     TIP3     OH2      OT      -0.834000       15.9994           0
     43446 TIP3     4937     TIP3     H1       HT       0.417000       1.00800           0
     43447 TIP3     4937     TIP3     H2       HT       0.417000       1.00800           0
     43448 TIP3     4938     TIP3     OH2      OT      -0.834000       15.9994           0
     43449 TIP3     4938     TIP3     H1       HT       0.417000       1.00800           0
     43450 TIP3     4938     TIP3     H2       HT       0.417000       1.00800           0
     43451 TIP3     4939     TIP3     OH2      OT      -0.834000       15.9994           0
     43452 TIP3     4939     TIP3     H1       HT       0.417000       1.00800           0
     43453 TIP3     4939     TIP3     H2       HT       0.417000       1.00800           0
     43454 TIP3     4940     TIP3     OH2      OT      -0.834000       15.9994           0
     43455 TIP3     4940     TIP3     H1       HT       0.417000       1.00800           0
     43456 TIP3     4940     TIP3     H2       HT       0.417000       1.00800           0
     43457 TIP3     4941     TIP3     OH2      OT      -0.834000       15.9994           0
     43458 TIP3     4941     TIP3     H1       HT       0.417000       1.00800           0
     43459 TIP3     4941     TIP3     H2       HT       0.417000       1.00800           0
     43460 TIP3     4942     TIP3     OH2      OT      -0.834000       15.9994           0
     43461 TIP3     4942     TIP3     H1       HT       0.417000       1.00800           0
     43462 TIP3     4942     TIP3     H2       HT       0.417000       1.00800           0
     43463 TIP3     4943     TIP3     OH2      OT      -0.834000       15.9994           0
     43464 TIP3     4943     TIP3     H1       HT       0.417000       1.00800           0
     43465 TIP3     4943     TIP3     H2       HT       0.417000       1.00800           0
     43466 TIP3     4944     TIP3     OH2      OT      -0.834000       15.9994           0
     43467 TIP3     4944     TIP3     H1       HT       0.417000       1.00800           0
     43468 TIP3     4944     TIP3     H2       HT       0.417000       1.00800           0
     43469 TIP3     4945     TIP3     OH2      OT      -0.834000       15.9994           0
     43470 TIP3     4945     TIP3     H1       HT       0.417000       1.00800           0
     43471 TIP3     4945     TIP3     H2       HT       0.417000       1.00800           0
     43472 TIP3     4946     TIP3     OH2      OT      -0.834000       15.9994           0
     43473 TIP3     4946     TIP3     H1       HT       0.417000       1.00800           0
     43474 TIP3     4946     TIP3     H2       HT       0.417000       1.00800           0
     43475 TIP3     4947     TIP3     OH2      OT      -0.834000       15.9994           0
     43476 TIP3     4947     TIP3     H1       HT       0.417000       1.00800           0
     43477 TIP3     4947     TIP3     H2       HT       0.417000       1.00800           0
     43478 TIP3     4948     TIP3     OH2      OT      -0.834000       15.9994           0
     43479 TIP3     4948     TIP3     H1       HT       0.417000       1.00800           0
     43480 TIP3     4948     TIP3     H2       HT       0.417000       1.00800           0
     43481 TIP3     4949     TIP3     OH2      OT      -0.834000       15.9994           0
     43482 TIP3     4949     TIP3     H1       HT       0.417000       1.00800           0
     43483 TIP3     4949     TIP3     H2       HT       0.417000       1.00800           0
     43484 TIP3     4950     TIP3     OH2      OT      -0.834000       15.9994           0
     43485 TIP3     4950     TIP3     H1       HT       0.417000       1.00800           0
     43486 TIP3     4950     TIP3     H2       HT       0.417000       1.00800           0
     43487 TIP3     4951     TIP3     OH2      OT      -0.834000       15.9994           0
     43488 TIP3     4951     TIP3     H1       HT       0.417000       1.00800           0
     43489 TIP3     4951     TIP3     H2       HT       0.417000       1.00800           0
     43490 TIP3     4952     TIP3     OH2      OT      -0.834000       15.9994           0
     43491 TIP3     4952     TIP3     H1       HT       0.417000       1.00800           0
     43492 TIP3     4952     TIP3     H2       HT       0.417000       1.00800           0
     43493 TIP3     4953     TIP3     OH2      OT      -0.834000       15.9994           0
     43494 TIP3     4953     TIP3     H1       HT       0.417000       1.00800           0
     43495 TIP3     4953     TIP3     H2       HT       0.417000       1.00800           0
     43496 TIP3     4954     TIP3     OH2      OT      -0.834000       15.9994           0
     43497 TIP3     4954     TIP3     H1       HT       0.417000       1.00800           0
     43498 TIP3     4954     TIP3     H2       HT       0.417000       1.00800           0
     43499 TIP3     4955     TIP3     OH2      OT      -0.834000       15.9994           0
     43500 TIP3     4955     TIP3     H1       HT       0.417000       1.00800           0
     43501 TIP3     4955     TIP3     H2       HT       0.417000       1.00800           0
     43502 TIP3     4956     TIP3     OH2      OT      -0.834000       15.9994           0
     43503 TIP3     4956     TIP3     H1       HT       0.417000       1.00800           0
     43504 TIP3     4956     TIP3     H2       HT       0.417000       1.00800           0
     43505 TIP3     4957     TIP3     OH2      OT      -0.834000       15.9994           0
     43506 TIP3     4957     TIP3     H1       HT       0.417000       1.00800           0
     43507 TIP3     4957     TIP3     H2       HT       0.417000       1.00800           0
     43508 TIP3     4958     TIP3     OH2      OT      -0.834000       15.9994           0
     43509 TIP3     4958     TIP3     H1       HT       0.417000       1.00800           0
     43510 TIP3     4958     TIP3     H2       HT       0.417000       1.00800           0
     43511 TIP3     4959     TIP3     OH2      OT      -0.834000       15.9994           0
     43512 TIP3     4959     TIP3     H1       HT       0.417000       1.00800           0
     43513 TIP3     4959     TIP3     H2       HT       0.417000       1.00800           0
     43514 TIP3     4960     TIP3     OH2      OT      -0.834000       15.9994           0
     43515 TIP3     4960     TIP3     H1       HT       0.417000       1.00800           0
     43516 TIP3     4960     TIP3     H2       HT       0.417000       1.00800           0
     43517 TIP3     4961     TIP3     OH2      OT      -0.834000       15.9994           0
     43518 TIP3     4961     TIP3     H1       HT       0.417000       1.00800           0
     43519 TIP3     4961     TIP3     H2       HT       0.417000       1.00800           0
     43520 TIP3     4962     TIP3     OH2      OT      -0.834000       15.9994           0
     43521 TIP3     4962     TIP3     H1       HT       0.417000       1.00800           0
     43522 TIP3     4962     TIP3     H2       HT       0.417000       1.00800           0
     43523 TIP3     4963     TIP3     OH2      OT      -0.834000       15.9994           0
     43524 TIP3     4963     TIP3     H1       HT       0.417000       1.00800           0
     43525 TIP3     4963     TIP3     H2       HT       0.417000       1.00800           0
     43526 TIP3     4964     TIP3     OH2      OT      -0.834000       15.9994           0
     43527 TIP3     4964     TIP3     H1       HT       0.417000       1.00800           0
     43528 TIP3     4964     TIP3     H2       HT       0.417000       1.00800           0
     43529 TIP3     4965     TIP3     OH2      OT      -0.834000       15.9994           0
     43530 TIP3     4965     TIP3     H1       HT       0.417000       1.00800           0
     43531 TIP3     4965     TIP3     H2       HT       0.417000       1.00800           0
     43532 TIP3     4966     TIP3     OH2      OT      -0.834000       15.9994           0
     43533 TIP3     4966     TIP3     H1       HT       0.417000       1.00800           0
     43534 TIP3     4966     TIP3     H2       HT       0.417000       1.00800           0
     43535 TIP3     4967     TIP3     OH2      OT      -0.834000       15.9994           0
     43536 TIP3     4967     TIP3     H1       HT       0.417000       1.00800           0
     43537 TIP3     4967     TIP3     H2       HT       0.417000       1.00800           0
     43538 TIP3     4968     TIP3     OH2      OT      -0.834000       15.9994           0
     43539 TIP3     4968     TIP3     H1       HT       0.417000       1.00800           0
     43540 TIP3     4968     TIP3     H2       HT       0.417000       1.00800           0
     43541 TIP3     4969     TIP3     OH2      OT      -0.834000       15.9994           0
     43542 TIP3     4969     TIP3     H1       HT       0.417000       1.00800           0
     43543 TIP3     4969     TIP3     H2       HT       0.417000       1.00800           0
     43544 TIP3     4970     TIP3     OH2      OT      -0.834000       15.9994           0
     43545 TIP3     4970     TIP3     H1       HT       0.417000       1.00800           0
     43546 TIP3     4970     TIP3     H2       HT       0.417000       1.00800           0
     43547 TIP3     4971     TIP3     OH2      OT      -0.834000       15.9994           0
     43548 TIP3     4971     TIP3     H1       HT       0.417000       1.00800           0
     43549 TIP3     4971     TIP3     H2       HT       0.417000       1.00800           0
     43550 TIP3     4972     TIP3     OH2      OT      -0.834000       15.9994           0
     43551 TIP3     4972     TIP3     H1       HT       0.417000       1.00800           0
     43552 TIP3     4972     TIP3     H2       HT       0.417000       1.00800           0
     43553 TIP3     4973     TIP3     OH2      OT      -0.834000       15.9994           0
     43554 TIP3     4973     TIP3     H1       HT       0.417000       1.00800           0
     43555 TIP3     4973     TIP3     H2       HT       0.417000       1.00800           0
     43556 TIP3     4974     TIP3     OH2      OT      -0.834000       15.9994           0
     43557 TIP3     4974     TIP3     H1       HT       0.417000       1.00800           0
     43558 TIP3     4974     TIP3     H2       HT       0.417000       1.00800           0
     43559 TIP3     4975     TIP3     OH2      OT      -0.834000       15.9994           0
     43560 TIP3     4975     TIP3     H1       HT       0.417000       1.00800           0
     43561 TIP3     4975     TIP3     H2       HT       0.417000       1.00800           0
     43562 TIP3     4976     TIP3     OH2      OT      -0.834000       15.9994           0
     43563 TIP3     4976     TIP3     H1       HT       0.417000       1.00800           0
     43564 TIP3     4976     TIP3     H2       HT       0.417000       1.00800           0
     43565 TIP3     4977     TIP3     OH2      OT      -0.834000       15.9994           0
     43566 TIP3     4977     TIP3     H1       HT       0.417000       1.00800           0
     43567 TIP3     4977     TIP3     H2       HT       0.417000       1.00800           0
     43568 TIP3     4978     TIP3     OH2      OT      -0.834000       15.9994           0
     43569 TIP3     4978     TIP3     H1       HT       0.417000       1.00800           0
     43570 TIP3     4978     TIP3     H2       HT       0.417000       1.00800           0
     43571 TIP3     4979     TIP3     OH2      OT      -0.834000       15.9994           0
     43572 TIP3     4979     TIP3     H1       HT       0.417000       1.00800           0
     43573 TIP3     4979     TIP3     H2       HT       0.417000       1.00800           0
     43574 TIP3     4980     TIP3     OH2      OT      -0.834000       15.9994           0
     43575 TIP3     4980     TIP3     H1       HT       0.417000       1.00800           0
     43576 TIP3     4980     TIP3     H2       HT       0.417000       1.00800           0
     43577 TIP3     4981     TIP3     OH2      OT      -0.834000       15.9994           0
     43578 TIP3     4981     TIP3     H1       HT       0.417000       1.00800           0
     43579 TIP3     4981     TIP3     H2       HT       0.417000       1.00800           0
     43580 TIP3     4982     TIP3     OH2      OT      -0.834000       15.9994           0
     43581 TIP3     4982     TIP3     H1       HT       0.417000       1.00800           0
     43582 TIP3     4982     TIP3     H2       HT       0.417000       1.00800           0
     43583 TIP3     4983     TIP3     OH2      OT      -0.834000       15.9994           0
     43584 TIP3     4983     TIP3     H1       HT       0.417000       1.00800           0
     43585 TIP3     4983     TIP3     H2       HT       0.417000       1.00800           0
     43586 TIP3     4984     TIP3     OH2      OT      -0.834000       15.9994           0
     43587 TIP3     4984     TIP3     H1       HT       0.417000       1.00800           0
     43588 TIP3     4984     TIP3     H2       HT       0.417000       1.00800           0
     43589 TIP3     4985     TIP3     OH2      OT      -0.834000       15.9994           0
     43590 TIP3     4985     TIP3     H1       HT       0.417000       1.00800           0
     43591 TIP3     4985     TIP3     H2       HT       0.417000       1.00800           0
     43592 TIP3     4986     TIP3     OH2      OT      -0.834000       15.9994           0
     43593 TIP3     4986     TIP3     H1       HT       0.417000       1.00800           0
     43594 TIP3     4986     TIP3     H2       HT       0.417000       1.00800           0
     43595 TIP3     4987     TIP3     OH2      OT      -0.834000       15.9994           0
     43596 TIP3     4987     TIP3     H1       HT       0.417000       1.00800           0
     43597 TIP3     4987     TIP3     H2       HT       0.417000       1.00800           0
     43598 TIP3     4988     TIP3     OH2      OT      -0.834000       15.9994           0
     43599 TIP3     4988     TIP3     H1       HT       0.417000       1.00800           0
     43600 TIP3     4988     TIP3     H2       HT       0.417000       1.00800           0
     43601 TIP3     4989     TIP3     OH2      OT      -0.834000       15.9994           0
     43602 TIP3     4989     TIP3     H1       HT       0.417000       1.00800           0
     43603 TIP3     4989     TIP3     H2       HT       0.417000       1.00800           0
     43604 TIP3     4990     TIP3     OH2      OT      -0.834000       15.9994           0
     43605 TIP3     4990     TIP3     H1       HT       0.417000       1.00800           0
     43606 TIP3     4990     TIP3     H2       HT       0.417000       1.00800           0
     43607 TIP3     4991     TIP3     OH2      OT      -0.834000       15.9994           0
     43608 TIP3     4991     TIP3     H1       HT       0.417000       1.00800           0
     43609 TIP3     4991     TIP3     H2       HT       0.417000       1.00800           0
     43610 TIP3     4992     TIP3     OH2      OT      -0.834000       15.9994           0
     43611 TIP3     4992     TIP3     H1       HT       0.417000       1.00800           0
     43612 TIP3     4992     TIP3     H2       HT       0.417000       1.00800           0
     43613 TIP3     4993     TIP3     OH2      OT      -0.834000       15.9994           0
     43614 TIP3     4993     TIP3     H1       HT       0.417000       1.00800           0
     43615 TIP3     4993     TIP3     H2       HT       0.417000       1.00800           0
     43616 TIP3     4994     TIP3     OH2      OT      -0.834000       15.9994           0
     43617 TIP3     4994     TIP3     H1       HT       0.417000       1.00800           0
     43618 TIP3     4994     TIP3     H2       HT       0.417000       1.00800           0
     43619 TIP3     4995     TIP3     OH2      OT      -0.834000       15.9994           0
     43620 TIP3     4995     TIP3     H1       HT       0.417000       1.00800           0
     43621 TIP3     4995     TIP3     H2       HT       0.417000       1.00800           0
     43622 TIP3     4996     TIP3     OH2      OT      -0.834000       15.9994           0
     43623 TIP3     4996     TIP3     H1       HT       0.417000       1.00800           0
     43624 TIP3     4996     TIP3     H2       HT       0.417000       1.00800           0
     43625 TIP3     4997     TIP3     OH2      OT      -0.834000       15.9994           0
     43626 TIP3     4997     TIP3     H1       HT       0.417000       1.00800           0
     43627 TIP3     4997     TIP3     H2       HT       0.417000       1.00800           0
     43628 TIP3     4998     TIP3     OH2      OT      -0.834000       15.9994           0
     43629 TIP3     4998     TIP3     H1       HT       0.417000       1.00800           0
     43630 TIP3     4998     TIP3     H2       HT       0.417000       1.00800           0
     43631 TIP3     4999     TIP3     OH2      OT      -0.834000       15.9994           0
     43632 TIP3     4999     TIP3     H1       HT       0.417000       1.00800           0
     43633 TIP3     4999     TIP3     H2       HT       0.417000       1.00800           0
     43634 TIP3     5000     TIP3     OH2      OT      -0.834000       15.9994           0
     43635 TIP3     5000     TIP3     H1       HT       0.417000       1.00800           0
     43636 TIP3     5000     TIP3     H2       HT       0.417000       1.00800           0
     43637 TIP3     5001     TIP3     OH2      OT      -0.834000       15.9994           0
     43638 TIP3     5001     TIP3     H1       HT       0.417000       1.00800           0
     43639 TIP3     5001     TIP3     H2       HT       0.417000       1.00800           0
     43640 TIP3     5002     TIP3     OH2      OT      -0.834000       15.9994           0
     43641 TIP3     5002     TIP3     H1       HT       0.417000       1.00800           0
     43642 TIP3     5002     TIP3     H2       HT       0.417000       1.00800           0
     43643 TIP3     5003     TIP3     OH2      OT      -0.834000       15.9994           0
     43644 TIP3     5003     TIP3     H1       HT       0.417000       1.00800           0
     43645 TIP3     5003     TIP3     H2       HT       0.417000       1.00800           0
     43646 TIP3     5004     TIP3     OH2      OT      -0.834000       15.9994           0
     43647 TIP3     5004     TIP3     H1       HT       0.417000       1.00800           0
     43648 TIP3     5004     TIP3     H2       HT       0.417000       1.00800           0
     43649 TIP3     5005     TIP3     OH2      OT      -0.834000       15.9994           0
     43650 TIP3     5005     TIP3     H1       HT       0.417000       1.00800           0
     43651 TIP3     5005     TIP3     H2       HT       0.417000       1.00800           0
     43652 TIP3     5006     TIP3     OH2      OT      -0.834000       15.9994           0
     43653 TIP3     5006     TIP3     H1       HT       0.417000       1.00800           0
     43654 TIP3     5006     TIP3     H2       HT       0.417000       1.00800           0
     43655 TIP3     5007     TIP3     OH2      OT      -0.834000       15.9994           0
     43656 TIP3     5007     TIP3     H1       HT       0.417000       1.00800           0
     43657 TIP3     5007     TIP3     H2       HT       0.417000       1.00800           0
     43658 TIP3     5008     TIP3     OH2      OT      -0.834000       15.9994           0
     43659 TIP3     5008     TIP3     H1       HT       0.417000       1.00800           0
     43660 TIP3     5008     TIP3     H2       HT       0.417000       1.00800           0
     43661 TIP3     5009     TIP3     OH2      OT      -0.834000       15.9994           0
     43662 TIP3     5009     TIP3     H1       HT       0.417000       1.00800           0
     43663 TIP3     5009     TIP3     H2       HT       0.417000       1.00800           0
     43664 TIP3     5010     TIP3     OH2      OT      -0.834000       15.9994           0
     43665 TIP3     5010     TIP3     H1       HT       0.417000       1.00800           0
     43666 TIP3     5010     TIP3     H2       HT       0.417000       1.00800           0
     43667 TIP3     5011     TIP3     OH2      OT      -0.834000       15.9994           0
     43668 TIP3     5011     TIP3     H1       HT       0.417000       1.00800           0
     43669 TIP3     5011     TIP3     H2       HT       0.417000       1.00800           0
     43670 TIP3     5012     TIP3     OH2      OT      -0.834000       15.9994           0
     43671 TIP3     5012     TIP3     H1       HT       0.417000       1.00800           0
     43672 TIP3     5012     TIP3     H2       HT       0.417000       1.00800           0
     43673 TIP3     5013     TIP3     OH2      OT      -0.834000       15.9994           0
     43674 TIP3     5013     TIP3     H1       HT       0.417000       1.00800           0
     43675 TIP3     5013     TIP3     H2       HT       0.417000       1.00800           0
     43676 TIP3     5014     TIP3     OH2      OT      -0.834000       15.9994           0
     43677 TIP3     5014     TIP3     H1       HT       0.417000       1.00800           0
     43678 TIP3     5014     TIP3     H2       HT       0.417000       1.00800           0
     43679 TIP3     5015     TIP3     OH2      OT      -0.834000       15.9994           0
     43680 TIP3     5015     TIP3     H1       HT       0.417000       1.00800           0
     43681 TIP3     5015     TIP3     H2       HT       0.417000       1.00800           0
     43682 TIP3     5016     TIP3     OH2      OT      -0.834000       15.9994           0
     43683 TIP3     5016     TIP3     H1       HT       0.417000       1.00800           0
     43684 TIP3     5016     TIP3     H2       HT       0.417000       1.00800           0
     43685 TIP3     5017     TIP3     OH2      OT      -0.834000       15.9994           0
     43686 TIP3     5017     TIP3     H1       HT       0.417000       1.00800           0
     43687 TIP3     5017     TIP3     H2       HT       0.417000       1.00800           0
     43688 TIP3     5018     TIP3     OH2      OT      -0.834000       15.9994           0
     43689 TIP3     5018     TIP3     H1       HT       0.417000       1.00800           0
     43690 TIP3     5018     TIP3     H2       HT       0.417000       1.00800           0
     43691 TIP3     5019     TIP3     OH2      OT      -0.834000       15.9994           0
     43692 TIP3     5019     TIP3     H1       HT       0.417000       1.00800           0
     43693 TIP3     5019     TIP3     H2       HT       0.417000       1.00800           0
     43694 TIP3     5020     TIP3     OH2      OT      -0.834000       15.9994           0
     43695 TIP3     5020     TIP3     H1       HT       0.417000       1.00800           0
     43696 TIP3     5020     TIP3     H2       HT       0.417000       1.00800           0
     43697 TIP3     5021     TIP3     OH2      OT      -0.834000       15.9994           0
     43698 TIP3     5021     TIP3     H1       HT       0.417000       1.00800           0
     43699 TIP3     5021     TIP3     H2       HT       0.417000       1.00800           0
     43700 TIP3     5022     TIP3     OH2      OT      -0.834000       15.9994           0
     43701 TIP3     5022     TIP3     H1       HT       0.417000       1.00800           0
     43702 TIP3     5022     TIP3     H2       HT       0.417000       1.00800           0
     43703 TIP3     5023     TIP3     OH2      OT      -0.834000       15.9994           0
     43704 TIP3     5023     TIP3     H1       HT       0.417000       1.00800           0
     43705 TIP3     5023     TIP3     H2       HT       0.417000       1.00800           0
     43706 TIP3     5024     TIP3     OH2      OT      -0.834000       15.9994           0
     43707 TIP3     5024     TIP3     H1       HT       0.417000       1.00800           0
     43708 TIP3     5024     TIP3     H2       HT       0.417000       1.00800           0
     43709 TIP3     5025     TIP3     OH2      OT      -0.834000       15.9994           0
     43710 TIP3     5025     TIP3     H1       HT       0.417000       1.00800           0
     43711 TIP3     5025     TIP3     H2       HT       0.417000       1.00800           0
     43712 TIP3     5026     TIP3     OH2      OT      -0.834000       15.9994           0
     43713 TIP3     5026     TIP3     H1       HT       0.417000       1.00800           0
     43714 TIP3     5026     TIP3     H2       HT       0.417000       1.00800           0
     43715 TIP3     5027     TIP3     OH2      OT      -0.834000       15.9994           0
     43716 TIP3     5027     TIP3     H1       HT       0.417000       1.00800           0
     43717 TIP3     5027     TIP3     H2       HT       0.417000       1.00800           0
     43718 TIP3     5028     TIP3     OH2      OT      -0.834000       15.9994           0
     43719 TIP3     5028     TIP3     H1       HT       0.417000       1.00800           0
     43720 TIP3     5028     TIP3     H2       HT       0.417000       1.00800           0
     43721 TIP3     5029     TIP3     OH2      OT      -0.834000       15.9994           0
     43722 TIP3     5029     TIP3     H1       HT       0.417000       1.00800           0
     43723 TIP3     5029     TIP3     H2       HT       0.417000       1.00800           0
     43724 TIP3     5030     TIP3     OH2      OT      -0.834000       15.9994           0
     43725 TIP3     5030     TIP3     H1       HT       0.417000       1.00800           0
     43726 TIP3     5030     TIP3     H2       HT       0.417000       1.00800           0
     43727 TIP3     5031     TIP3     OH2      OT      -0.834000       15.9994           0
     43728 TIP3     5031     TIP3     H1       HT       0.417000       1.00800           0
     43729 TIP3     5031     TIP3     H2       HT       0.417000       1.00800           0
     43730 TIP3     5032     TIP3     OH2      OT      -0.834000       15.9994           0
     43731 TIP3     5032     TIP3     H1       HT       0.417000       1.00800           0
     43732 TIP3     5032     TIP3     H2       HT       0.417000       1.00800           0
     43733 TIP3     5033     TIP3     OH2      OT      -0.834000       15.9994           0
     43734 TIP3     5033     TIP3     H1       HT       0.417000       1.00800           0
     43735 TIP3     5033     TIP3     H2       HT       0.417000       1.00800           0
     43736 TIP3     5034     TIP3     OH2      OT      -0.834000       15.9994           0
     43737 TIP3     5034     TIP3     H1       HT       0.417000       1.00800           0
     43738 TIP3     5034     TIP3     H2       HT       0.417000       1.00800           0
     43739 TIP3     5035     TIP3     OH2      OT      -0.834000       15.9994           0
     43740 TIP3     5035     TIP3     H1       HT       0.417000       1.00800           0
     43741 TIP3     5035     TIP3     H2       HT       0.417000       1.00800           0
     43742 TIP3     5036     TIP3     OH2      OT      -0.834000       15.9994           0
     43743 TIP3     5036     TIP3     H1       HT       0.417000       1.00800           0
     43744 TIP3     5036     TIP3     H2       HT       0.417000       1.00800           0
     43745 TIP3     5037     TIP3     OH2      OT      -0.834000       15.9994           0
     43746 TIP3     5037     TIP3     H1       HT       0.417000       1.00800           0
     43747 TIP3     5037     TIP3     H2       HT       0.417000       1.00800           0
     43748 TIP3     5038     TIP3     OH2      OT      -0.834000       15.9994           0
     43749 TIP3     5038     TIP3     H1       HT       0.417000       1.00800           0
     43750 TIP3     5038     TIP3     H2       HT       0.417000       1.00800           0
     43751 TIP3     5039     TIP3     OH2      OT      -0.834000       15.9994           0
     43752 TIP3     5039     TIP3     H1       HT       0.417000       1.00800           0
     43753 TIP3     5039     TIP3     H2       HT       0.417000       1.00800           0
     43754 TIP3     5040     TIP3     OH2      OT      -0.834000       15.9994           0
     43755 TIP3     5040     TIP3     H1       HT       0.417000       1.00800           0
     43756 TIP3     5040     TIP3     H2       HT       0.417000       1.00800           0
     43757 TIP3     5041     TIP3     OH2      OT      -0.834000       15.9994           0
     43758 TIP3     5041     TIP3     H1       HT       0.417000       1.00800           0
     43759 TIP3     5041     TIP3     H2       HT       0.417000       1.00800           0
     43760 TIP3     5042     TIP3     OH2      OT      -0.834000       15.9994           0
     43761 TIP3     5042     TIP3     H1       HT       0.417000       1.00800           0
     43762 TIP3     5042     TIP3     H2       HT       0.417000       1.00800           0
     43763 TIP3     5043     TIP3     OH2      OT      -0.834000       15.9994           0
     43764 TIP3     5043     TIP3     H1       HT       0.417000       1.00800           0
     43765 TIP3     5043     TIP3     H2       HT       0.417000       1.00800           0
     43766 TIP3     5044     TIP3     OH2      OT      -0.834000       15.9994           0
     43767 TIP3     5044     TIP3     H1       HT       0.417000       1.00800           0
     43768 TIP3     5044     TIP3     H2       HT       0.417000       1.00800           0
     43769 TIP3     5045     TIP3     OH2      OT      -0.834000       15.9994           0
     43770 TIP3     5045     TIP3     H1       HT       0.417000       1.00800           0
     43771 TIP3     5045     TIP3     H2       HT       0.417000       1.00800           0
     43772 TIP3     5046     TIP3     OH2      OT      -0.834000       15.9994           0
     43773 TIP3     5046     TIP3     H1       HT       0.417000       1.00800           0
     43774 TIP3     5046     TIP3     H2       HT       0.417000       1.00800           0
     43775 TIP3     5047     TIP3     OH2      OT      -0.834000       15.9994           0
     43776 TIP3     5047     TIP3     H1       HT       0.417000       1.00800           0
     43777 TIP3     5047     TIP3     H2       HT       0.417000       1.00800           0
     43778 TIP3     5048     TIP3     OH2      OT      -0.834000       15.9994           0
     43779 TIP3     5048     TIP3     H1       HT       0.417000       1.00800           0
     43780 TIP3     5048     TIP3     H2       HT       0.417000       1.00800           0
     43781 TIP3     5049     TIP3     OH2      OT      -0.834000       15.9994           0
     43782 TIP3     5049     TIP3     H1       HT       0.417000       1.00800           0
     43783 TIP3     5049     TIP3     H2       HT       0.417000       1.00800           0
     43784 TIP3     5050     TIP3     OH2      OT      -0.834000       15.9994           0
     43785 TIP3     5050     TIP3     H1       HT       0.417000       1.00800           0
     43786 TIP3     5050     TIP3     H2       HT       0.417000       1.00800           0
     43787 TIP3     5051     TIP3     OH2      OT      -0.834000       15.9994           0
     43788 TIP3     5051     TIP3     H1       HT       0.417000       1.00800           0
     43789 TIP3     5051     TIP3     H2       HT       0.417000       1.00800           0
     43790 TIP3     5052     TIP3     OH2      OT      -0.834000       15.9994           0
     43791 TIP3     5052     TIP3     H1       HT       0.417000       1.00800           0
     43792 TIP3     5052     TIP3     H2       HT       0.417000       1.00800           0
     43793 TIP3     5053     TIP3     OH2      OT      -0.834000       15.9994           0
     43794 TIP3     5053     TIP3     H1       HT       0.417000       1.00800           0
     43795 TIP3     5053     TIP3     H2       HT       0.417000       1.00800           0
     43796 TIP3     5054     TIP3     OH2      OT      -0.834000       15.9994           0
     43797 TIP3     5054     TIP3     H1       HT       0.417000       1.00800           0
     43798 TIP3     5054     TIP3     H2       HT       0.417000       1.00800           0
     43799 TIP3     5055     TIP3     OH2      OT      -0.834000       15.9994           0
     43800 TIP3     5055     TIP3     H1       HT       0.417000       1.00800           0
     43801 TIP3     5055     TIP3     H2       HT       0.417000       1.00800           0
     43802 TIP3     5056     TIP3     OH2      OT      -0.834000       15.9994           0
     43803 TIP3     5056     TIP3     H1       HT       0.417000       1.00800           0
     43804 TIP3     5056     TIP3     H2       HT       0.417000       1.00800           0
     43805 TIP3     5057     TIP3     OH2      OT      -0.834000       15.9994           0
     43806 TIP3     5057     TIP3     H1       HT       0.417000       1.00800           0
     43807 TIP3     5057     TIP3     H2       HT       0.417000       1.00800           0
     43808 TIP3     5058     TIP3     OH2      OT      -0.834000       15.9994           0
     43809 TIP3     5058     TIP3     H1       HT       0.417000       1.00800           0
     43810 TIP3     5058     TIP3     H2       HT       0.417000       1.00800           0
     43811 TIP3     5059     TIP3     OH2      OT      -0.834000       15.9994           0
     43812 TIP3     5059     TIP3     H1       HT       0.417000       1.00800           0
     43813 TIP3     5059     TIP3     H2       HT       0.417000       1.00800           0
     43814 TIP3     5060     TIP3     OH2      OT      -0.834000       15.9994           0
     43815 TIP3     5060     TIP3     H1       HT       0.417000       1.00800           0
     43816 TIP3     5060     TIP3     H2       HT       0.417000       1.00800           0
     43817 TIP3     5061     TIP3     OH2      OT      -0.834000       15.9994           0
     43818 TIP3     5061     TIP3     H1       HT       0.417000       1.00800           0
     43819 TIP3     5061     TIP3     H2       HT       0.417000       1.00800           0
     43820 TIP3     5062     TIP3     OH2      OT      -0.834000       15.9994           0
     43821 TIP3     5062     TIP3     H1       HT       0.417000       1.00800           0
     43822 TIP3     5062     TIP3     H2       HT       0.417000       1.00800           0
     43823 TIP3     5063     TIP3     OH2      OT      -0.834000       15.9994           0
     43824 TIP3     5063     TIP3     H1       HT       0.417000       1.00800           0
     43825 TIP3     5063     TIP3     H2       HT       0.417000       1.00800           0
     43826 TIP3     5064     TIP3     OH2      OT      -0.834000       15.9994           0
     43827 TIP3     5064     TIP3     H1       HT       0.417000       1.00800           0
     43828 TIP3     5064     TIP3     H2       HT       0.417000       1.00800           0
     43829 TIP3     5065     TIP3     OH2      OT      -0.834000       15.9994           0
     43830 TIP3     5065     TIP3     H1       HT       0.417000       1.00800           0
     43831 TIP3     5065     TIP3     H2       HT       0.417000       1.00800           0
     43832 TIP3     5066     TIP3     OH2      OT      -0.834000       15.9994           0
     43833 TIP3     5066     TIP3     H1       HT       0.417000       1.00800           0
     43834 TIP3     5066     TIP3     H2       HT       0.417000       1.00800           0
     43835 TIP3     5067     TIP3     OH2      OT      -0.834000       15.9994           0
     43836 TIP3     5067     TIP3     H1       HT       0.417000       1.00800           0
     43837 TIP3     5067     TIP3     H2       HT       0.417000       1.00800           0
     43838 TIP3     5068     TIP3     OH2      OT      -0.834000       15.9994           0
     43839 TIP3     5068     TIP3     H1       HT       0.417000       1.00800           0
     43840 TIP3     5068     TIP3     H2       HT       0.417000       1.00800           0
     43841 TIP3     5069     TIP3     OH2      OT      -0.834000       15.9994           0
     43842 TIP3     5069     TIP3     H1       HT       0.417000       1.00800           0
     43843 TIP3     5069     TIP3     H2       HT       0.417000       1.00800           0
     43844 TIP3     5070     TIP3     OH2      OT      -0.834000       15.9994           0
     43845 TIP3     5070     TIP3     H1       HT       0.417000       1.00800           0
     43846 TIP3     5070     TIP3     H2       HT       0.417000       1.00800           0
     43847 TIP3     5071     TIP3     OH2      OT      -0.834000       15.9994           0
     43848 TIP3     5071     TIP3     H1       HT       0.417000       1.00800           0
     43849 TIP3     5071     TIP3     H2       HT       0.417000       1.00800           0
     43850 TIP3     5072     TIP3     OH2      OT      -0.834000       15.9994           0
     43851 TIP3     5072     TIP3     H1       HT       0.417000       1.00800           0
     43852 TIP3     5072     TIP3     H2       HT       0.417000       1.00800           0
     43853 TIP3     5073     TIP3     OH2      OT      -0.834000       15.9994           0
     43854 TIP3     5073     TIP3     H1       HT       0.417000       1.00800           0
     43855 TIP3     5073     TIP3     H2       HT       0.417000       1.00800           0
     43856 TIP3     5074     TIP3     OH2      OT      -0.834000       15.9994           0
     43857 TIP3     5074     TIP3     H1       HT       0.417000       1.00800           0
     43858 TIP3     5074     TIP3     H2       HT       0.417000       1.00800           0
     43859 TIP3     5075     TIP3     OH2      OT      -0.834000       15.9994           0
     43860 TIP3     5075     TIP3     H1       HT       0.417000       1.00800           0
     43861 TIP3     5075     TIP3     H2       HT       0.417000       1.00800           0
     43862 TIP3     5076     TIP3     OH2      OT      -0.834000       15.9994           0
     43863 TIP3     5076     TIP3     H1       HT       0.417000       1.00800           0
     43864 TIP3     5076     TIP3     H2       HT       0.417000       1.00800           0
     43865 TIP3     5077     TIP3     OH2      OT      -0.834000       15.9994           0
     43866 TIP3     5077     TIP3     H1       HT       0.417000       1.00800           0
     43867 TIP3     5077     TIP3     H2       HT       0.417000       1.00800           0
     43868 TIP3     5078     TIP3     OH2      OT      -0.834000       15.9994           0
     43869 TIP3     5078     TIP3     H1       HT       0.417000       1.00800           0
     43870 TIP3     5078     TIP3     H2       HT       0.417000       1.00800           0
     43871 TIP3     5079     TIP3     OH2      OT      -0.834000       15.9994           0
     43872 TIP3     5079     TIP3     H1       HT       0.417000       1.00800           0
     43873 TIP3     5079     TIP3     H2       HT       0.417000       1.00800           0
     43874 TIP3     5080     TIP3     OH2      OT      -0.834000       15.9994           0
     43875 TIP3     5080     TIP3     H1       HT       0.417000       1.00800           0
     43876 TIP3     5080     TIP3     H2       HT       0.417000       1.00800           0
     43877 TIP3     5081     TIP3     OH2      OT      -0.834000       15.9994           0
     43878 TIP3     5081     TIP3     H1       HT       0.417000       1.00800           0
     43879 TIP3     5081     TIP3     H2       HT       0.417000       1.00800           0
     43880 TIP3     5082     TIP3     OH2      OT      -0.834000       15.9994           0
     43881 TIP3     5082     TIP3     H1       HT       0.417000       1.00800           0
     43882 TIP3     5082     TIP3     H2       HT       0.417000       1.00800           0
     43883 TIP3     5083     TIP3     OH2      OT      -0.834000       15.9994           0
     43884 TIP3     5083     TIP3     H1       HT       0.417000       1.00800           0
     43885 TIP3     5083     TIP3     H2       HT       0.417000       1.00800           0
     43886 TIP3     5084     TIP3     OH2      OT      -0.834000       15.9994           0
     43887 TIP3     5084     TIP3     H1       HT       0.417000       1.00800           0
     43888 TIP3     5084     TIP3     H2       HT       0.417000       1.00800           0
     43889 TIP3     5085     TIP3     OH2      OT      -0.834000       15.9994           0
     43890 TIP3     5085     TIP3     H1       HT       0.417000       1.00800           0
     43891 TIP3     5085     TIP3     H2       HT       0.417000       1.00800           0
     43892 TIP3     5086     TIP3     OH2      OT      -0.834000       15.9994           0
     43893 TIP3     5086     TIP3     H1       HT       0.417000       1.00800           0
     43894 TIP3     5086     TIP3     H2       HT       0.417000       1.00800           0
     43895 TIP3     5087     TIP3     OH2      OT      -0.834000       15.9994           0
     43896 TIP3     5087     TIP3     H1       HT       0.417000       1.00800           0
     43897 TIP3     5087     TIP3     H2       HT       0.417000       1.00800           0
     43898 TIP3     5088     TIP3     OH2      OT      -0.834000       15.9994           0
     43899 TIP3     5088     TIP3     H1       HT       0.417000       1.00800           0
     43900 TIP3     5088     TIP3     H2       HT       0.417000       1.00800           0
     43901 TIP3     5089     TIP3     OH2      OT      -0.834000       15.9994           0
     43902 TIP3     5089     TIP3     H1       HT       0.417000       1.00800           0
     43903 TIP3     5089     TIP3     H2       HT       0.417000       1.00800           0
     43904 TIP3     5090     TIP3     OH2      OT      -0.834000       15.9994           0
     43905 TIP3     5090     TIP3     H1       HT       0.417000       1.00800           0
     43906 TIP3     5090     TIP3     H2       HT       0.417000       1.00800           0
     43907 TIP3     5091     TIP3     OH2      OT      -0.834000       15.9994           0
     43908 TIP3     5091     TIP3     H1       HT       0.417000       1.00800           0
     43909 TIP3     5091     TIP3     H2       HT       0.417000       1.00800           0
     43910 TIP3     5092     TIP3     OH2      OT      -0.834000       15.9994           0
     43911 TIP3     5092     TIP3     H1       HT       0.417000       1.00800           0
     43912 TIP3     5092     TIP3     H2       HT       0.417000       1.00800           0
     43913 TIP3     5093     TIP3     OH2      OT      -0.834000       15.9994           0
     43914 TIP3     5093     TIP3     H1       HT       0.417000       1.00800           0
     43915 TIP3     5093     TIP3     H2       HT       0.417000       1.00800           0
     43916 TIP3     5094     TIP3     OH2      OT      -0.834000       15.9994           0
     43917 TIP3     5094     TIP3     H1       HT       0.417000       1.00800           0
     43918 TIP3     5094     TIP3     H2       HT       0.417000       1.00800           0
     43919 TIP3     5095     TIP3     OH2      OT      -0.834000       15.9994           0
     43920 TIP3     5095     TIP3     H1       HT       0.417000       1.00800           0
     43921 TIP3     5095     TIP3     H2       HT       0.417000       1.00800           0
     43922 TIP3     5096     TIP3     OH2      OT      -0.834000       15.9994           0
     43923 TIP3     5096     TIP3     H1       HT       0.417000       1.00800           0
     43924 TIP3     5096     TIP3     H2       HT       0.417000       1.00800           0
     43925 TIP3     5097     TIP3     OH2      OT      -0.834000       15.9994           0
     43926 TIP3     5097     TIP3     H1       HT       0.417000       1.00800           0
     43927 TIP3     5097     TIP3     H2       HT       0.417000       1.00800           0
     43928 TIP3     5098     TIP3     OH2      OT      -0.834000       15.9994           0
     43929 TIP3     5098     TIP3     H1       HT       0.417000       1.00800           0
     43930 TIP3     5098     TIP3     H2       HT       0.417000       1.00800           0
     43931 TIP3     5099     TIP3     OH2      OT      -0.834000       15.9994           0
     43932 TIP3     5099     TIP3     H1       HT       0.417000       1.00800           0
     43933 TIP3     5099     TIP3     H2       HT       0.417000       1.00800           0
     43934 TIP3     5100     TIP3     OH2      OT      -0.834000       15.9994           0
     43935 TIP3     5100     TIP3     H1       HT       0.417000       1.00800           0
     43936 TIP3     5100     TIP3     H2       HT       0.417000       1.00800           0
     43937 TIP3     5101     TIP3     OH2      OT      -0.834000       15.9994           0
     43938 TIP3     5101     TIP3     H1       HT       0.417000       1.00800           0
     43939 TIP3     5101     TIP3     H2       HT       0.417000       1.00800           0
     43940 TIP3     5102     TIP3     OH2      OT      -0.834000       15.9994           0
     43941 TIP3     5102     TIP3     H1       HT       0.417000       1.00800           0
     43942 TIP3     5102     TIP3     H2       HT       0.417000       1.00800           0
     43943 TIP3     5103     TIP3     OH2      OT      -0.834000       15.9994           0
     43944 TIP3     5103     TIP3     H1       HT       0.417000       1.00800           0
     43945 TIP3     5103     TIP3     H2       HT       0.417000       1.00800           0
     43946 TIP3     5104     TIP3     OH2      OT      -0.834000       15.9994           0
     43947 TIP3     5104     TIP3     H1       HT       0.417000       1.00800           0
     43948 TIP3     5104     TIP3     H2       HT       0.417000       1.00800           0
     43949 TIP3     5105     TIP3     OH2      OT      -0.834000       15.9994           0
     43950 TIP3     5105     TIP3     H1       HT       0.417000       1.00800           0
     43951 TIP3     5105     TIP3     H2       HT       0.417000       1.00800           0
     43952 TIP3     5106     TIP3     OH2      OT      -0.834000       15.9994           0
     43953 TIP3     5106     TIP3     H1       HT       0.417000       1.00800           0
     43954 TIP3     5106     TIP3     H2       HT       0.417000       1.00800           0
     43955 TIP3     5107     TIP3     OH2      OT      -0.834000       15.9994           0
     43956 TIP3     5107     TIP3     H1       HT       0.417000       1.00800           0
     43957 TIP3     5107     TIP3     H2       HT       0.417000       1.00800           0
     43958 TIP3     5108     TIP3     OH2      OT      -0.834000       15.9994           0
     43959 TIP3     5108     TIP3     H1       HT       0.417000       1.00800           0
     43960 TIP3     5108     TIP3     H2       HT       0.417000       1.00800           0
     43961 TIP3     5109     TIP3     OH2      OT      -0.834000       15.9994           0
     43962 TIP3     5109     TIP3     H1       HT       0.417000       1.00800           0
     43963 TIP3     5109     TIP3     H2       HT       0.417000       1.00800           0
     43964 TIP3     5110     TIP3     OH2      OT      -0.834000       15.9994           0
     43965 TIP3     5110     TIP3     H1       HT       0.417000       1.00800           0
     43966 TIP3     5110     TIP3     H2       HT       0.417000       1.00800           0
     43967 TIP3     5111     TIP3     OH2      OT      -0.834000       15.9994           0
     43968 TIP3     5111     TIP3     H1       HT       0.417000       1.00800           0
     43969 TIP3     5111     TIP3     H2       HT       0.417000       1.00800           0
     43970 TIP3     5112     TIP3     OH2      OT      -0.834000       15.9994           0
     43971 TIP3     5112     TIP3     H1       HT       0.417000       1.00800           0
     43972 TIP3     5112     TIP3     H2       HT       0.417000       1.00800           0
     43973 TIP3     5113     TIP3     OH2      OT      -0.834000       15.9994           0
     43974 TIP3     5113     TIP3     H1       HT       0.417000       1.00800           0
     43975 TIP3     5113     TIP3     H2       HT       0.417000       1.00800           0
     43976 TIP3     5114     TIP3     OH2      OT      -0.834000       15.9994           0
     43977 TIP3     5114     TIP3     H1       HT       0.417000       1.00800           0
     43978 TIP3     5114     TIP3     H2       HT       0.417000       1.00800           0
     43979 TIP3     5115     TIP3     OH2      OT      -0.834000       15.9994           0
     43980 TIP3     5115     TIP3     H1       HT       0.417000       1.00800           0
     43981 TIP3     5115     TIP3     H2       HT       0.417000       1.00800           0
     43982 TIP3     5116     TIP3     OH2      OT      -0.834000       15.9994           0
     43983 TIP3     5116     TIP3     H1       HT       0.417000       1.00800           0
     43984 TIP3     5116     TIP3     H2       HT       0.417000       1.00800           0
     43985 TIP3     5117     TIP3     OH2      OT      -0.834000       15.9994           0
     43986 TIP3     5117     TIP3     H1       HT       0.417000       1.00800           0
     43987 TIP3     5117     TIP3     H2       HT       0.417000       1.00800           0
     43988 TIP3     5118     TIP3     OH2      OT      -0.834000       15.9994           0
     43989 TIP3     5118     TIP3     H1       HT       0.417000       1.00800           0
     43990 TIP3     5118     TIP3     H2       HT       0.417000       1.00800           0
     43991 TIP3     5119     TIP3     OH2      OT      -0.834000       15.9994           0
     43992 TIP3     5119     TIP3     H1       HT       0.417000       1.00800           0
     43993 TIP3     5119     TIP3     H2       HT       0.417000       1.00800           0
     43994 TIP3     5120     TIP3     OH2      OT      -0.834000       15.9994           0
     43995 TIP3     5120     TIP3     H1       HT       0.417000       1.00800           0
     43996 TIP3     5120     TIP3     H2       HT       0.417000       1.00800           0
     43997 TIP3     5121     TIP3     OH2      OT      -0.834000       15.9994           0
     43998 TIP3     5121     TIP3     H1       HT       0.417000       1.00800           0
     43999 TIP3     5121     TIP3     H2       HT       0.417000       1.00800           0
     44000 TIP3     5122     TIP3     OH2      OT      -0.834000       15.9994           0
     44001 TIP3     5122     TIP3     H1       HT       0.417000       1.00800           0
     44002 TIP3     5122     TIP3     H2       HT       0.417000       1.00800           0
     44003 TIP3     5123     TIP3     OH2      OT      -0.834000       15.9994           0
     44004 TIP3     5123     TIP3     H1       HT       0.417000       1.00800           0
     44005 TIP3     5123     TIP3     H2       HT       0.417000       1.00800           0
     44006 TIP3     5124     TIP3     OH2      OT      -0.834000       15.9994           0
     44007 TIP3     5124     TIP3     H1       HT       0.417000       1.00800           0
     44008 TIP3     5124     TIP3     H2       HT       0.417000       1.00800           0
     44009 TIP3     5125     TIP3     OH2      OT      -0.834000       15.9994           0
     44010 TIP3     5125     TIP3     H1       HT       0.417000       1.00800           0
     44011 TIP3     5125     TIP3     H2       HT       0.417000       1.00800           0
     44012 TIP3     5126     TIP3     OH2      OT      -0.834000       15.9994           0
     44013 TIP3     5126     TIP3     H1       HT       0.417000       1.00800           0
     44014 TIP3     5126     TIP3     H2       HT       0.417000       1.00800           0
     44015 TIP3     5127     TIP3     OH2      OT      -0.834000       15.9994           0
     44016 TIP3     5127     TIP3     H1       HT       0.417000       1.00800           0
     44017 TIP3     5127     TIP3     H2       HT       0.417000       1.00800           0
     44018 TIP3     5128     TIP3     OH2      OT      -0.834000       15.9994           0
     44019 TIP3     5128     TIP3     H1       HT       0.417000       1.00800           0
     44020 TIP3     5128     TIP3     H2       HT       0.417000       1.00800           0
     44021 TIP3     5129     TIP3     OH2      OT      -0.834000       15.9994           0
     44022 TIP3     5129     TIP3     H1       HT       0.417000       1.00800           0
     44023 TIP3     5129     TIP3     H2       HT       0.417000       1.00800           0
     44024 TIP3     5130     TIP3     OH2      OT      -0.834000       15.9994           0
     44025 TIP3     5130     TIP3     H1       HT       0.417000       1.00800           0
     44026 TIP3     5130     TIP3     H2       HT       0.417000       1.00800           0
     44027 TIP3     5131     TIP3     OH2      OT      -0.834000       15.9994           0
     44028 TIP3     5131     TIP3     H1       HT       0.417000       1.00800           0
     44029 TIP3     5131     TIP3     H2       HT       0.417000       1.00800           0
     44030 TIP3     5132     TIP3     OH2      OT      -0.834000       15.9994           0
     44031 TIP3     5132     TIP3     H1       HT       0.417000       1.00800           0
     44032 TIP3     5132     TIP3     H2       HT       0.417000       1.00800           0
     44033 TIP3     5133     TIP3     OH2      OT      -0.834000       15.9994           0
     44034 TIP3     5133     TIP3     H1       HT       0.417000       1.00800           0
     44035 TIP3     5133     TIP3     H2       HT       0.417000       1.00800           0
     44036 TIP3     5134     TIP3     OH2      OT      -0.834000       15.9994           0
     44037 TIP3     5134     TIP3     H1       HT       0.417000       1.00800           0
     44038 TIP3     5134     TIP3     H2       HT       0.417000       1.00800           0
     44039 TIP3     5135     TIP3     OH2      OT      -0.834000       15.9994           0
     44040 TIP3     5135     TIP3     H1       HT       0.417000       1.00800           0
     44041 TIP3     5135     TIP3     H2       HT       0.417000       1.00800           0
     44042 TIP3     5136     TIP3     OH2      OT      -0.834000       15.9994           0
     44043 TIP3     5136     TIP3     H1       HT       0.417000       1.00800           0
     44044 TIP3     5136     TIP3     H2       HT       0.417000       1.00800           0
     44045 TIP3     5137     TIP3     OH2      OT      -0.834000       15.9994           0
     44046 TIP3     5137     TIP3     H1       HT       0.417000       1.00800           0
     44047 TIP3     5137     TIP3     H2       HT       0.417000       1.00800           0
     44048 TIP3     5138     TIP3     OH2      OT      -0.834000       15.9994           0
     44049 TIP3     5138     TIP3     H1       HT       0.417000       1.00800           0
     44050 TIP3     5138     TIP3     H2       HT       0.417000       1.00800           0
     44051 TIP3     5139     TIP3     OH2      OT      -0.834000       15.9994           0
     44052 TIP3     5139     TIP3     H1       HT       0.417000       1.00800           0
     44053 TIP3     5139     TIP3     H2       HT       0.417000       1.00800           0
     44054 TIP3     5140     TIP3     OH2      OT      -0.834000       15.9994           0
     44055 TIP3     5140     TIP3     H1       HT       0.417000       1.00800           0
     44056 TIP3     5140     TIP3     H2       HT       0.417000       1.00800           0
     44057 TIP3     5141     TIP3     OH2      OT      -0.834000       15.9994           0
     44058 TIP3     5141     TIP3     H1       HT       0.417000       1.00800           0
     44059 TIP3     5141     TIP3     H2       HT       0.417000       1.00800           0
     44060 TIP3     5142     TIP3     OH2      OT      -0.834000       15.9994           0
     44061 TIP3     5142     TIP3     H1       HT       0.417000       1.00800           0
     44062 TIP3     5142     TIP3     H2       HT       0.417000       1.00800           0
     44063 TIP3     5143     TIP3     OH2      OT      -0.834000       15.9994           0
     44064 TIP3     5143     TIP3     H1       HT       0.417000       1.00800           0
     44065 TIP3     5143     TIP3     H2       HT       0.417000       1.00800           0
     44066 TIP3     5144     TIP3     OH2      OT      -0.834000       15.9994           0
     44067 TIP3     5144     TIP3     H1       HT       0.417000       1.00800           0
     44068 TIP3     5144     TIP3     H2       HT       0.417000       1.00800           0
     44069 TIP3     5145     TIP3     OH2      OT      -0.834000       15.9994           0
     44070 TIP3     5145     TIP3     H1       HT       0.417000       1.00800           0
     44071 TIP3     5145     TIP3     H2       HT       0.417000       1.00800           0
     44072 TIP3     5146     TIP3     OH2      OT      -0.834000       15.9994           0
     44073 TIP3     5146     TIP3     H1       HT       0.417000       1.00800           0
     44074 TIP3     5146     TIP3     H2       HT       0.417000       1.00800           0
     44075 TIP3     5147     TIP3     OH2      OT      -0.834000       15.9994           0
     44076 TIP3     5147     TIP3     H1       HT       0.417000       1.00800           0
     44077 TIP3     5147     TIP3     H2       HT       0.417000       1.00800           0
     44078 TIP3     5148     TIP3     OH2      OT      -0.834000       15.9994           0
     44079 TIP3     5148     TIP3     H1       HT       0.417000       1.00800           0
     44080 TIP3     5148     TIP3     H2       HT       0.417000       1.00800           0
     44081 TIP3     5149     TIP3     OH2      OT      -0.834000       15.9994           0
     44082 TIP3     5149     TIP3     H1       HT       0.417000       1.00800           0
     44083 TIP3     5149     TIP3     H2       HT       0.417000       1.00800           0
     44084 TIP3     5150     TIP3     OH2      OT      -0.834000       15.9994           0
     44085 TIP3     5150     TIP3     H1       HT       0.417000       1.00800           0
     44086 TIP3     5150     TIP3     H2       HT       0.417000       1.00800           0
     44087 TIP3     5151     TIP3     OH2      OT      -0.834000       15.9994           0
     44088 TIP3     5151     TIP3     H1       HT       0.417000       1.00800           0
     44089 TIP3     5151     TIP3     H2       HT       0.417000       1.00800           0
     44090 TIP3     5152     TIP3     OH2      OT      -0.834000       15.9994           0
     44091 TIP3     5152     TIP3     H1       HT       0.417000       1.00800           0
     44092 TIP3     5152     TIP3     H2       HT       0.417000       1.00800           0
     44093 TIP3     5153     TIP3     OH2      OT      -0.834000       15.9994           0
     44094 TIP3     5153     TIP3     H1       HT       0.417000       1.00800           0
     44095 TIP3     5153     TIP3     H2       HT       0.417000       1.00800           0
     44096 TIP3     5154     TIP3     OH2      OT      -0.834000       15.9994           0
     44097 TIP3     5154     TIP3     H1       HT       0.417000       1.00800           0
     44098 TIP3     5154     TIP3     H2       HT       0.417000       1.00800           0
     44099 TIP3     5155     TIP3     OH2      OT      -0.834000       15.9994           0
     44100 TIP3     5155     TIP3     H1       HT       0.417000       1.00800           0
     44101 TIP3     5155     TIP3     H2       HT       0.417000       1.00800           0
     44102 TIP3     5156     TIP3     OH2      OT      -0.834000       15.9994           0
     44103 TIP3     5156     TIP3     H1       HT       0.417000       1.00800           0
     44104 TIP3     5156     TIP3     H2       HT       0.417000       1.00800           0
     44105 TIP3     5157     TIP3     OH2      OT      -0.834000       15.9994           0
     44106 TIP3     5157     TIP3     H1       HT       0.417000       1.00800           0
     44107 TIP3     5157     TIP3     H2       HT       0.417000       1.00800           0
     44108 TIP3     5158     TIP3     OH2      OT      -0.834000       15.9994           0
     44109 TIP3     5158     TIP3     H1       HT       0.417000       1.00800           0
     44110 TIP3     5158     TIP3     H2       HT       0.417000       1.00800           0
     44111 TIP3     5159     TIP3     OH2      OT      -0.834000       15.9994           0
     44112 TIP3     5159     TIP3     H1       HT       0.417000       1.00800           0
     44113 TIP3     5159     TIP3     H2       HT       0.417000       1.00800           0
     44114 TIP3     5160     TIP3     OH2      OT      -0.834000       15.9994           0
     44115 TIP3     5160     TIP3     H1       HT       0.417000       1.00800           0
     44116 TIP3     5160     TIP3     H2       HT       0.417000       1.00800           0
     44117 TIP3     5161     TIP3     OH2      OT      -0.834000       15.9994           0
     44118 TIP3     5161     TIP3     H1       HT       0.417000       1.00800           0
     44119 TIP3     5161     TIP3     H2       HT       0.417000       1.00800           0
     44120 TIP3     5162     TIP3     OH2      OT      -0.834000       15.9994           0
     44121 TIP3     5162     TIP3     H1       HT       0.417000       1.00800           0
     44122 TIP3     5162     TIP3     H2       HT       0.417000       1.00800           0
     44123 TIP3     5163     TIP3     OH2      OT      -0.834000       15.9994           0
     44124 TIP3     5163     TIP3     H1       HT       0.417000       1.00800           0
     44125 TIP3     5163     TIP3     H2       HT       0.417000       1.00800           0
     44126 TIP3     5164     TIP3     OH2      OT      -0.834000       15.9994           0
     44127 TIP3     5164     TIP3     H1       HT       0.417000       1.00800           0
     44128 TIP3     5164     TIP3     H2       HT       0.417000       1.00800           0
     44129 TIP3     5165     TIP3     OH2      OT      -0.834000       15.9994           0
     44130 TIP3     5165     TIP3     H1       HT       0.417000       1.00800           0
     44131 TIP3     5165     TIP3     H2       HT       0.417000       1.00800           0
     44132 TIP3     5166     TIP3     OH2      OT      -0.834000       15.9994           0
     44133 TIP3     5166     TIP3     H1       HT       0.417000       1.00800           0
     44134 TIP3     5166     TIP3     H2       HT       0.417000       1.00800           0
     44135 TIP3     5167     TIP3     OH2      OT      -0.834000       15.9994           0
     44136 TIP3     5167     TIP3     H1       HT       0.417000       1.00800           0
     44137 TIP3     5167     TIP3     H2       HT       0.417000       1.00800           0
     44138 TIP3     5168     TIP3     OH2      OT      -0.834000       15.9994           0
     44139 TIP3     5168     TIP3     H1       HT       0.417000       1.00800           0
     44140 TIP3     5168     TIP3     H2       HT       0.417000       1.00800           0
     44141 TIP3     5169     TIP3     OH2      OT      -0.834000       15.9994           0
     44142 TIP3     5169     TIP3     H1       HT       0.417000       1.00800           0
     44143 TIP3     5169     TIP3     H2       HT       0.417000       1.00800           0
     44144 TIP3     5170     TIP3     OH2      OT      -0.834000       15.9994           0
     44145 TIP3     5170     TIP3     H1       HT       0.417000       1.00800           0
     44146 TIP3     5170     TIP3     H2       HT       0.417000       1.00800           0
     44147 TIP3     5171     TIP3     OH2      OT      -0.834000       15.9994           0
     44148 TIP3     5171     TIP3     H1       HT       0.417000       1.00800           0
     44149 TIP3     5171     TIP3     H2       HT       0.417000       1.00800           0
     44150 TIP3     5172     TIP3     OH2      OT      -0.834000       15.9994           0
     44151 TIP3     5172     TIP3     H1       HT       0.417000       1.00800           0
     44152 TIP3     5172     TIP3     H2       HT       0.417000       1.00800           0
     44153 TIP3     5173     TIP3     OH2      OT      -0.834000       15.9994           0
     44154 TIP3     5173     TIP3     H1       HT       0.417000       1.00800           0
     44155 TIP3     5173     TIP3     H2       HT       0.417000       1.00800           0
     44156 TIP3     5174     TIP3     OH2      OT      -0.834000       15.9994           0
     44157 TIP3     5174     TIP3     H1       HT       0.417000       1.00800           0
     44158 TIP3     5174     TIP3     H2       HT       0.417000       1.00800           0
     44159 TIP3     5175     TIP3     OH2      OT      -0.834000       15.9994           0
     44160 TIP3     5175     TIP3     H1       HT       0.417000       1.00800           0
     44161 TIP3     5175     TIP3     H2       HT       0.417000       1.00800           0
     44162 TIP3     5176     TIP3     OH2      OT      -0.834000       15.9994           0
     44163 TIP3     5176     TIP3     H1       HT       0.417000       1.00800           0
     44164 TIP3     5176     TIP3     H2       HT       0.417000       1.00800           0
     44165 TIP3     5177     TIP3     OH2      OT      -0.834000       15.9994           0
     44166 TIP3     5177     TIP3     H1       HT       0.417000       1.00800           0
     44167 TIP3     5177     TIP3     H2       HT       0.417000       1.00800           0
     44168 TIP3     5178     TIP3     OH2      OT      -0.834000       15.9994           0
     44169 TIP3     5178     TIP3     H1       HT       0.417000       1.00800           0
     44170 TIP3     5178     TIP3     H2       HT       0.417000       1.00800           0
     44171 TIP3     5179     TIP3     OH2      OT      -0.834000       15.9994           0
     44172 TIP3     5179     TIP3     H1       HT       0.417000       1.00800           0
     44173 TIP3     5179     TIP3     H2       HT       0.417000       1.00800           0
     44174 TIP3     5180     TIP3     OH2      OT      -0.834000       15.9994           0
     44175 TIP3     5180     TIP3     H1       HT       0.417000       1.00800           0
     44176 TIP3     5180     TIP3     H2       HT       0.417000       1.00800           0
     44177 TIP3     5181     TIP3     OH2      OT      -0.834000       15.9994           0
     44178 TIP3     5181     TIP3     H1       HT       0.417000       1.00800           0
     44179 TIP3     5181     TIP3     H2       HT       0.417000       1.00800           0
     44180 TIP3     5182     TIP3     OH2      OT      -0.834000       15.9994           0
     44181 TIP3     5182     TIP3     H1       HT       0.417000       1.00800           0
     44182 TIP3     5182     TIP3     H2       HT       0.417000       1.00800           0
     44183 TIP3     5183     TIP3     OH2      OT      -0.834000       15.9994           0
     44184 TIP3     5183     TIP3     H1       HT       0.417000       1.00800           0
     44185 TIP3     5183     TIP3     H2       HT       0.417000       1.00800           0
     44186 TIP3     5184     TIP3     OH2      OT      -0.834000       15.9994           0
     44187 TIP3     5184     TIP3     H1       HT       0.417000       1.00800           0
     44188 TIP3     5184     TIP3     H2       HT       0.417000       1.00800           0
     44189 TIP3     5185     TIP3     OH2      OT      -0.834000       15.9994           0
     44190 TIP3     5185     TIP3     H1       HT       0.417000       1.00800           0
     44191 TIP3     5185     TIP3     H2       HT       0.417000       1.00800           0
     44192 TIP3     5186     TIP3     OH2      OT      -0.834000       15.9994           0
     44193 TIP3     5186     TIP3     H1       HT       0.417000       1.00800           0
     44194 TIP3     5186     TIP3     H2       HT       0.417000       1.00800           0
     44195 TIP3     5187     TIP3     OH2      OT      -0.834000       15.9994           0
     44196 TIP3     5187     TIP3     H1       HT       0.417000       1.00800           0
     44197 TIP3     5187     TIP3     H2       HT       0.417000       1.00800           0
     44198 TIP3     5188     TIP3     OH2      OT      -0.834000       15.9994           0
     44199 TIP3     5188     TIP3     H1       HT       0.417000       1.00800           0
     44200 TIP3     5188     TIP3     H2       HT       0.417000       1.00800           0
     44201 TIP3     5189     TIP3     OH2      OT      -0.834000       15.9994           0
     44202 TIP3     5189     TIP3     H1       HT       0.417000       1.00800           0
     44203 TIP3     5189     TIP3     H2       HT       0.417000       1.00800           0
     44204 TIP3     5190     TIP3     OH2      OT      -0.834000       15.9994           0
     44205 TIP3     5190     TIP3     H1       HT       0.417000       1.00800           0
     44206 TIP3     5190     TIP3     H2       HT       0.417000       1.00800           0
     44207 TIP3     5191     TIP3     OH2      OT      -0.834000       15.9994           0
     44208 TIP3     5191     TIP3     H1       HT       0.417000       1.00800           0
     44209 TIP3     5191     TIP3     H2       HT       0.417000       1.00800           0
     44210 TIP3     5192     TIP3     OH2      OT      -0.834000       15.9994           0
     44211 TIP3     5192     TIP3     H1       HT       0.417000       1.00800           0
     44212 TIP3     5192     TIP3     H2       HT       0.417000       1.00800           0
     44213 TIP3     5193     TIP3     OH2      OT      -0.834000       15.9994           0
     44214 TIP3     5193     TIP3     H1       HT       0.417000       1.00800           0
     44215 TIP3     5193     TIP3     H2       HT       0.417000       1.00800           0
     44216 TIP3     5194     TIP3     OH2      OT      -0.834000       15.9994           0
     44217 TIP3     5194     TIP3     H1       HT       0.417000       1.00800           0
     44218 TIP3     5194     TIP3     H2       HT       0.417000       1.00800           0
     44219 TIP3     5195     TIP3     OH2      OT      -0.834000       15.9994           0
     44220 TIP3     5195     TIP3     H1       HT       0.417000       1.00800           0
     44221 TIP3     5195     TIP3     H2       HT       0.417000       1.00800           0
     44222 TIP3     5196     TIP3     OH2      OT      -0.834000       15.9994           0
     44223 TIP3     5196     TIP3     H1       HT       0.417000       1.00800           0
     44224 TIP3     5196     TIP3     H2       HT       0.417000       1.00800           0
     44225 TIP3     5197     TIP3     OH2      OT      -0.834000       15.9994           0
     44226 TIP3     5197     TIP3     H1       HT       0.417000       1.00800           0
     44227 TIP3     5197     TIP3     H2       HT       0.417000       1.00800           0
     44228 TIP3     5198     TIP3     OH2      OT      -0.834000       15.9994           0
     44229 TIP3     5198     TIP3     H1       HT       0.417000       1.00800           0
     44230 TIP3     5198     TIP3     H2       HT       0.417000       1.00800           0
     44231 TIP3     5199     TIP3     OH2      OT      -0.834000       15.9994           0
     44232 TIP3     5199     TIP3     H1       HT       0.417000       1.00800           0
     44233 TIP3     5199     TIP3     H2       HT       0.417000       1.00800           0
     44234 TIP3     5200     TIP3     OH2      OT      -0.834000       15.9994           0
     44235 TIP3     5200     TIP3     H1       HT       0.417000       1.00800           0
     44236 TIP3     5200     TIP3     H2       HT       0.417000       1.00800           0
     44237 TIP3     5201     TIP3     OH2      OT      -0.834000       15.9994           0
     44238 TIP3     5201     TIP3     H1       HT       0.417000       1.00800           0
     44239 TIP3     5201     TIP3     H2       HT       0.417000       1.00800           0
     44240 TIP3     5202     TIP3     OH2      OT      -0.834000       15.9994           0
     44241 TIP3     5202     TIP3     H1       HT       0.417000       1.00800           0
     44242 TIP3     5202     TIP3     H2       HT       0.417000       1.00800           0
     44243 TIP3     5203     TIP3     OH2      OT      -0.834000       15.9994           0
     44244 TIP3     5203     TIP3     H1       HT       0.417000       1.00800           0
     44245 TIP3     5203     TIP3     H2       HT       0.417000       1.00800           0
     44246 TIP3     5204     TIP3     OH2      OT      -0.834000       15.9994           0
     44247 TIP3     5204     TIP3     H1       HT       0.417000       1.00800           0
     44248 TIP3     5204     TIP3     H2       HT       0.417000       1.00800           0
     44249 TIP3     5205     TIP3     OH2      OT      -0.834000       15.9994           0
     44250 TIP3     5205     TIP3     H1       HT       0.417000       1.00800           0
     44251 TIP3     5205     TIP3     H2       HT       0.417000       1.00800           0
     44252 TIP3     5206     TIP3     OH2      OT      -0.834000       15.9994           0
     44253 TIP3     5206     TIP3     H1       HT       0.417000       1.00800           0
     44254 TIP3     5206     TIP3     H2       HT       0.417000       1.00800           0
     44255 TIP3     5207     TIP3     OH2      OT      -0.834000       15.9994           0
     44256 TIP3     5207     TIP3     H1       HT       0.417000       1.00800           0
     44257 TIP3     5207     TIP3     H2       HT       0.417000       1.00800           0
     44258 TIP3     5208     TIP3     OH2      OT      -0.834000       15.9994           0
     44259 TIP3     5208     TIP3     H1       HT       0.417000       1.00800           0
     44260 TIP3     5208     TIP3     H2       HT       0.417000       1.00800           0
     44261 TIP3     5209     TIP3     OH2      OT      -0.834000       15.9994           0
     44262 TIP3     5209     TIP3     H1       HT       0.417000       1.00800           0
     44263 TIP3     5209     TIP3     H2       HT       0.417000       1.00800           0
     44264 TIP3     5210     TIP3     OH2      OT      -0.834000       15.9994           0
     44265 TIP3     5210     TIP3     H1       HT       0.417000       1.00800           0
     44266 TIP3     5210     TIP3     H2       HT       0.417000       1.00800           0
     44267 TIP3     5211     TIP3     OH2      OT      -0.834000       15.9994           0
     44268 TIP3     5211     TIP3     H1       HT       0.417000       1.00800           0
     44269 TIP3     5211     TIP3     H2       HT       0.417000       1.00800           0
     44270 TIP3     5212     TIP3     OH2      OT      -0.834000       15.9994           0
     44271 TIP3     5212     TIP3     H1       HT       0.417000       1.00800           0
     44272 TIP3     5212     TIP3     H2       HT       0.417000       1.00800           0
     44273 TIP3     5213     TIP3     OH2      OT      -0.834000       15.9994           0
     44274 TIP3     5213     TIP3     H1       HT       0.417000       1.00800           0
     44275 TIP3     5213     TIP3     H2       HT       0.417000       1.00800           0
     44276 TIP3     5214     TIP3     OH2      OT      -0.834000       15.9994           0
     44277 TIP3     5214     TIP3     H1       HT       0.417000       1.00800           0
     44278 TIP3     5214     TIP3     H2       HT       0.417000       1.00800           0
     44279 TIP3     5215     TIP3     OH2      OT      -0.834000       15.9994           0
     44280 TIP3     5215     TIP3     H1       HT       0.417000       1.00800           0
     44281 TIP3     5215     TIP3     H2       HT       0.417000       1.00800           0
     44282 TIP3     5216     TIP3     OH2      OT      -0.834000       15.9994           0
     44283 TIP3     5216     TIP3     H1       HT       0.417000       1.00800           0
     44284 TIP3     5216     TIP3     H2       HT       0.417000       1.00800           0
     44285 TIP3     5217     TIP3     OH2      OT      -0.834000       15.9994           0
     44286 TIP3     5217     TIP3     H1       HT       0.417000       1.00800           0
     44287 TIP3     5217     TIP3     H2       HT       0.417000       1.00800           0
     44288 TIP3     5218     TIP3     OH2      OT      -0.834000       15.9994           0
     44289 TIP3     5218     TIP3     H1       HT       0.417000       1.00800           0
     44290 TIP3     5218     TIP3     H2       HT       0.417000       1.00800           0
     44291 TIP3     5219     TIP3     OH2      OT      -0.834000       15.9994           0
     44292 TIP3     5219     TIP3     H1       HT       0.417000       1.00800           0
     44293 TIP3     5219     TIP3     H2       HT       0.417000       1.00800           0
     44294 TIP3     5220     TIP3     OH2      OT      -0.834000       15.9994           0
     44295 TIP3     5220     TIP3     H1       HT       0.417000       1.00800           0
     44296 TIP3     5220     TIP3     H2       HT       0.417000       1.00800           0
     44297 TIP3     5221     TIP3     OH2      OT      -0.834000       15.9994           0
     44298 TIP3     5221     TIP3     H1       HT       0.417000       1.00800           0
     44299 TIP3     5221     TIP3     H2       HT       0.417000       1.00800           0
     44300 TIP3     5222     TIP3     OH2      OT      -0.834000       15.9994           0
     44301 TIP3     5222     TIP3     H1       HT       0.417000       1.00800           0
     44302 TIP3     5222     TIP3     H2       HT       0.417000       1.00800           0
     44303 TIP3     5223     TIP3     OH2      OT      -0.834000       15.9994           0
     44304 TIP3     5223     TIP3     H1       HT       0.417000       1.00800           0
     44305 TIP3     5223     TIP3     H2       HT       0.417000       1.00800           0
     44306 TIP3     5224     TIP3     OH2      OT      -0.834000       15.9994           0
     44307 TIP3     5224     TIP3     H1       HT       0.417000       1.00800           0
     44308 TIP3     5224     TIP3     H2       HT       0.417000       1.00800           0
     44309 TIP3     5225     TIP3     OH2      OT      -0.834000       15.9994           0
     44310 TIP3     5225     TIP3     H1       HT       0.417000       1.00800           0
     44311 TIP3     5225     TIP3     H2       HT       0.417000       1.00800           0
     44312 TIP3     5226     TIP3     OH2      OT      -0.834000       15.9994           0
     44313 TIP3     5226     TIP3     H1       HT       0.417000       1.00800           0
     44314 TIP3     5226     TIP3     H2       HT       0.417000       1.00800           0
     44315 TIP3     5227     TIP3     OH2      OT      -0.834000       15.9994           0
     44316 TIP3     5227     TIP3     H1       HT       0.417000       1.00800           0
     44317 TIP3     5227     TIP3     H2       HT       0.417000       1.00800           0
     44318 TIP3     5228     TIP3     OH2      OT      -0.834000       15.9994           0
     44319 TIP3     5228     TIP3     H1       HT       0.417000       1.00800           0
     44320 TIP3     5228     TIP3     H2       HT       0.417000       1.00800           0
     44321 TIP3     5229     TIP3     OH2      OT      -0.834000       15.9994           0
     44322 TIP3     5229     TIP3     H1       HT       0.417000       1.00800           0
     44323 TIP3     5229     TIP3     H2       HT       0.417000       1.00800           0
     44324 TIP3     5230     TIP3     OH2      OT      -0.834000       15.9994           0
     44325 TIP3     5230     TIP3     H1       HT       0.417000       1.00800           0
     44326 TIP3     5230     TIP3     H2       HT       0.417000       1.00800           0
     44327 TIP3     5231     TIP3     OH2      OT      -0.834000       15.9994           0
     44328 TIP3     5231     TIP3     H1       HT       0.417000       1.00800           0
     44329 TIP3     5231     TIP3     H2       HT       0.417000       1.00800           0
     44330 TIP3     5232     TIP3     OH2      OT      -0.834000       15.9994           0
     44331 TIP3     5232     TIP3     H1       HT       0.417000       1.00800           0
     44332 TIP3     5232     TIP3     H2       HT       0.417000       1.00800           0
     44333 TIP3     5233     TIP3     OH2      OT      -0.834000       15.9994           0
     44334 TIP3     5233     TIP3     H1       HT       0.417000       1.00800           0
     44335 TIP3     5233     TIP3     H2       HT       0.417000       1.00800           0
     44336 TIP3     5234     TIP3     OH2      OT      -0.834000       15.9994           0
     44337 TIP3     5234     TIP3     H1       HT       0.417000       1.00800           0
     44338 TIP3     5234     TIP3     H2       HT       0.417000       1.00800           0
     44339 TIP3     5235     TIP3     OH2      OT      -0.834000       15.9994           0
     44340 TIP3     5235     TIP3     H1       HT       0.417000       1.00800           0
     44341 TIP3     5235     TIP3     H2       HT       0.417000       1.00800           0
     44342 TIP3     5236     TIP3     OH2      OT      -0.834000       15.9994           0
     44343 TIP3     5236     TIP3     H1       HT       0.417000       1.00800           0
     44344 TIP3     5236     TIP3     H2       HT       0.417000       1.00800           0
     44345 TIP3     5237     TIP3     OH2      OT      -0.834000       15.9994           0
     44346 TIP3     5237     TIP3     H1       HT       0.417000       1.00800           0
     44347 TIP3     5237     TIP3     H2       HT       0.417000       1.00800           0
     44348 TIP3     5238     TIP3     OH2      OT      -0.834000       15.9994           0
     44349 TIP3     5238     TIP3     H1       HT       0.417000       1.00800           0
     44350 TIP3     5238     TIP3     H2       HT       0.417000       1.00800           0
     44351 TIP3     5239     TIP3     OH2      OT      -0.834000       15.9994           0
     44352 TIP3     5239     TIP3     H1       HT       0.417000       1.00800           0
     44353 TIP3     5239     TIP3     H2       HT       0.417000       1.00800           0
     44354 TIP3     5240     TIP3     OH2      OT      -0.834000       15.9994           0
     44355 TIP3     5240     TIP3     H1       HT       0.417000       1.00800           0
     44356 TIP3     5240     TIP3     H2       HT       0.417000       1.00800           0
     44357 TIP3     5241     TIP3     OH2      OT      -0.834000       15.9994           0
     44358 TIP3     5241     TIP3     H1       HT       0.417000       1.00800           0
     44359 TIP3     5241     TIP3     H2       HT       0.417000       1.00800           0
     44360 TIP3     5242     TIP3     OH2      OT      -0.834000       15.9994           0
     44361 TIP3     5242     TIP3     H1       HT       0.417000       1.00800           0
     44362 TIP3     5242     TIP3     H2       HT       0.417000       1.00800           0
     44363 TIP3     5243     TIP3     OH2      OT      -0.834000       15.9994           0
     44364 TIP3     5243     TIP3     H1       HT       0.417000       1.00800           0
     44365 TIP3     5243     TIP3     H2       HT       0.417000       1.00800           0
     44366 TIP3     5244     TIP3     OH2      OT      -0.834000       15.9994           0
     44367 TIP3     5244     TIP3     H1       HT       0.417000       1.00800           0
     44368 TIP3     5244     TIP3     H2       HT       0.417000       1.00800           0
     44369 TIP3     5245     TIP3     OH2      OT      -0.834000       15.9994           0
     44370 TIP3     5245     TIP3     H1       HT       0.417000       1.00800           0
     44371 TIP3     5245     TIP3     H2       HT       0.417000       1.00800           0
     44372 TIP3     5246     TIP3     OH2      OT      -0.834000       15.9994           0
     44373 TIP3     5246     TIP3     H1       HT       0.417000       1.00800           0
     44374 TIP3     5246     TIP3     H2       HT       0.417000       1.00800           0
     44375 TIP3     5247     TIP3     OH2      OT      -0.834000       15.9994           0
     44376 TIP3     5247     TIP3     H1       HT       0.417000       1.00800           0
     44377 TIP3     5247     TIP3     H2       HT       0.417000       1.00800           0
     44378 TIP3     5248     TIP3     OH2      OT      -0.834000       15.9994           0
     44379 TIP3     5248     TIP3     H1       HT       0.417000       1.00800           0
     44380 TIP3     5248     TIP3     H2       HT       0.417000       1.00800           0
     44381 TIP3     5249     TIP3     OH2      OT      -0.834000       15.9994           0
     44382 TIP3     5249     TIP3     H1       HT       0.417000       1.00800           0
     44383 TIP3     5249     TIP3     H2       HT       0.417000       1.00800           0
     44384 TIP3     5250     TIP3     OH2      OT      -0.834000       15.9994           0
     44385 TIP3     5250     TIP3     H1       HT       0.417000       1.00800           0
     44386 TIP3     5250     TIP3     H2       HT       0.417000       1.00800           0
     44387 TIP3     5251     TIP3     OH2      OT      -0.834000       15.9994           0
     44388 TIP3     5251     TIP3     H1       HT       0.417000       1.00800           0
     44389 TIP3     5251     TIP3     H2       HT       0.417000       1.00800           0
     44390 TIP3     5252     TIP3     OH2      OT      -0.834000       15.9994           0
     44391 TIP3     5252     TIP3     H1       HT       0.417000       1.00800           0
     44392 TIP3     5252     TIP3     H2       HT       0.417000       1.00800           0
     44393 TIP3     5253     TIP3     OH2      OT      -0.834000       15.9994           0
     44394 TIP3     5253     TIP3     H1       HT       0.417000       1.00800           0
     44395 TIP3     5253     TIP3     H2       HT       0.417000       1.00800           0
     44396 TIP3     5254     TIP3     OH2      OT      -0.834000       15.9994           0
     44397 TIP3     5254     TIP3     H1       HT       0.417000       1.00800           0
     44398 TIP3     5254     TIP3     H2       HT       0.417000       1.00800           0
     44399 TIP3     5255     TIP3     OH2      OT      -0.834000       15.9994           0
     44400 TIP3     5255     TIP3     H1       HT       0.417000       1.00800           0
     44401 TIP3     5255     TIP3     H2       HT       0.417000       1.00800           0
     44402 TIP3     5256     TIP3     OH2      OT      -0.834000       15.9994           0
     44403 TIP3     5256     TIP3     H1       HT       0.417000       1.00800           0
     44404 TIP3     5256     TIP3     H2       HT       0.417000       1.00800           0
     44405 TIP3     5257     TIP3     OH2      OT      -0.834000       15.9994           0
     44406 TIP3     5257     TIP3     H1       HT       0.417000       1.00800           0
     44407 TIP3     5257     TIP3     H2       HT       0.417000       1.00800           0
     44408 TIP3     5258     TIP3     OH2      OT      -0.834000       15.9994           0
     44409 TIP3     5258     TIP3     H1       HT       0.417000       1.00800           0
     44410 TIP3     5258     TIP3     H2       HT       0.417000       1.00800           0
     44411 TIP3     5259     TIP3     OH2      OT      -0.834000       15.9994           0
     44412 TIP3     5259     TIP3     H1       HT       0.417000       1.00800           0
     44413 TIP3     5259     TIP3     H2       HT       0.417000       1.00800           0
     44414 TIP3     5260     TIP3     OH2      OT      -0.834000       15.9994           0
     44415 TIP3     5260     TIP3     H1       HT       0.417000       1.00800           0
     44416 TIP3     5260     TIP3     H2       HT       0.417000       1.00800           0
     44417 TIP3     5261     TIP3     OH2      OT      -0.834000       15.9994           0
     44418 TIP3     5261     TIP3     H1       HT       0.417000       1.00800           0
     44419 TIP3     5261     TIP3     H2       HT       0.417000       1.00800           0
     44420 TIP3     5262     TIP3     OH2      OT      -0.834000       15.9994           0
     44421 TIP3     5262     TIP3     H1       HT       0.417000       1.00800           0
     44422 TIP3     5262     TIP3     H2       HT       0.417000       1.00800           0
     44423 TIP3     5263     TIP3     OH2      OT      -0.834000       15.9994           0
     44424 TIP3     5263     TIP3     H1       HT       0.417000       1.00800           0
     44425 TIP3     5263     TIP3     H2       HT       0.417000       1.00800           0
     44426 TIP3     5264     TIP3     OH2      OT      -0.834000       15.9994           0
     44427 TIP3     5264     TIP3     H1       HT       0.417000       1.00800           0
     44428 TIP3     5264     TIP3     H2       HT       0.417000       1.00800           0
     44429 TIP3     5265     TIP3     OH2      OT      -0.834000       15.9994           0
     44430 TIP3     5265     TIP3     H1       HT       0.417000       1.00800           0
     44431 TIP3     5265     TIP3     H2       HT       0.417000       1.00800           0
     44432 TIP3     5266     TIP3     OH2      OT      -0.834000       15.9994           0
     44433 TIP3     5266     TIP3     H1       HT       0.417000       1.00800           0
     44434 TIP3     5266     TIP3     H2       HT       0.417000       1.00800           0
     44435 TIP3     5267     TIP3     OH2      OT      -0.834000       15.9994           0
     44436 TIP3     5267     TIP3     H1       HT       0.417000       1.00800           0
     44437 TIP3     5267     TIP3     H2       HT       0.417000       1.00800           0
     44438 TIP3     5268     TIP3     OH2      OT      -0.834000       15.9994           0
     44439 TIP3     5268     TIP3     H1       HT       0.417000       1.00800           0
     44440 TIP3     5268     TIP3     H2       HT       0.417000       1.00800           0
     44441 TIP3     5269     TIP3     OH2      OT      -0.834000       15.9994           0
     44442 TIP3     5269     TIP3     H1       HT       0.417000       1.00800           0
     44443 TIP3     5269     TIP3     H2       HT       0.417000       1.00800           0
     44444 TIP3     5270     TIP3     OH2      OT      -0.834000       15.9994           0
     44445 TIP3     5270     TIP3     H1       HT       0.417000       1.00800           0
     44446 TIP3     5270     TIP3     H2       HT       0.417000       1.00800           0
     44447 TIP3     5271     TIP3     OH2      OT      -0.834000       15.9994           0
     44448 TIP3     5271     TIP3     H1       HT       0.417000       1.00800           0
     44449 TIP3     5271     TIP3     H2       HT       0.417000       1.00800           0
     44450 TIP3     5272     TIP3     OH2      OT      -0.834000       15.9994           0
     44451 TIP3     5272     TIP3     H1       HT       0.417000       1.00800           0
     44452 TIP3     5272     TIP3     H2       HT       0.417000       1.00800           0
     44453 TIP3     5273     TIP3     OH2      OT      -0.834000       15.9994           0
     44454 TIP3     5273     TIP3     H1       HT       0.417000       1.00800           0
     44455 TIP3     5273     TIP3     H2       HT       0.417000       1.00800           0
     44456 TIP3     5274     TIP3     OH2      OT      -0.834000       15.9994           0
     44457 TIP3     5274     TIP3     H1       HT       0.417000       1.00800           0
     44458 TIP3     5274     TIP3     H2       HT       0.417000       1.00800           0
     44459 TIP3     5275     TIP3     OH2      OT      -0.834000       15.9994           0
     44460 TIP3     5275     TIP3     H1       HT       0.417000       1.00800           0
     44461 TIP3     5275     TIP3     H2       HT       0.417000       1.00800           0
     44462 TIP3     5276     TIP3     OH2      OT      -0.834000       15.9994           0
     44463 TIP3     5276     TIP3     H1       HT       0.417000       1.00800           0
     44464 TIP3     5276     TIP3     H2       HT       0.417000       1.00800           0
     44465 TIP3     5277     TIP3     OH2      OT      -0.834000       15.9994           0
     44466 TIP3     5277     TIP3     H1       HT       0.417000       1.00800           0
     44467 TIP3     5277     TIP3     H2       HT       0.417000       1.00800           0
     44468 TIP3     5278     TIP3     OH2      OT      -0.834000       15.9994           0
     44469 TIP3     5278     TIP3     H1       HT       0.417000       1.00800           0
     44470 TIP3     5278     TIP3     H2       HT       0.417000       1.00800           0
     44471 TIP3     5279     TIP3     OH2      OT      -0.834000       15.9994           0
     44472 TIP3     5279     TIP3     H1       HT       0.417000       1.00800           0
     44473 TIP3     5279     TIP3     H2       HT       0.417000       1.00800           0
     44474 TIP3     5280     TIP3     OH2      OT      -0.834000       15.9994           0
     44475 TIP3     5280     TIP3     H1       HT       0.417000       1.00800           0
     44476 TIP3     5280     TIP3     H2       HT       0.417000       1.00800           0
     44477 TIP3     5281     TIP3     OH2      OT      -0.834000       15.9994           0
     44478 TIP3     5281     TIP3     H1       HT       0.417000       1.00800           0
     44479 TIP3     5281     TIP3     H2       HT       0.417000       1.00800           0
     44480 TIP3     5282     TIP3     OH2      OT      -0.834000       15.9994           0
     44481 TIP3     5282     TIP3     H1       HT       0.417000       1.00800           0
     44482 TIP3     5282     TIP3     H2       HT       0.417000       1.00800           0
     44483 TIP3     5283     TIP3     OH2      OT      -0.834000       15.9994           0
     44484 TIP3     5283     TIP3     H1       HT       0.417000       1.00800           0
     44485 TIP3     5283     TIP3     H2       HT       0.417000       1.00800           0
     44486 TIP3     5284     TIP3     OH2      OT      -0.834000       15.9994           0
     44487 TIP3     5284     TIP3     H1       HT       0.417000       1.00800           0
     44488 TIP3     5284     TIP3     H2       HT       0.417000       1.00800           0
     44489 TIP3     5285     TIP3     OH2      OT      -0.834000       15.9994           0
     44490 TIP3     5285     TIP3     H1       HT       0.417000       1.00800           0
     44491 TIP3     5285     TIP3     H2       HT       0.417000       1.00800           0
     44492 TIP3     5286     TIP3     OH2      OT      -0.834000       15.9994           0
     44493 TIP3     5286     TIP3     H1       HT       0.417000       1.00800           0
     44494 TIP3     5286     TIP3     H2       HT       0.417000       1.00800           0
     44495 TIP3     5287     TIP3     OH2      OT      -0.834000       15.9994           0
     44496 TIP3     5287     TIP3     H1       HT       0.417000       1.00800           0
     44497 TIP3     5287     TIP3     H2       HT       0.417000       1.00800           0
     44498 TIP3     5288     TIP3     OH2      OT      -0.834000       15.9994           0
     44499 TIP3     5288     TIP3     H1       HT       0.417000       1.00800           0
     44500 TIP3     5288     TIP3     H2       HT       0.417000       1.00800           0
     44501 TIP3     5289     TIP3     OH2      OT      -0.834000       15.9994           0
     44502 TIP3     5289     TIP3     H1       HT       0.417000       1.00800           0
     44503 TIP3     5289     TIP3     H2       HT       0.417000       1.00800           0
     44504 TIP3     5290     TIP3     OH2      OT      -0.834000       15.9994           0
     44505 TIP3     5290     TIP3     H1       HT       0.417000       1.00800           0
     44506 TIP3     5290     TIP3     H2       HT       0.417000       1.00800           0
     44507 TIP3     5291     TIP3     OH2      OT      -0.834000       15.9994           0
     44508 TIP3     5291     TIP3     H1       HT       0.417000       1.00800           0
     44509 TIP3     5291     TIP3     H2       HT       0.417000       1.00800           0
     44510 TIP3     5292     TIP3     OH2      OT      -0.834000       15.9994           0
     44511 TIP3     5292     TIP3     H1       HT       0.417000       1.00800           0
     44512 TIP3     5292     TIP3     H2       HT       0.417000       1.00800           0
     44513 TIP3     5293     TIP3     OH2      OT      -0.834000       15.9994           0
     44514 TIP3     5293     TIP3     H1       HT       0.417000       1.00800           0
     44515 TIP3     5293     TIP3     H2       HT       0.417000       1.00800           0
     44516 TIP3     5294     TIP3     OH2      OT      -0.834000       15.9994           0
     44517 TIP3     5294     TIP3     H1       HT       0.417000       1.00800           0
     44518 TIP3     5294     TIP3     H2       HT       0.417000       1.00800           0
     44519 TIP3     5295     TIP3     OH2      OT      -0.834000       15.9994           0
     44520 TIP3     5295     TIP3     H1       HT       0.417000       1.00800           0
     44521 TIP3     5295     TIP3     H2       HT       0.417000       1.00800           0
     44522 TIP3     5296     TIP3     OH2      OT      -0.834000       15.9994           0
     44523 TIP3     5296     TIP3     H1       HT       0.417000       1.00800           0
     44524 TIP3     5296     TIP3     H2       HT       0.417000       1.00800           0
     44525 TIP3     5297     TIP3     OH2      OT      -0.834000       15.9994           0
     44526 TIP3     5297     TIP3     H1       HT       0.417000       1.00800           0
     44527 TIP3     5297     TIP3     H2       HT       0.417000       1.00800           0
     44528 TIP3     5298     TIP3     OH2      OT      -0.834000       15.9994           0
     44529 TIP3     5298     TIP3     H1       HT       0.417000       1.00800           0
     44530 TIP3     5298     TIP3     H2       HT       0.417000       1.00800           0
     44531 TIP3     5299     TIP3     OH2      OT      -0.834000       15.9994           0
     44532 TIP3     5299     TIP3     H1       HT       0.417000       1.00800           0
     44533 TIP3     5299     TIP3     H2       HT       0.417000       1.00800           0
     44534 TIP3     5300     TIP3     OH2      OT      -0.834000       15.9994           0
     44535 TIP3     5300     TIP3     H1       HT       0.417000       1.00800           0
     44536 TIP3     5300     TIP3     H2       HT       0.417000       1.00800           0
     44537 TIP3     5301     TIP3     OH2      OT      -0.834000       15.9994           0
     44538 TIP3     5301     TIP3     H1       HT       0.417000       1.00800           0
     44539 TIP3     5301     TIP3     H2       HT       0.417000       1.00800           0
     44540 TIP3     5302     TIP3     OH2      OT      -0.834000       15.9994           0
     44541 TIP3     5302     TIP3     H1       HT       0.417000       1.00800           0
     44542 TIP3     5302     TIP3     H2       HT       0.417000       1.00800           0
     44543 TIP3     5303     TIP3     OH2      OT      -0.834000       15.9994           0
     44544 TIP3     5303     TIP3     H1       HT       0.417000       1.00800           0
     44545 TIP3     5303     TIP3     H2       HT       0.417000       1.00800           0
     44546 TIP3     5304     TIP3     OH2      OT      -0.834000       15.9994           0
     44547 TIP3     5304     TIP3     H1       HT       0.417000       1.00800           0
     44548 TIP3     5304     TIP3     H2       HT       0.417000       1.00800           0
     44549 TIP3     5305     TIP3     OH2      OT      -0.834000       15.9994           0
     44550 TIP3     5305     TIP3     H1       HT       0.417000       1.00800           0
     44551 TIP3     5305     TIP3     H2       HT       0.417000       1.00800           0
     44552 TIP3     5306     TIP3     OH2      OT      -0.834000       15.9994           0
     44553 TIP3     5306     TIP3     H1       HT       0.417000       1.00800           0
     44554 TIP3     5306     TIP3     H2       HT       0.417000       1.00800           0
     44555 TIP3     5307     TIP3     OH2      OT      -0.834000       15.9994           0
     44556 TIP3     5307     TIP3     H1       HT       0.417000       1.00800           0
     44557 TIP3     5307     TIP3     H2       HT       0.417000       1.00800           0
     44558 TIP3     5308     TIP3     OH2      OT      -0.834000       15.9994           0
     44559 TIP3     5308     TIP3     H1       HT       0.417000       1.00800           0
     44560 TIP3     5308     TIP3     H2       HT       0.417000       1.00800           0
     44561 TIP3     5309     TIP3     OH2      OT      -0.834000       15.9994           0
     44562 TIP3     5309     TIP3     H1       HT       0.417000       1.00800           0
     44563 TIP3     5309     TIP3     H2       HT       0.417000       1.00800           0
     44564 TIP3     5310     TIP3     OH2      OT      -0.834000       15.9994           0
     44565 TIP3     5310     TIP3     H1       HT       0.417000       1.00800           0
     44566 TIP3     5310     TIP3     H2       HT       0.417000       1.00800           0
     44567 TIP3     5311     TIP3     OH2      OT      -0.834000       15.9994           0
     44568 TIP3     5311     TIP3     H1       HT       0.417000       1.00800           0
     44569 TIP3     5311     TIP3     H2       HT       0.417000       1.00800           0
     44570 TIP3     5312     TIP3     OH2      OT      -0.834000       15.9994           0
     44571 TIP3     5312     TIP3     H1       HT       0.417000       1.00800           0
     44572 TIP3     5312     TIP3     H2       HT       0.417000       1.00800           0
     44573 TIP3     5313     TIP3     OH2      OT      -0.834000       15.9994           0
     44574 TIP3     5313     TIP3     H1       HT       0.417000       1.00800           0
     44575 TIP3     5313     TIP3     H2       HT       0.417000       1.00800           0
     44576 TIP3     5314     TIP3     OH2      OT      -0.834000       15.9994           0
     44577 TIP3     5314     TIP3     H1       HT       0.417000       1.00800           0
     44578 TIP3     5314     TIP3     H2       HT       0.417000       1.00800           0
     44579 TIP3     5315     TIP3     OH2      OT      -0.834000       15.9994           0
     44580 TIP3     5315     TIP3     H1       HT       0.417000       1.00800           0
     44581 TIP3     5315     TIP3     H2       HT       0.417000       1.00800           0
     44582 TIP3     5316     TIP3     OH2      OT      -0.834000       15.9994           0
     44583 TIP3     5316     TIP3     H1       HT       0.417000       1.00800           0
     44584 TIP3     5316     TIP3     H2       HT       0.417000       1.00800           0
     44585 TIP3     5317     TIP3     OH2      OT      -0.834000       15.9994           0
     44586 TIP3     5317     TIP3     H1       HT       0.417000       1.00800           0
     44587 TIP3     5317     TIP3     H2       HT       0.417000       1.00800           0
     44588 TIP3     5318     TIP3     OH2      OT      -0.834000       15.9994           0
     44589 TIP3     5318     TIP3     H1       HT       0.417000       1.00800           0
     44590 TIP3     5318     TIP3     H2       HT       0.417000       1.00800           0
     44591 TIP3     5319     TIP3     OH2      OT      -0.834000       15.9994           0
     44592 TIP3     5319     TIP3     H1       HT       0.417000       1.00800           0
     44593 TIP3     5319     TIP3     H2       HT       0.417000       1.00800           0
     44594 TIP3     5320     TIP3     OH2      OT      -0.834000       15.9994           0
     44595 TIP3     5320     TIP3     H1       HT       0.417000       1.00800           0
     44596 TIP3     5320     TIP3     H2       HT       0.417000       1.00800           0
     44597 TIP3     5321     TIP3     OH2      OT      -0.834000       15.9994           0
     44598 TIP3     5321     TIP3     H1       HT       0.417000       1.00800           0
     44599 TIP3     5321     TIP3     H2       HT       0.417000       1.00800           0
     44600 TIP3     5322     TIP3     OH2      OT      -0.834000       15.9994           0
     44601 TIP3     5322     TIP3     H1       HT       0.417000       1.00800           0
     44602 TIP3     5322     TIP3     H2       HT       0.417000       1.00800           0
     44603 TIP3     5323     TIP3     OH2      OT      -0.834000       15.9994           0
     44604 TIP3     5323     TIP3     H1       HT       0.417000       1.00800           0
     44605 TIP3     5323     TIP3     H2       HT       0.417000       1.00800           0
     44606 TIP3     5324     TIP3     OH2      OT      -0.834000       15.9994           0
     44607 TIP3     5324     TIP3     H1       HT       0.417000       1.00800           0
     44608 TIP3     5324     TIP3     H2       HT       0.417000       1.00800           0
     44609 TIP3     5325     TIP3     OH2      OT      -0.834000       15.9994           0
     44610 TIP3     5325     TIP3     H1       HT       0.417000       1.00800           0
     44611 TIP3     5325     TIP3     H2       HT       0.417000       1.00800           0
     44612 TIP3     5326     TIP3     OH2      OT      -0.834000       15.9994           0
     44613 TIP3     5326     TIP3     H1       HT       0.417000       1.00800           0
     44614 TIP3     5326     TIP3     H2       HT       0.417000       1.00800           0
     44615 TIP3     5327     TIP3     OH2      OT      -0.834000       15.9994           0
     44616 TIP3     5327     TIP3     H1       HT       0.417000       1.00800           0
     44617 TIP3     5327     TIP3     H2       HT       0.417000       1.00800           0
     44618 TIP3     5328     TIP3     OH2      OT      -0.834000       15.9994           0
     44619 TIP3     5328     TIP3     H1       HT       0.417000       1.00800           0
     44620 TIP3     5328     TIP3     H2       HT       0.417000       1.00800           0
     44621 TIP3     5329     TIP3     OH2      OT      -0.834000       15.9994           0
     44622 TIP3     5329     TIP3     H1       HT       0.417000       1.00800           0
     44623 TIP3     5329     TIP3     H2       HT       0.417000       1.00800           0
     44624 TIP3     5330     TIP3     OH2      OT      -0.834000       15.9994           0
     44625 TIP3     5330     TIP3     H1       HT       0.417000       1.00800           0
     44626 TIP3     5330     TIP3     H2       HT       0.417000       1.00800           0
     44627 TIP3     5331     TIP3     OH2      OT      -0.834000       15.9994           0
     44628 TIP3     5331     TIP3     H1       HT       0.417000       1.00800           0
     44629 TIP3     5331     TIP3     H2       HT       0.417000       1.00800           0
     44630 TIP3     5332     TIP3     OH2      OT      -0.834000       15.9994           0
     44631 TIP3     5332     TIP3     H1       HT       0.417000       1.00800           0
     44632 TIP3     5332     TIP3     H2       HT       0.417000       1.00800           0
     44633 TIP3     5333     TIP3     OH2      OT      -0.834000       15.9994           0
     44634 TIP3     5333     TIP3     H1       HT       0.417000       1.00800           0
     44635 TIP3     5333     TIP3     H2       HT       0.417000       1.00800           0
     44636 TIP3     5334     TIP3     OH2      OT      -0.834000       15.9994           0
     44637 TIP3     5334     TIP3     H1       HT       0.417000       1.00800           0
     44638 TIP3     5334     TIP3     H2       HT       0.417000       1.00800           0
     44639 TIP3     5335     TIP3     OH2      OT      -0.834000       15.9994           0
     44640 TIP3     5335     TIP3     H1       HT       0.417000       1.00800           0
     44641 TIP3     5335     TIP3     H2       HT       0.417000       1.00800           0
     44642 TIP3     5336     TIP3     OH2      OT      -0.834000       15.9994           0
     44643 TIP3     5336     TIP3     H1       HT       0.417000       1.00800           0
     44644 TIP3     5336     TIP3     H2       HT       0.417000       1.00800           0
     44645 TIP3     5337     TIP3     OH2      OT      -0.834000       15.9994           0
     44646 TIP3     5337     TIP3     H1       HT       0.417000       1.00800           0
     44647 TIP3     5337     TIP3     H2       HT       0.417000       1.00800           0
     44648 TIP3     5338     TIP3     OH2      OT      -0.834000       15.9994           0
     44649 TIP3     5338     TIP3     H1       HT       0.417000       1.00800           0
     44650 TIP3     5338     TIP3     H2       HT       0.417000       1.00800           0
     44651 TIP3     5339     TIP3     OH2      OT      -0.834000       15.9994           0
     44652 TIP3     5339     TIP3     H1       HT       0.417000       1.00800           0
     44653 TIP3     5339     TIP3     H2       HT       0.417000       1.00800           0
     44654 TIP3     5340     TIP3     OH2      OT      -0.834000       15.9994           0
     44655 TIP3     5340     TIP3     H1       HT       0.417000       1.00800           0
     44656 TIP3     5340     TIP3     H2       HT       0.417000       1.00800           0
     44657 TIP3     5341     TIP3     OH2      OT      -0.834000       15.9994           0
     44658 TIP3     5341     TIP3     H1       HT       0.417000       1.00800           0
     44659 TIP3     5341     TIP3     H2       HT       0.417000       1.00800           0
     44660 TIP3     5342     TIP3     OH2      OT      -0.834000       15.9994           0
     44661 TIP3     5342     TIP3     H1       HT       0.417000       1.00800           0
     44662 TIP3     5342     TIP3     H2       HT       0.417000       1.00800           0
     44663 TIP3     5343     TIP3     OH2      OT      -0.834000       15.9994           0
     44664 TIP3     5343     TIP3     H1       HT       0.417000       1.00800           0
     44665 TIP3     5343     TIP3     H2       HT       0.417000       1.00800           0
     44666 TIP3     5344     TIP3     OH2      OT      -0.834000       15.9994           0
     44667 TIP3     5344     TIP3     H1       HT       0.417000       1.00800           0
     44668 TIP3     5344     TIP3     H2       HT       0.417000       1.00800           0
     44669 TIP3     5345     TIP3     OH2      OT      -0.834000       15.9994           0
     44670 TIP3     5345     TIP3     H1       HT       0.417000       1.00800           0
     44671 TIP3     5345     TIP3     H2       HT       0.417000       1.00800           0
     44672 TIP3     5346     TIP3     OH2      OT      -0.834000       15.9994           0
     44673 TIP3     5346     TIP3     H1       HT       0.417000       1.00800           0
     44674 TIP3     5346     TIP3     H2       HT       0.417000       1.00800           0
     44675 TIP3     5347     TIP3     OH2      OT      -0.834000       15.9994           0
     44676 TIP3     5347     TIP3     H1       HT       0.417000       1.00800           0
     44677 TIP3     5347     TIP3     H2       HT       0.417000       1.00800           0
     44678 TIP3     5348     TIP3     OH2      OT      -0.834000       15.9994           0
     44679 TIP3     5348     TIP3     H1       HT       0.417000       1.00800           0
     44680 TIP3     5348     TIP3     H2       HT       0.417000       1.00800           0
     44681 TIP3     5349     TIP3     OH2      OT      -0.834000       15.9994           0
     44682 TIP3     5349     TIP3     H1       HT       0.417000       1.00800           0
     44683 TIP3     5349     TIP3     H2       HT       0.417000       1.00800           0
     44684 TIP3     5350     TIP3     OH2      OT      -0.834000       15.9994           0
     44685 TIP3     5350     TIP3     H1       HT       0.417000       1.00800           0
     44686 TIP3     5350     TIP3     H2       HT       0.417000       1.00800           0
     44687 TIP3     5351     TIP3     OH2      OT      -0.834000       15.9994           0
     44688 TIP3     5351     TIP3     H1       HT       0.417000       1.00800           0
     44689 TIP3     5351     TIP3     H2       HT       0.417000       1.00800           0
     44690 TIP3     5352     TIP3     OH2      OT      -0.834000       15.9994           0
     44691 TIP3     5352     TIP3     H1       HT       0.417000       1.00800           0
     44692 TIP3     5352     TIP3     H2       HT       0.417000       1.00800           0
     44693 TIP3     5353     TIP3     OH2      OT      -0.834000       15.9994           0
     44694 TIP3     5353     TIP3     H1       HT       0.417000       1.00800           0
     44695 TIP3     5353     TIP3     H2       HT       0.417000       1.00800           0
     44696 TIP3     5354     TIP3     OH2      OT      -0.834000       15.9994           0
     44697 TIP3     5354     TIP3     H1       HT       0.417000       1.00800           0
     44698 TIP3     5354     TIP3     H2       HT       0.417000       1.00800           0
     44699 TIP3     5355     TIP3     OH2      OT      -0.834000       15.9994           0
     44700 TIP3     5355     TIP3     H1       HT       0.417000       1.00800           0
     44701 TIP3     5355     TIP3     H2       HT       0.417000       1.00800           0
     44702 TIP3     5356     TIP3     OH2      OT      -0.834000       15.9994           0
     44703 TIP3     5356     TIP3     H1       HT       0.417000       1.00800           0
     44704 TIP3     5356     TIP3     H2       HT       0.417000       1.00800           0
     44705 TIP3     5357     TIP3     OH2      OT      -0.834000       15.9994           0
     44706 TIP3     5357     TIP3     H1       HT       0.417000       1.00800           0
     44707 TIP3     5357     TIP3     H2       HT       0.417000       1.00800           0
     44708 TIP3     5358     TIP3     OH2      OT      -0.834000       15.9994           0
     44709 TIP3     5358     TIP3     H1       HT       0.417000       1.00800           0
     44710 TIP3     5358     TIP3     H2       HT       0.417000       1.00800           0
     44711 TIP3     5359     TIP3     OH2      OT      -0.834000       15.9994           0
     44712 TIP3     5359     TIP3     H1       HT       0.417000       1.00800           0
     44713 TIP3     5359     TIP3     H2       HT       0.417000       1.00800           0
     44714 TIP3     5360     TIP3     OH2      OT      -0.834000       15.9994           0
     44715 TIP3     5360     TIP3     H1       HT       0.417000       1.00800           0
     44716 TIP3     5360     TIP3     H2       HT       0.417000       1.00800           0
     44717 TIP3     5361     TIP3     OH2      OT      -0.834000       15.9994           0
     44718 TIP3     5361     TIP3     H1       HT       0.417000       1.00800           0
     44719 TIP3     5361     TIP3     H2       HT       0.417000       1.00800           0
     44720 TIP3     5362     TIP3     OH2      OT      -0.834000       15.9994           0
     44721 TIP3     5362     TIP3     H1       HT       0.417000       1.00800           0
     44722 TIP3     5362     TIP3     H2       HT       0.417000       1.00800           0
     44723 TIP3     5363     TIP3     OH2      OT      -0.834000       15.9994           0
     44724 TIP3     5363     TIP3     H1       HT       0.417000       1.00800           0
     44725 TIP3     5363     TIP3     H2       HT       0.417000       1.00800           0
     44726 TIP3     5364     TIP3     OH2      OT      -0.834000       15.9994           0
     44727 TIP3     5364     TIP3     H1       HT       0.417000       1.00800           0
     44728 TIP3     5364     TIP3     H2       HT       0.417000       1.00800           0
     44729 TIP3     5365     TIP3     OH2      OT      -0.834000       15.9994           0
     44730 TIP3     5365     TIP3     H1       HT       0.417000       1.00800           0
     44731 TIP3     5365     TIP3     H2       HT       0.417000       1.00800           0
     44732 TIP3     5366     TIP3     OH2      OT      -0.834000       15.9994           0
     44733 TIP3     5366     TIP3     H1       HT       0.417000       1.00800           0
     44734 TIP3     5366     TIP3     H2       HT       0.417000       1.00800           0
     44735 TIP3     5367     TIP3     OH2      OT      -0.834000       15.9994           0
     44736 TIP3     5367     TIP3     H1       HT       0.417000       1.00800           0
     44737 TIP3     5367     TIP3     H2       HT       0.417000       1.00800           0
     44738 TIP3     5368     TIP3     OH2      OT      -0.834000       15.9994           0
     44739 TIP3     5368     TIP3     H1       HT       0.417000       1.00800           0
     44740 TIP3     5368     TIP3     H2       HT       0.417000       1.00800           0
     44741 TIP3     5369     TIP3     OH2      OT      -0.834000       15.9994           0
     44742 TIP3     5369     TIP3     H1       HT       0.417000       1.00800           0
     44743 TIP3     5369     TIP3     H2       HT       0.417000       1.00800           0
     44744 TIP3     5370     TIP3     OH2      OT      -0.834000       15.9994           0
     44745 TIP3     5370     TIP3     H1       HT       0.417000       1.00800           0
     44746 TIP3     5370     TIP3     H2       HT       0.417000       1.00800           0
     44747 TIP3     5371     TIP3     OH2      OT      -0.834000       15.9994           0
     44748 TIP3     5371     TIP3     H1       HT       0.417000       1.00800           0
     44749 TIP3     5371     TIP3     H2       HT       0.417000       1.00800           0
     44750 TIP3     5372     TIP3     OH2      OT      -0.834000       15.9994           0
     44751 TIP3     5372     TIP3     H1       HT       0.417000       1.00800           0
     44752 TIP3     5372     TIP3     H2       HT       0.417000       1.00800           0
     44753 TIP3     5373     TIP3     OH2      OT      -0.834000       15.9994           0
     44754 TIP3     5373     TIP3     H1       HT       0.417000       1.00800           0
     44755 TIP3     5373     TIP3     H2       HT       0.417000       1.00800           0
     44756 TIP3     5374     TIP3     OH2      OT      -0.834000       15.9994           0
     44757 TIP3     5374     TIP3     H1       HT       0.417000       1.00800           0
     44758 TIP3     5374     TIP3     H2       HT       0.417000       1.00800           0
     44759 TIP3     5375     TIP3     OH2      OT      -0.834000       15.9994           0
     44760 TIP3     5375     TIP3     H1       HT       0.417000       1.00800           0
     44761 TIP3     5375     TIP3     H2       HT       0.417000       1.00800           0
     44762 TIP3     5376     TIP3     OH2      OT      -0.834000       15.9994           0
     44763 TIP3     5376     TIP3     H1       HT       0.417000       1.00800           0
     44764 TIP3     5376     TIP3     H2       HT       0.417000       1.00800           0
     44765 TIP3     5377     TIP3     OH2      OT      -0.834000       15.9994           0
     44766 TIP3     5377     TIP3     H1       HT       0.417000       1.00800           0
     44767 TIP3     5377     TIP3     H2       HT       0.417000       1.00800           0
     44768 TIP3     5378     TIP3     OH2      OT      -0.834000       15.9994           0
     44769 TIP3     5378     TIP3     H1       HT       0.417000       1.00800           0
     44770 TIP3     5378     TIP3     H2       HT       0.417000       1.00800           0
     44771 TIP3     5379     TIP3     OH2      OT      -0.834000       15.9994           0
     44772 TIP3     5379     TIP3     H1       HT       0.417000       1.00800           0
     44773 TIP3     5379     TIP3     H2       HT       0.417000       1.00800           0
     44774 TIP3     5380     TIP3     OH2      OT      -0.834000       15.9994           0
     44775 TIP3     5380     TIP3     H1       HT       0.417000       1.00800           0
     44776 TIP3     5380     TIP3     H2       HT       0.417000       1.00800           0
     44777 TIP3     5381     TIP3     OH2      OT      -0.834000       15.9994           0
     44778 TIP3     5381     TIP3     H1       HT       0.417000       1.00800           0
     44779 TIP3     5381     TIP3     H2       HT       0.417000       1.00800           0
     44780 TIP3     5382     TIP3     OH2      OT      -0.834000       15.9994           0
     44781 TIP3     5382     TIP3     H1       HT       0.417000       1.00800           0
     44782 TIP3     5382     TIP3     H2       HT       0.417000       1.00800           0
     44783 TIP3     5383     TIP3     OH2      OT      -0.834000       15.9994           0
     44784 TIP3     5383     TIP3     H1       HT       0.417000       1.00800           0
     44785 TIP3     5383     TIP3     H2       HT       0.417000       1.00800           0
     44786 TIP3     5384     TIP3     OH2      OT      -0.834000       15.9994           0
     44787 TIP3     5384     TIP3     H1       HT       0.417000       1.00800           0
     44788 TIP3     5384     TIP3     H2       HT       0.417000       1.00800           0
     44789 TIP3     5385     TIP3     OH2      OT      -0.834000       15.9994           0
     44790 TIP3     5385     TIP3     H1       HT       0.417000       1.00800           0
     44791 TIP3     5385     TIP3     H2       HT       0.417000       1.00800           0
     44792 TIP3     5386     TIP3     OH2      OT      -0.834000       15.9994           0
     44793 TIP3     5386     TIP3     H1       HT       0.417000       1.00800           0
     44794 TIP3     5386     TIP3     H2       HT       0.417000       1.00800           0
     44795 TIP3     5387     TIP3     OH2      OT      -0.834000       15.9994           0
     44796 TIP3     5387     TIP3     H1       HT       0.417000       1.00800           0
     44797 TIP3     5387     TIP3     H2       HT       0.417000       1.00800           0
     44798 TIP3     5388     TIP3     OH2      OT      -0.834000       15.9994           0
     44799 TIP3     5388     TIP3     H1       HT       0.417000       1.00800           0
     44800 TIP3     5388     TIP3     H2       HT       0.417000       1.00800           0
     44801 TIP3     5389     TIP3     OH2      OT      -0.834000       15.9994           0
     44802 TIP3     5389     TIP3     H1       HT       0.417000       1.00800           0
     44803 TIP3     5389     TIP3     H2       HT       0.417000       1.00800           0
     44804 TIP3     5390     TIP3     OH2      OT      -0.834000       15.9994           0
     44805 TIP3     5390     TIP3     H1       HT       0.417000       1.00800           0
     44806 TIP3     5390     TIP3     H2       HT       0.417000       1.00800           0
     44807 TIP3     5391     TIP3     OH2      OT      -0.834000       15.9994           0
     44808 TIP3     5391     TIP3     H1       HT       0.417000       1.00800           0
     44809 TIP3     5391     TIP3     H2       HT       0.417000       1.00800           0
     44810 TIP3     5392     TIP3     OH2      OT      -0.834000       15.9994           0
     44811 TIP3     5392     TIP3     H1       HT       0.417000       1.00800           0
     44812 TIP3     5392     TIP3     H2       HT       0.417000       1.00800           0
     44813 TIP3     5393     TIP3     OH2      OT      -0.834000       15.9994           0
     44814 TIP3     5393     TIP3     H1       HT       0.417000       1.00800           0
     44815 TIP3     5393     TIP3     H2       HT       0.417000       1.00800           0
     44816 TIP3     5394     TIP3     OH2      OT      -0.834000       15.9994           0
     44817 TIP3     5394     TIP3     H1       HT       0.417000       1.00800           0
     44818 TIP3     5394     TIP3     H2       HT       0.417000       1.00800           0
     44819 TIP3     5395     TIP3     OH2      OT      -0.834000       15.9994           0
     44820 TIP3     5395     TIP3     H1       HT       0.417000       1.00800           0
     44821 TIP3     5395     TIP3     H2       HT       0.417000       1.00800           0
     44822 TIP3     5396     TIP3     OH2      OT      -0.834000       15.9994           0
     44823 TIP3     5396     TIP3     H1       HT       0.417000       1.00800           0
     44824 TIP3     5396     TIP3     H2       HT       0.417000       1.00800           0
     44825 TIP3     5397     TIP3     OH2      OT      -0.834000       15.9994           0
     44826 TIP3     5397     TIP3     H1       HT       0.417000       1.00800           0
     44827 TIP3     5397     TIP3     H2       HT       0.417000       1.00800           0
     44828 TIP3     5398     TIP3     OH2      OT      -0.834000       15.9994           0
     44829 TIP3     5398     TIP3     H1       HT       0.417000       1.00800           0
     44830 TIP3     5398     TIP3     H2       HT       0.417000       1.00800           0
     44831 TIP3     5399     TIP3     OH2      OT      -0.834000       15.9994           0
     44832 TIP3     5399     TIP3     H1       HT       0.417000       1.00800           0
     44833 TIP3     5399     TIP3     H2       HT       0.417000       1.00800           0
     44834 TIP3     5400     TIP3     OH2      OT      -0.834000       15.9994           0
     44835 TIP3     5400     TIP3     H1       HT       0.417000       1.00800           0
     44836 TIP3     5400     TIP3     H2       HT       0.417000       1.00800           0
     44837 TIP3     5401     TIP3     OH2      OT      -0.834000       15.9994           0
     44838 TIP3     5401     TIP3     H1       HT       0.417000       1.00800           0
     44839 TIP3     5401     TIP3     H2       HT       0.417000       1.00800           0
     44840 TIP3     5402     TIP3     OH2      OT      -0.834000       15.9994           0
     44841 TIP3     5402     TIP3     H1       HT       0.417000       1.00800           0
     44842 TIP3     5402     TIP3     H2       HT       0.417000       1.00800           0
     44843 TIP3     5403     TIP3     OH2      OT      -0.834000       15.9994           0
     44844 TIP3     5403     TIP3     H1       HT       0.417000       1.00800           0
     44845 TIP3     5403     TIP3     H2       HT       0.417000       1.00800           0
     44846 TIP3     5404     TIP3     OH2      OT      -0.834000       15.9994           0
     44847 TIP3     5404     TIP3     H1       HT       0.417000       1.00800           0
     44848 TIP3     5404     TIP3     H2       HT       0.417000       1.00800           0
     44849 TIP3     5405     TIP3     OH2      OT      -0.834000       15.9994           0
     44850 TIP3     5405     TIP3     H1       HT       0.417000       1.00800           0
     44851 TIP3     5405     TIP3     H2       HT       0.417000       1.00800           0
     44852 TIP3     5406     TIP3     OH2      OT      -0.834000       15.9994           0
     44853 TIP3     5406     TIP3     H1       HT       0.417000       1.00800           0
     44854 TIP3     5406     TIP3     H2       HT       0.417000       1.00800           0
     44855 TIP3     5407     TIP3     OH2      OT      -0.834000       15.9994           0
     44856 TIP3     5407     TIP3     H1       HT       0.417000       1.00800           0
     44857 TIP3     5407     TIP3     H2       HT       0.417000       1.00800           0
     44858 TIP3     5408     TIP3     OH2      OT      -0.834000       15.9994           0
     44859 TIP3     5408     TIP3     H1       HT       0.417000       1.00800           0
     44860 TIP3     5408     TIP3     H2       HT       0.417000       1.00800           0
     44861 TIP3     5409     TIP3     OH2      OT      -0.834000       15.9994           0
     44862 TIP3     5409     TIP3     H1       HT       0.417000       1.00800           0
     44863 TIP3     5409     TIP3     H2       HT       0.417000       1.00800           0
     44864 TIP3     5410     TIP3     OH2      OT      -0.834000       15.9994           0
     44865 TIP3     5410     TIP3     H1       HT       0.417000       1.00800           0
     44866 TIP3     5410     TIP3     H2       HT       0.417000       1.00800           0
     44867 TIP3     5411     TIP3     OH2      OT      -0.834000       15.9994           0
     44868 TIP3     5411     TIP3     H1       HT       0.417000       1.00800           0
     44869 TIP3     5411     TIP3     H2       HT       0.417000       1.00800           0
     44870 TIP3     5412     TIP3     OH2      OT      -0.834000       15.9994           0
     44871 TIP3     5412     TIP3     H1       HT       0.417000       1.00800           0
     44872 TIP3     5412     TIP3     H2       HT       0.417000       1.00800           0
     44873 TIP3     5413     TIP3     OH2      OT      -0.834000       15.9994           0
     44874 TIP3     5413     TIP3     H1       HT       0.417000       1.00800           0
     44875 TIP3     5413     TIP3     H2       HT       0.417000       1.00800           0
     44876 TIP3     5414     TIP3     OH2      OT      -0.834000       15.9994           0
     44877 TIP3     5414     TIP3     H1       HT       0.417000       1.00800           0
     44878 TIP3     5414     TIP3     H2       HT       0.417000       1.00800           0
     44879 TIP3     5415     TIP3     OH2      OT      -0.834000       15.9994           0
     44880 TIP3     5415     TIP3     H1       HT       0.417000       1.00800           0
     44881 TIP3     5415     TIP3     H2       HT       0.417000       1.00800           0
     44882 TIP3     5416     TIP3     OH2      OT      -0.834000       15.9994           0
     44883 TIP3     5416     TIP3     H1       HT       0.417000       1.00800           0
     44884 TIP3     5416     TIP3     H2       HT       0.417000       1.00800           0
     44885 TIP3     5417     TIP3     OH2      OT      -0.834000       15.9994           0
     44886 TIP3     5417     TIP3     H1       HT       0.417000       1.00800           0
     44887 TIP3     5417     TIP3     H2       HT       0.417000       1.00800           0
     44888 TIP3     5418     TIP3     OH2      OT      -0.834000       15.9994           0
     44889 TIP3     5418     TIP3     H1       HT       0.417000       1.00800           0
     44890 TIP3     5418     TIP3     H2       HT       0.417000       1.00800           0
     44891 TIP3     5419     TIP3     OH2      OT      -0.834000       15.9994           0
     44892 TIP3     5419     TIP3     H1       HT       0.417000       1.00800           0
     44893 TIP3     5419     TIP3     H2       HT       0.417000       1.00800           0
     44894 TIP3     5420     TIP3     OH2      OT      -0.834000       15.9994           0
     44895 TIP3     5420     TIP3     H1       HT       0.417000       1.00800           0
     44896 TIP3     5420     TIP3     H2       HT       0.417000       1.00800           0
     44897 TIP3     5421     TIP3     OH2      OT      -0.834000       15.9994           0
     44898 TIP3     5421     TIP3     H1       HT       0.417000       1.00800           0
     44899 TIP3     5421     TIP3     H2       HT       0.417000       1.00800           0
     44900 TIP3     5422     TIP3     OH2      OT      -0.834000       15.9994           0
     44901 TIP3     5422     TIP3     H1       HT       0.417000       1.00800           0
     44902 TIP3     5422     TIP3     H2       HT       0.417000       1.00800           0
     44903 TIP3     5423     TIP3     OH2      OT      -0.834000       15.9994           0
     44904 TIP3     5423     TIP3     H1       HT       0.417000       1.00800           0
     44905 TIP3     5423     TIP3     H2       HT       0.417000       1.00800           0
     44906 TIP3     5424     TIP3     OH2      OT      -0.834000       15.9994           0
     44907 TIP3     5424     TIP3     H1       HT       0.417000       1.00800           0
     44908 TIP3     5424     TIP3     H2       HT       0.417000       1.00800           0
     44909 TIP3     5425     TIP3     OH2      OT      -0.834000       15.9994           0
     44910 TIP3     5425     TIP3     H1       HT       0.417000       1.00800           0
     44911 TIP3     5425     TIP3     H2       HT       0.417000       1.00800           0
     44912 TIP3     5426     TIP3     OH2      OT      -0.834000       15.9994           0
     44913 TIP3     5426     TIP3     H1       HT       0.417000       1.00800           0
     44914 TIP3     5426     TIP3     H2       HT       0.417000       1.00800           0
     44915 TIP3     5427     TIP3     OH2      OT      -0.834000       15.9994           0
     44916 TIP3     5427     TIP3     H1       HT       0.417000       1.00800           0
     44917 TIP3     5427     TIP3     H2       HT       0.417000       1.00800           0
     44918 TIP3     5428     TIP3     OH2      OT      -0.834000       15.9994           0
     44919 TIP3     5428     TIP3     H1       HT       0.417000       1.00800           0
     44920 TIP3     5428     TIP3     H2       HT       0.417000       1.00800           0
     44921 TIP3     5429     TIP3     OH2      OT      -0.834000       15.9994           0
     44922 TIP3     5429     TIP3     H1       HT       0.417000       1.00800           0
     44923 TIP3     5429     TIP3     H2       HT       0.417000       1.00800           0
     44924 TIP3     5430     TIP3     OH2      OT      -0.834000       15.9994           0
     44925 TIP3     5430     TIP3     H1       HT       0.417000       1.00800           0
     44926 TIP3     5430     TIP3     H2       HT       0.417000       1.00800           0
     44927 TIP3     5431     TIP3     OH2      OT      -0.834000       15.9994           0
     44928 TIP3     5431     TIP3     H1       HT       0.417000       1.00800           0
     44929 TIP3     5431     TIP3     H2       HT       0.417000       1.00800           0
     44930 TIP3     5432     TIP3     OH2      OT      -0.834000       15.9994           0
     44931 TIP3     5432     TIP3     H1       HT       0.417000       1.00800           0
     44932 TIP3     5432     TIP3     H2       HT       0.417000       1.00800           0
     44933 TIP3     5433     TIP3     OH2      OT      -0.834000       15.9994           0
     44934 TIP3     5433     TIP3     H1       HT       0.417000       1.00800           0
     44935 TIP3     5433     TIP3     H2       HT       0.417000       1.00800           0
     44936 TIP3     5434     TIP3     OH2      OT      -0.834000       15.9994           0
     44937 TIP3     5434     TIP3     H1       HT       0.417000       1.00800           0
     44938 TIP3     5434     TIP3     H2       HT       0.417000       1.00800           0
     44939 TIP3     5435     TIP3     OH2      OT      -0.834000       15.9994           0
     44940 TIP3     5435     TIP3     H1       HT       0.417000       1.00800           0
     44941 TIP3     5435     TIP3     H2       HT       0.417000       1.00800           0
     44942 TIP3     5436     TIP3     OH2      OT      -0.834000       15.9994           0
     44943 TIP3     5436     TIP3     H1       HT       0.417000       1.00800           0
     44944 TIP3     5436     TIP3     H2       HT       0.417000       1.00800           0
     44945 TIP3     5437     TIP3     OH2      OT      -0.834000       15.9994           0
     44946 TIP3     5437     TIP3     H1       HT       0.417000       1.00800           0
     44947 TIP3     5437     TIP3     H2       HT       0.417000       1.00800           0
     44948 TIP3     5438     TIP3     OH2      OT      -0.834000       15.9994           0
     44949 TIP3     5438     TIP3     H1       HT       0.417000       1.00800           0
     44950 TIP3     5438     TIP3     H2       HT       0.417000       1.00800           0
     44951 TIP3     5439     TIP3     OH2      OT      -0.834000       15.9994           0
     44952 TIP3     5439     TIP3     H1       HT       0.417000       1.00800           0
     44953 TIP3     5439     TIP3     H2       HT       0.417000       1.00800           0
     44954 TIP3     5440     TIP3     OH2      OT      -0.834000       15.9994           0
     44955 TIP3     5440     TIP3     H1       HT       0.417000       1.00800           0
     44956 TIP3     5440     TIP3     H2       HT       0.417000       1.00800           0
     44957 TIP3     5441     TIP3     OH2      OT      -0.834000       15.9994           0
     44958 TIP3     5441     TIP3     H1       HT       0.417000       1.00800           0
     44959 TIP3     5441     TIP3     H2       HT       0.417000       1.00800           0
     44960 TIP3     5442     TIP3     OH2      OT      -0.834000       15.9994           0
     44961 TIP3     5442     TIP3     H1       HT       0.417000       1.00800           0
     44962 TIP3     5442     TIP3     H2       HT       0.417000       1.00800           0
     44963 TIP3     5443     TIP3     OH2      OT      -0.834000       15.9994           0
     44964 TIP3     5443     TIP3     H1       HT       0.417000       1.00800           0
     44965 TIP3     5443     TIP3     H2       HT       0.417000       1.00800           0
     44966 TIP3     5444     TIP3     OH2      OT      -0.834000       15.9994           0
     44967 TIP3     5444     TIP3     H1       HT       0.417000       1.00800           0
     44968 TIP3     5444     TIP3     H2       HT       0.417000       1.00800           0
     44969 TIP3     5445     TIP3     OH2      OT      -0.834000       15.9994           0
     44970 TIP3     5445     TIP3     H1       HT       0.417000       1.00800           0
     44971 TIP3     5445     TIP3     H2       HT       0.417000       1.00800           0
     44972 TIP3     5446     TIP3     OH2      OT      -0.834000       15.9994           0
     44973 TIP3     5446     TIP3     H1       HT       0.417000       1.00800           0
     44974 TIP3     5446     TIP3     H2       HT       0.417000       1.00800           0
     44975 TIP3     5447     TIP3     OH2      OT      -0.834000       15.9994           0
     44976 TIP3     5447     TIP3     H1       HT       0.417000       1.00800           0
     44977 TIP3     5447     TIP3     H2       HT       0.417000       1.00800           0
     44978 TIP3     5448     TIP3     OH2      OT      -0.834000       15.9994           0
     44979 TIP3     5448     TIP3     H1       HT       0.417000       1.00800           0
     44980 TIP3     5448     TIP3     H2       HT       0.417000       1.00800           0
     44981 TIP3     5449     TIP3     OH2      OT      -0.834000       15.9994           0
     44982 TIP3     5449     TIP3     H1       HT       0.417000       1.00800           0
     44983 TIP3     5449     TIP3     H2       HT       0.417000       1.00800           0
     44984 TIP3     5450     TIP3     OH2      OT      -0.834000       15.9994           0
     44985 TIP3     5450     TIP3     H1       HT       0.417000       1.00800           0
     44986 TIP3     5450     TIP3     H2       HT       0.417000       1.00800           0
     44987 TIP3     5451     TIP3     OH2      OT      -0.834000       15.9994           0
     44988 TIP3     5451     TIP3     H1       HT       0.417000       1.00800           0
     44989 TIP3     5451     TIP3     H2       HT       0.417000       1.00800           0
     44990 TIP3     5452     TIP3     OH2      OT      -0.834000       15.9994           0
     44991 TIP3     5452     TIP3     H1       HT       0.417000       1.00800           0
     44992 TIP3     5452     TIP3     H2       HT       0.417000       1.00800           0
     44993 TIP3     5453     TIP3     OH2      OT      -0.834000       15.9994           0
     44994 TIP3     5453     TIP3     H1       HT       0.417000       1.00800           0
     44995 TIP3     5453     TIP3     H2       HT       0.417000       1.00800           0
     44996 TIP3     5454     TIP3     OH2      OT      -0.834000       15.9994           0
     44997 TIP3     5454     TIP3     H1       HT       0.417000       1.00800           0
     44998 TIP3     5454     TIP3     H2       HT       0.417000       1.00800           0
     44999 TIP3     5455     TIP3     OH2      OT      -0.834000       15.9994           0
     45000 TIP3     5455     TIP3     H1       HT       0.417000       1.00800           0
     45001 TIP3     5455     TIP3     H2       HT       0.417000       1.00800           0
     45002 TIP3     5456     TIP3     OH2      OT      -0.834000       15.9994           0
     45003 TIP3     5456     TIP3     H1       HT       0.417000       1.00800           0
     45004 TIP3     5456     TIP3     H2       HT       0.417000       1.00800           0
     45005 TIP3     5457     TIP3     OH2      OT      -0.834000       15.9994           0
     45006 TIP3     5457     TIP3     H1       HT       0.417000       1.00800           0
     45007 TIP3     5457     TIP3     H2       HT       0.417000       1.00800           0
     45008 TIP3     5458     TIP3     OH2      OT      -0.834000       15.9994           0
     45009 TIP3     5458     TIP3     H1       HT       0.417000       1.00800           0
     45010 TIP3     5458     TIP3     H2       HT       0.417000       1.00800           0
     45011 TIP3     5459     TIP3     OH2      OT      -0.834000       15.9994           0
     45012 TIP3     5459     TIP3     H1       HT       0.417000       1.00800           0
     45013 TIP3     5459     TIP3     H2       HT       0.417000       1.00800           0
     45014 TIP3     5460     TIP3     OH2      OT      -0.834000       15.9994           0
     45015 TIP3     5460     TIP3     H1       HT       0.417000       1.00800           0
     45016 TIP3     5460     TIP3     H2       HT       0.417000       1.00800           0
     45017 TIP3     5461     TIP3     OH2      OT      -0.834000       15.9994           0
     45018 TIP3     5461     TIP3     H1       HT       0.417000       1.00800           0
     45019 TIP3     5461     TIP3     H2       HT       0.417000       1.00800           0
     45020 TIP3     5462     TIP3     OH2      OT      -0.834000       15.9994           0
     45021 TIP3     5462     TIP3     H1       HT       0.417000       1.00800           0
     45022 TIP3     5462     TIP3     H2       HT       0.417000       1.00800           0
     45023 TIP3     5463     TIP3     OH2      OT      -0.834000       15.9994           0
     45024 TIP3     5463     TIP3     H1       HT       0.417000       1.00800           0
     45025 TIP3     5463     TIP3     H2       HT       0.417000       1.00800           0
     45026 TIP3     5464     TIP3     OH2      OT      -0.834000       15.9994           0
     45027 TIP3     5464     TIP3     H1       HT       0.417000       1.00800           0
     45028 TIP3     5464     TIP3     H2       HT       0.417000       1.00800           0
     45029 TIP3     5465     TIP3     OH2      OT      -0.834000       15.9994           0
     45030 TIP3     5465     TIP3     H1       HT       0.417000       1.00800           0
     45031 TIP3     5465     TIP3     H2       HT       0.417000       1.00800           0
     45032 TIP3     5466     TIP3     OH2      OT      -0.834000       15.9994           0
     45033 TIP3     5466     TIP3     H1       HT       0.417000       1.00800           0
     45034 TIP3     5466     TIP3     H2       HT       0.417000       1.00800           0
     45035 TIP3     5467     TIP3     OH2      OT      -0.834000       15.9994           0
     45036 TIP3     5467     TIP3     H1       HT       0.417000       1.00800           0
     45037 TIP3     5467     TIP3     H2       HT       0.417000       1.00800           0
     45038 TIP3     5468     TIP3     OH2      OT      -0.834000       15.9994           0
     45039 TIP3     5468     TIP3     H1       HT       0.417000       1.00800           0
     45040 TIP3     5468     TIP3     H2       HT       0.417000       1.00800           0
     45041 TIP3     5469     TIP3     OH2      OT      -0.834000       15.9994           0
     45042 TIP3     5469     TIP3     H1       HT       0.417000       1.00800           0
     45043 TIP3     5469     TIP3     H2       HT       0.417000       1.00800           0
     45044 TIP3     5470     TIP3     OH2      OT      -0.834000       15.9994           0
     45045 TIP3     5470     TIP3     H1       HT       0.417000       1.00800           0
     45046 TIP3     5470     TIP3     H2       HT       0.417000       1.00800           0
     45047 TIP3     5471     TIP3     OH2      OT      -0.834000       15.9994           0
     45048 TIP3     5471     TIP3     H1       HT       0.417000       1.00800           0
     45049 TIP3     5471     TIP3     H2       HT       0.417000       1.00800           0
     45050 TIP3     5472     TIP3     OH2      OT      -0.834000       15.9994           0
     45051 TIP3     5472     TIP3     H1       HT       0.417000       1.00800           0
     45052 TIP3     5472     TIP3     H2       HT       0.417000       1.00800           0
     45053 TIP3     5473     TIP3     OH2      OT      -0.834000       15.9994           0
     45054 TIP3     5473     TIP3     H1       HT       0.417000       1.00800           0
     45055 TIP3     5473     TIP3     H2       HT       0.417000       1.00800           0
     45056 TIP3     5474     TIP3     OH2      OT      -0.834000       15.9994           0
     45057 TIP3     5474     TIP3     H1       HT       0.417000       1.00800           0
     45058 TIP3     5474     TIP3     H2       HT       0.417000       1.00800           0
     45059 TIP3     5475     TIP3     OH2      OT      -0.834000       15.9994           0
     45060 TIP3     5475     TIP3     H1       HT       0.417000       1.00800           0
     45061 TIP3     5475     TIP3     H2       HT       0.417000       1.00800           0
     45062 TIP3     5476     TIP3     OH2      OT      -0.834000       15.9994           0
     45063 TIP3     5476     TIP3     H1       HT       0.417000       1.00800           0
     45064 TIP3     5476     TIP3     H2       HT       0.417000       1.00800           0
     45065 TIP3     5477     TIP3     OH2      OT      -0.834000       15.9994           0
     45066 TIP3     5477     TIP3     H1       HT       0.417000       1.00800           0
     45067 TIP3     5477     TIP3     H2       HT       0.417000       1.00800           0
     45068 TIP3     5478     TIP3     OH2      OT      -0.834000       15.9994           0
     45069 TIP3     5478     TIP3     H1       HT       0.417000       1.00800           0
     45070 TIP3     5478     TIP3     H2       HT       0.417000       1.00800           0
     45071 TIP3     5479     TIP3     OH2      OT      -0.834000       15.9994           0
     45072 TIP3     5479     TIP3     H1       HT       0.417000       1.00800           0
     45073 TIP3     5479     TIP3     H2       HT       0.417000       1.00800           0
     45074 TIP3     5480     TIP3     OH2      OT      -0.834000       15.9994           0
     45075 TIP3     5480     TIP3     H1       HT       0.417000       1.00800           0
     45076 TIP3     5480     TIP3     H2       HT       0.417000       1.00800           0
     45077 TIP3     5481     TIP3     OH2      OT      -0.834000       15.9994           0
     45078 TIP3     5481     TIP3     H1       HT       0.417000       1.00800           0
     45079 TIP3     5481     TIP3     H2       HT       0.417000       1.00800           0
     45080 TIP3     5482     TIP3     OH2      OT      -0.834000       15.9994           0
     45081 TIP3     5482     TIP3     H1       HT       0.417000       1.00800           0
     45082 TIP3     5482     TIP3     H2       HT       0.417000       1.00800           0
     45083 TIP3     5483     TIP3     OH2      OT      -0.834000       15.9994           0
     45084 TIP3     5483     TIP3     H1       HT       0.417000       1.00800           0
     45085 TIP3     5483     TIP3     H2       HT       0.417000       1.00800           0
     45086 TIP3     5484     TIP3     OH2      OT      -0.834000       15.9994           0
     45087 TIP3     5484     TIP3     H1       HT       0.417000       1.00800           0
     45088 TIP3     5484     TIP3     H2       HT       0.417000       1.00800           0
     45089 TIP3     5485     TIP3     OH2      OT      -0.834000       15.9994           0
     45090 TIP3     5485     TIP3     H1       HT       0.417000       1.00800           0
     45091 TIP3     5485     TIP3     H2       HT       0.417000       1.00800           0
     45092 TIP3     5486     TIP3     OH2      OT      -0.834000       15.9994           0
     45093 TIP3     5486     TIP3     H1       HT       0.417000       1.00800           0
     45094 TIP3     5486     TIP3     H2       HT       0.417000       1.00800           0
     45095 TIP3     5487     TIP3     OH2      OT      -0.834000       15.9994           0
     45096 TIP3     5487     TIP3     H1       HT       0.417000       1.00800           0
     45097 TIP3     5487     TIP3     H2       HT       0.417000       1.00800           0
     45098 TIP3     5488     TIP3     OH2      OT      -0.834000       15.9994           0
     45099 TIP3     5488     TIP3     H1       HT       0.417000       1.00800           0
     45100 TIP3     5488     TIP3     H2       HT       0.417000       1.00800           0
     45101 TIP3     5489     TIP3     OH2      OT      -0.834000       15.9994           0
     45102 TIP3     5489     TIP3     H1       HT       0.417000       1.00800           0
     45103 TIP3     5489     TIP3     H2       HT       0.417000       1.00800           0
     45104 TIP3     5490     TIP3     OH2      OT      -0.834000       15.9994           0
     45105 TIP3     5490     TIP3     H1       HT       0.417000       1.00800           0
     45106 TIP3     5490     TIP3     H2       HT       0.417000       1.00800           0
     45107 TIP3     5491     TIP3     OH2      OT      -0.834000       15.9994           0
     45108 TIP3     5491     TIP3     H1       HT       0.417000       1.00800           0
     45109 TIP3     5491     TIP3     H2       HT       0.417000       1.00800           0
     45110 TIP3     5492     TIP3     OH2      OT      -0.834000       15.9994           0
     45111 TIP3     5492     TIP3     H1       HT       0.417000       1.00800           0
     45112 TIP3     5492     TIP3     H2       HT       0.417000       1.00800           0
     45113 TIP3     5493     TIP3     OH2      OT      -0.834000       15.9994           0
     45114 TIP3     5493     TIP3     H1       HT       0.417000       1.00800           0
     45115 TIP3     5493     TIP3     H2       HT       0.417000       1.00800           0
     45116 TIP3     5494     TIP3     OH2      OT      -0.834000       15.9994           0
     45117 TIP3     5494     TIP3     H1       HT       0.417000       1.00800           0
     45118 TIP3     5494     TIP3     H2       HT       0.417000       1.00800           0
     45119 TIP3     5495     TIP3     OH2      OT      -0.834000       15.9994           0
     45120 TIP3     5495     TIP3     H1       HT       0.417000       1.00800           0
     45121 TIP3     5495     TIP3     H2       HT       0.417000       1.00800           0
     45122 TIP3     5496     TIP3     OH2      OT      -0.834000       15.9994           0
     45123 TIP3     5496     TIP3     H1       HT       0.417000       1.00800           0
     45124 TIP3     5496     TIP3     H2       HT       0.417000       1.00800           0
     45125 TIP3     5497     TIP3     OH2      OT      -0.834000       15.9994           0
     45126 TIP3     5497     TIP3     H1       HT       0.417000       1.00800           0
     45127 TIP3     5497     TIP3     H2       HT       0.417000       1.00800           0
     45128 TIP3     5498     TIP3     OH2      OT      -0.834000       15.9994           0
     45129 TIP3     5498     TIP3     H1       HT       0.417000       1.00800           0
     45130 TIP3     5498     TIP3     H2       HT       0.417000       1.00800           0
     45131 TIP3     5499     TIP3     OH2      OT      -0.834000       15.9994           0
     45132 TIP3     5499     TIP3     H1       HT       0.417000       1.00800           0
     45133 TIP3     5499     TIP3     H2       HT       0.417000       1.00800           0
     45134 TIP3     5500     TIP3     OH2      OT      -0.834000       15.9994           0
     45135 TIP3     5500     TIP3     H1       HT       0.417000       1.00800           0
     45136 TIP3     5500     TIP3     H2       HT       0.417000       1.00800           0
     45137 TIP3     5501     TIP3     OH2      OT      -0.834000       15.9994           0
     45138 TIP3     5501     TIP3     H1       HT       0.417000       1.00800           0
     45139 TIP3     5501     TIP3     H2       HT       0.417000       1.00800           0
     45140 TIP3     5502     TIP3     OH2      OT      -0.834000       15.9994           0
     45141 TIP3     5502     TIP3     H1       HT       0.417000       1.00800           0
     45142 TIP3     5502     TIP3     H2       HT       0.417000       1.00800           0
     45143 TIP3     5503     TIP3     OH2      OT      -0.834000       15.9994           0
     45144 TIP3     5503     TIP3     H1       HT       0.417000       1.00800           0
     45145 TIP3     5503     TIP3     H2       HT       0.417000       1.00800           0
     45146 TIP3     5504     TIP3     OH2      OT      -0.834000       15.9994           0
     45147 TIP3     5504     TIP3     H1       HT       0.417000       1.00800           0
     45148 TIP3     5504     TIP3     H2       HT       0.417000       1.00800           0
     45149 TIP3     5505     TIP3     OH2      OT      -0.834000       15.9994           0
     45150 TIP3     5505     TIP3     H1       HT       0.417000       1.00800           0
     45151 TIP3     5505     TIP3     H2       HT       0.417000       1.00800           0
     45152 TIP3     5506     TIP3     OH2      OT      -0.834000       15.9994           0
     45153 TIP3     5506     TIP3     H1       HT       0.417000       1.00800           0
     45154 TIP3     5506     TIP3     H2       HT       0.417000       1.00800           0
     45155 TIP3     5507     TIP3     OH2      OT      -0.834000       15.9994           0
     45156 TIP3     5507     TIP3     H1       HT       0.417000       1.00800           0
     45157 TIP3     5507     TIP3     H2       HT       0.417000       1.00800           0
     45158 TIP3     5508     TIP3     OH2      OT      -0.834000       15.9994           0
     45159 TIP3     5508     TIP3     H1       HT       0.417000       1.00800           0
     45160 TIP3     5508     TIP3     H2       HT       0.417000       1.00800           0
     45161 TIP3     5509     TIP3     OH2      OT      -0.834000       15.9994           0
     45162 TIP3     5509     TIP3     H1       HT       0.417000       1.00800           0
     45163 TIP3     5509     TIP3     H2       HT       0.417000       1.00800           0
     45164 TIP3     5510     TIP3     OH2      OT      -0.834000       15.9994           0
     45165 TIP3     5510     TIP3     H1       HT       0.417000       1.00800           0
     45166 TIP3     5510     TIP3     H2       HT       0.417000       1.00800           0
     45167 TIP3     5511     TIP3     OH2      OT      -0.834000       15.9994           0
     45168 TIP3     5511     TIP3     H1       HT       0.417000       1.00800           0
     45169 TIP3     5511     TIP3     H2       HT       0.417000       1.00800           0
     45170 TIP3     5512     TIP3     OH2      OT      -0.834000       15.9994           0
     45171 TIP3     5512     TIP3     H1       HT       0.417000       1.00800           0
     45172 TIP3     5512     TIP3     H2       HT       0.417000       1.00800           0
     45173 TIP3     5513     TIP3     OH2      OT      -0.834000       15.9994           0
     45174 TIP3     5513     TIP3     H1       HT       0.417000       1.00800           0
     45175 TIP3     5513     TIP3     H2       HT       0.417000       1.00800           0
     45176 TIP3     5514     TIP3     OH2      OT      -0.834000       15.9994           0
     45177 TIP3     5514     TIP3     H1       HT       0.417000       1.00800           0
     45178 TIP3     5514     TIP3     H2       HT       0.417000       1.00800           0
     45179 TIP3     5515     TIP3     OH2      OT      -0.834000       15.9994           0
     45180 TIP3     5515     TIP3     H1       HT       0.417000       1.00800           0
     45181 TIP3     5515     TIP3     H2       HT       0.417000       1.00800           0
     45182 TIP3     5516     TIP3     OH2      OT      -0.834000       15.9994           0
     45183 TIP3     5516     TIP3     H1       HT       0.417000       1.00800           0
     45184 TIP3     5516     TIP3     H2       HT       0.417000       1.00800           0
     45185 TIP3     5517     TIP3     OH2      OT      -0.834000       15.9994           0
     45186 TIP3     5517     TIP3     H1       HT       0.417000       1.00800           0
     45187 TIP3     5517     TIP3     H2       HT       0.417000       1.00800           0
     45188 TIP3     5518     TIP3     OH2      OT      -0.834000       15.9994           0
     45189 TIP3     5518     TIP3     H1       HT       0.417000       1.00800           0
     45190 TIP3     5518     TIP3     H2       HT       0.417000       1.00800           0
     45191 TIP3     5519     TIP3     OH2      OT      -0.834000       15.9994           0
     45192 TIP3     5519     TIP3     H1       HT       0.417000       1.00800           0
     45193 TIP3     5519     TIP3     H2       HT       0.417000       1.00800           0
     45194 TIP3     5520     TIP3     OH2      OT      -0.834000       15.9994           0
     45195 TIP3     5520     TIP3     H1       HT       0.417000       1.00800           0
     45196 TIP3     5520     TIP3     H2       HT       0.417000       1.00800           0
     45197 TIP3     5521     TIP3     OH2      OT      -0.834000       15.9994           0
     45198 TIP3     5521     TIP3     H1       HT       0.417000       1.00800           0
     45199 TIP3     5521     TIP3     H2       HT       0.417000       1.00800           0
     45200 TIP3     5522     TIP3     OH2      OT      -0.834000       15.9994           0
     45201 TIP3     5522     TIP3     H1       HT       0.417000       1.00800           0
     45202 TIP3     5522     TIP3     H2       HT       0.417000       1.00800           0
     45203 TIP3     5523     TIP3     OH2      OT      -0.834000       15.9994           0
     45204 TIP3     5523     TIP3     H1       HT       0.417000       1.00800           0
     45205 TIP3     5523     TIP3     H2       HT       0.417000       1.00800           0
     45206 TIP3     5524     TIP3     OH2      OT      -0.834000       15.9994           0
     45207 TIP3     5524     TIP3     H1       HT       0.417000       1.00800           0
     45208 TIP3     5524     TIP3     H2       HT       0.417000       1.00800           0
     45209 TIP3     5525     TIP3     OH2      OT      -0.834000       15.9994           0
     45210 TIP3     5525     TIP3     H1       HT       0.417000       1.00800           0
     45211 TIP3     5525     TIP3     H2       HT       0.417000       1.00800           0
     45212 TIP3     5526     TIP3     OH2      OT      -0.834000       15.9994           0
     45213 TIP3     5526     TIP3     H1       HT       0.417000       1.00800           0
     45214 TIP3     5526     TIP3     H2       HT       0.417000       1.00800           0
     45215 TIP3     5527     TIP3     OH2      OT      -0.834000       15.9994           0
     45216 TIP3     5527     TIP3     H1       HT       0.417000       1.00800           0
     45217 TIP3     5527     TIP3     H2       HT       0.417000       1.00800           0
     45218 TIP3     5528     TIP3     OH2      OT      -0.834000       15.9994           0
     45219 TIP3     5528     TIP3     H1       HT       0.417000       1.00800           0
     45220 TIP3     5528     TIP3     H2       HT       0.417000       1.00800           0
     45221 TIP3     5529     TIP3     OH2      OT      -0.834000       15.9994           0
     45222 TIP3     5529     TIP3     H1       HT       0.417000       1.00800           0
     45223 TIP3     5529     TIP3     H2       HT       0.417000       1.00800           0
     45224 TIP3     5530     TIP3     OH2      OT      -0.834000       15.9994           0
     45225 TIP3     5530     TIP3     H1       HT       0.417000       1.00800           0
     45226 TIP3     5530     TIP3     H2       HT       0.417000       1.00800           0
     45227 TIP3     5531     TIP3     OH2      OT      -0.834000       15.9994           0
     45228 TIP3     5531     TIP3     H1       HT       0.417000       1.00800           0
     45229 TIP3     5531     TIP3     H2       HT       0.417000       1.00800           0
     45230 TIP3     5532     TIP3     OH2      OT      -0.834000       15.9994           0
     45231 TIP3     5532     TIP3     H1       HT       0.417000       1.00800           0
     45232 TIP3     5532     TIP3     H2       HT       0.417000       1.00800           0
     45233 TIP3     5533     TIP3     OH2      OT      -0.834000       15.9994           0
     45234 TIP3     5533     TIP3     H1       HT       0.417000       1.00800           0
     45235 TIP3     5533     TIP3     H2       HT       0.417000       1.00800           0
     45236 TIP3     5534     TIP3     OH2      OT      -0.834000       15.9994           0
     45237 TIP3     5534     TIP3     H1       HT       0.417000       1.00800           0
     45238 TIP3     5534     TIP3     H2       HT       0.417000       1.00800           0
     45239 TIP3     5535     TIP3     OH2      OT      -0.834000       15.9994           0
     45240 TIP3     5535     TIP3     H1       HT       0.417000       1.00800           0
     45241 TIP3     5535     TIP3     H2       HT       0.417000       1.00800           0
     45242 TIP3     5536     TIP3     OH2      OT      -0.834000       15.9994           0
     45243 TIP3     5536     TIP3     H1       HT       0.417000       1.00800           0
     45244 TIP3     5536     TIP3     H2       HT       0.417000       1.00800           0
     45245 TIP3     5537     TIP3     OH2      OT      -0.834000       15.9994           0
     45246 TIP3     5537     TIP3     H1       HT       0.417000       1.00800           0
     45247 TIP3     5537     TIP3     H2       HT       0.417000       1.00800           0
     45248 TIP3     5538     TIP3     OH2      OT      -0.834000       15.9994           0
     45249 TIP3     5538     TIP3     H1       HT       0.417000       1.00800           0
     45250 TIP3     5538     TIP3     H2       HT       0.417000       1.00800           0
     45251 TIP3     5539     TIP3     OH2      OT      -0.834000       15.9994           0
     45252 TIP3     5539     TIP3     H1       HT       0.417000       1.00800           0
     45253 TIP3     5539     TIP3     H2       HT       0.417000       1.00800           0
     45254 TIP3     5540     TIP3     OH2      OT      -0.834000       15.9994           0
     45255 TIP3     5540     TIP3     H1       HT       0.417000       1.00800           0
     45256 TIP3     5540     TIP3     H2       HT       0.417000       1.00800           0
     45257 TIP3     5541     TIP3     OH2      OT      -0.834000       15.9994           0
     45258 TIP3     5541     TIP3     H1       HT       0.417000       1.00800           0
     45259 TIP3     5541     TIP3     H2       HT       0.417000       1.00800           0
     45260 TIP3     5542     TIP3     OH2      OT      -0.834000       15.9994           0
     45261 TIP3     5542     TIP3     H1       HT       0.417000       1.00800           0
     45262 TIP3     5542     TIP3     H2       HT       0.417000       1.00800           0
     45263 TIP3     5543     TIP3     OH2      OT      -0.834000       15.9994           0
     45264 TIP3     5543     TIP3     H1       HT       0.417000       1.00800           0
     45265 TIP3     5543     TIP3     H2       HT       0.417000       1.00800           0
     45266 TIP3     5544     TIP3     OH2      OT      -0.834000       15.9994           0
     45267 TIP3     5544     TIP3     H1       HT       0.417000       1.00800           0
     45268 TIP3     5544     TIP3     H2       HT       0.417000       1.00800           0
     45269 TIP3     5545     TIP3     OH2      OT      -0.834000       15.9994           0
     45270 TIP3     5545     TIP3     H1       HT       0.417000       1.00800           0
     45271 TIP3     5545     TIP3     H2       HT       0.417000       1.00800           0
     45272 TIP3     5546     TIP3     OH2      OT      -0.834000       15.9994           0
     45273 TIP3     5546     TIP3     H1       HT       0.417000       1.00800           0
     45274 TIP3     5546     TIP3     H2       HT       0.417000       1.00800           0
     45275 TIP3     5547     TIP3     OH2      OT      -0.834000       15.9994           0
     45276 TIP3     5547     TIP3     H1       HT       0.417000       1.00800           0
     45277 TIP3     5547     TIP3     H2       HT       0.417000       1.00800           0
     45278 TIP3     5548     TIP3     OH2      OT      -0.834000       15.9994           0
     45279 TIP3     5548     TIP3     H1       HT       0.417000       1.00800           0
     45280 TIP3     5548     TIP3     H2       HT       0.417000       1.00800           0
     45281 TIP3     5549     TIP3     OH2      OT      -0.834000       15.9994           0
     45282 TIP3     5549     TIP3     H1       HT       0.417000       1.00800           0
     45283 TIP3     5549     TIP3     H2       HT       0.417000       1.00800           0
     45284 TIP3     5550     TIP3     OH2      OT      -0.834000       15.9994           0
     45285 TIP3     5550     TIP3     H1       HT       0.417000       1.00800           0
     45286 TIP3     5550     TIP3     H2       HT       0.417000       1.00800           0
     45287 TIP3     5551     TIP3     OH2      OT      -0.834000       15.9994           0
     45288 TIP3     5551     TIP3     H1       HT       0.417000       1.00800           0
     45289 TIP3     5551     TIP3     H2       HT       0.417000       1.00800           0
     45290 TIP3     5552     TIP3     OH2      OT      -0.834000       15.9994           0
     45291 TIP3     5552     TIP3     H1       HT       0.417000       1.00800           0
     45292 TIP3     5552     TIP3     H2       HT       0.417000       1.00800           0
     45293 TIP3     5553     TIP3     OH2      OT      -0.834000       15.9994           0
     45294 TIP3     5553     TIP3     H1       HT       0.417000       1.00800           0
     45295 TIP3     5553     TIP3     H2       HT       0.417000       1.00800           0
     45296 TIP3     5554     TIP3     OH2      OT      -0.834000       15.9994           0
     45297 TIP3     5554     TIP3     H1       HT       0.417000       1.00800           0
     45298 TIP3     5554     TIP3     H2       HT       0.417000       1.00800           0
     45299 TIP3     5555     TIP3     OH2      OT      -0.834000       15.9994           0
     45300 TIP3     5555     TIP3     H1       HT       0.417000       1.00800           0
     45301 TIP3     5555     TIP3     H2       HT       0.417000       1.00800           0
     45302 TIP3     5556     TIP3     OH2      OT      -0.834000       15.9994           0
     45303 TIP3     5556     TIP3     H1       HT       0.417000       1.00800           0
     45304 TIP3     5556     TIP3     H2       HT       0.417000       1.00800           0
     45305 TIP3     5557     TIP3     OH2      OT      -0.834000       15.9994           0
     45306 TIP3     5557     TIP3     H1       HT       0.417000       1.00800           0
     45307 TIP3     5557     TIP3     H2       HT       0.417000       1.00800           0
     45308 TIP3     5558     TIP3     OH2      OT      -0.834000       15.9994           0
     45309 TIP3     5558     TIP3     H1       HT       0.417000       1.00800           0
     45310 TIP3     5558     TIP3     H2       HT       0.417000       1.00800           0
     45311 TIP3     5559     TIP3     OH2      OT      -0.834000       15.9994           0
     45312 TIP3     5559     TIP3     H1       HT       0.417000       1.00800           0
     45313 TIP3     5559     TIP3     H2       HT       0.417000       1.00800           0
     45314 TIP3     5560     TIP3     OH2      OT      -0.834000       15.9994           0
     45315 TIP3     5560     TIP3     H1       HT       0.417000       1.00800           0
     45316 TIP3     5560     TIP3     H2       HT       0.417000       1.00800           0
     45317 TIP3     5561     TIP3     OH2      OT      -0.834000       15.9994           0
     45318 TIP3     5561     TIP3     H1       HT       0.417000       1.00800           0
     45319 TIP3     5561     TIP3     H2       HT       0.417000       1.00800           0
     45320 TIP3     5562     TIP3     OH2      OT      -0.834000       15.9994           0
     45321 TIP3     5562     TIP3     H1       HT       0.417000       1.00800           0
     45322 TIP3     5562     TIP3     H2       HT       0.417000       1.00800           0
     45323 TIP3     5563     TIP3     OH2      OT      -0.834000       15.9994           0
     45324 TIP3     5563     TIP3     H1       HT       0.417000       1.00800           0
     45325 TIP3     5563     TIP3     H2       HT       0.417000       1.00800           0
     45326 TIP3     5564     TIP3     OH2      OT      -0.834000       15.9994           0
     45327 TIP3     5564     TIP3     H1       HT       0.417000       1.00800           0
     45328 TIP3     5564     TIP3     H2       HT       0.417000       1.00800           0
     45329 TIP3     5565     TIP3     OH2      OT      -0.834000       15.9994           0
     45330 TIP3     5565     TIP3     H1       HT       0.417000       1.00800           0
     45331 TIP3     5565     TIP3     H2       HT       0.417000       1.00800           0
     45332 TIP3     5566     TIP3     OH2      OT      -0.834000       15.9994           0
     45333 TIP3     5566     TIP3     H1       HT       0.417000       1.00800           0
     45334 TIP3     5566     TIP3     H2       HT       0.417000       1.00800           0
     45335 TIP3     5567     TIP3     OH2      OT      -0.834000       15.9994           0
     45336 TIP3     5567     TIP3     H1       HT       0.417000       1.00800           0
     45337 TIP3     5567     TIP3     H2       HT       0.417000       1.00800           0
     45338 TIP3     5568     TIP3     OH2      OT      -0.834000       15.9994           0
     45339 TIP3     5568     TIP3     H1       HT       0.417000       1.00800           0
     45340 TIP3     5568     TIP3     H2       HT       0.417000       1.00800           0
     45341 TIP3     5569     TIP3     OH2      OT      -0.834000       15.9994           0
     45342 TIP3     5569     TIP3     H1       HT       0.417000       1.00800           0
     45343 TIP3     5569     TIP3     H2       HT       0.417000       1.00800           0
     45344 TIP3     5570     TIP3     OH2      OT      -0.834000       15.9994           0
     45345 TIP3     5570     TIP3     H1       HT       0.417000       1.00800           0
     45346 TIP3     5570     TIP3     H2       HT       0.417000       1.00800           0
     45347 TIP3     5571     TIP3     OH2      OT      -0.834000       15.9994           0
     45348 TIP3     5571     TIP3     H1       HT       0.417000       1.00800           0
     45349 TIP3     5571     TIP3     H2       HT       0.417000       1.00800           0
     45350 TIP3     5572     TIP3     OH2      OT      -0.834000       15.9994           0
     45351 TIP3     5572     TIP3     H1       HT       0.417000       1.00800           0
     45352 TIP3     5572     TIP3     H2       HT       0.417000       1.00800           0
     45353 TIP3     5573     TIP3     OH2      OT      -0.834000       15.9994           0
     45354 TIP3     5573     TIP3     H1       HT       0.417000       1.00800           0
     45355 TIP3     5573     TIP3     H2       HT       0.417000       1.00800           0
     45356 TIP3     5574     TIP3     OH2      OT      -0.834000       15.9994           0
     45357 TIP3     5574     TIP3     H1       HT       0.417000       1.00800           0
     45358 TIP3     5574     TIP3     H2       HT       0.417000       1.00800           0
     45359 TIP3     5575     TIP3     OH2      OT      -0.834000       15.9994           0
     45360 TIP3     5575     TIP3     H1       HT       0.417000       1.00800           0
     45361 TIP3     5575     TIP3     H2       HT       0.417000       1.00800           0
     45362 TIP3     5576     TIP3     OH2      OT      -0.834000       15.9994           0
     45363 TIP3     5576     TIP3     H1       HT       0.417000       1.00800           0
     45364 TIP3     5576     TIP3     H2       HT       0.417000       1.00800           0
     45365 TIP3     5577     TIP3     OH2      OT      -0.834000       15.9994           0
     45366 TIP3     5577     TIP3     H1       HT       0.417000       1.00800           0
     45367 TIP3     5577     TIP3     H2       HT       0.417000       1.00800           0
     45368 TIP3     5578     TIP3     OH2      OT      -0.834000       15.9994           0
     45369 TIP3     5578     TIP3     H1       HT       0.417000       1.00800           0
     45370 TIP3     5578     TIP3     H2       HT       0.417000       1.00800           0
     45371 TIP3     5579     TIP3     OH2      OT      -0.834000       15.9994           0
     45372 TIP3     5579     TIP3     H1       HT       0.417000       1.00800           0
     45373 TIP3     5579     TIP3     H2       HT       0.417000       1.00800           0
     45374 TIP3     5580     TIP3     OH2      OT      -0.834000       15.9994           0
     45375 TIP3     5580     TIP3     H1       HT       0.417000       1.00800           0
     45376 TIP3     5580     TIP3     H2       HT       0.417000       1.00800           0
     45377 TIP3     5581     TIP3     OH2      OT      -0.834000       15.9994           0
     45378 TIP3     5581     TIP3     H1       HT       0.417000       1.00800           0
     45379 TIP3     5581     TIP3     H2       HT       0.417000       1.00800           0
     45380 TIP3     5582     TIP3     OH2      OT      -0.834000       15.9994           0
     45381 TIP3     5582     TIP3     H1       HT       0.417000       1.00800           0
     45382 TIP3     5582     TIP3     H2       HT       0.417000       1.00800           0
     45383 TIP3     5583     TIP3     OH2      OT      -0.834000       15.9994           0
     45384 TIP3     5583     TIP3     H1       HT       0.417000       1.00800           0
     45385 TIP3     5583     TIP3     H2       HT       0.417000       1.00800           0
     45386 TIP3     5584     TIP3     OH2      OT      -0.834000       15.9994           0
     45387 TIP3     5584     TIP3     H1       HT       0.417000       1.00800           0
     45388 TIP3     5584     TIP3     H2       HT       0.417000       1.00800           0
     45389 TIP3     5585     TIP3     OH2      OT      -0.834000       15.9994           0
     45390 TIP3     5585     TIP3     H1       HT       0.417000       1.00800           0
     45391 TIP3     5585     TIP3     H2       HT       0.417000       1.00800           0
     45392 TIP3     5586     TIP3     OH2      OT      -0.834000       15.9994           0
     45393 TIP3     5586     TIP3     H1       HT       0.417000       1.00800           0
     45394 TIP3     5586     TIP3     H2       HT       0.417000       1.00800           0
     45395 TIP3     5587     TIP3     OH2      OT      -0.834000       15.9994           0
     45396 TIP3     5587     TIP3     H1       HT       0.417000       1.00800           0
     45397 TIP3     5587     TIP3     H2       HT       0.417000       1.00800           0
     45398 TIP3     5588     TIP3     OH2      OT      -0.834000       15.9994           0
     45399 TIP3     5588     TIP3     H1       HT       0.417000       1.00800           0
     45400 TIP3     5588     TIP3     H2       HT       0.417000       1.00800           0
     45401 TIP3     5589     TIP3     OH2      OT      -0.834000       15.9994           0
     45402 TIP3     5589     TIP3     H1       HT       0.417000       1.00800           0
     45403 TIP3     5589     TIP3     H2       HT       0.417000       1.00800           0
     45404 TIP3     5590     TIP3     OH2      OT      -0.834000       15.9994           0
     45405 TIP3     5590     TIP3     H1       HT       0.417000       1.00800           0
     45406 TIP3     5590     TIP3     H2       HT       0.417000       1.00800           0
     45407 TIP3     5591     TIP3     OH2      OT      -0.834000       15.9994           0
     45408 TIP3     5591     TIP3     H1       HT       0.417000       1.00800           0
     45409 TIP3     5591     TIP3     H2       HT       0.417000       1.00800           0
     45410 TIP3     5592     TIP3     OH2      OT      -0.834000       15.9994           0
     45411 TIP3     5592     TIP3     H1       HT       0.417000       1.00800           0
     45412 TIP3     5592     TIP3     H2       HT       0.417000       1.00800           0
     45413 TIP3     5593     TIP3     OH2      OT      -0.834000       15.9994           0
     45414 TIP3     5593     TIP3     H1       HT       0.417000       1.00800           0
     45415 TIP3     5593     TIP3     H2       HT       0.417000       1.00800           0
     45416 TIP3     5594     TIP3     OH2      OT      -0.834000       15.9994           0
     45417 TIP3     5594     TIP3     H1       HT       0.417000       1.00800           0
     45418 TIP3     5594     TIP3     H2       HT       0.417000       1.00800           0
     45419 TIP3     5595     TIP3     OH2      OT      -0.834000       15.9994           0
     45420 TIP3     5595     TIP3     H1       HT       0.417000       1.00800           0
     45421 TIP3     5595     TIP3     H2       HT       0.417000       1.00800           0
     45422 TIP3     5596     TIP3     OH2      OT      -0.834000       15.9994           0
     45423 TIP3     5596     TIP3     H1       HT       0.417000       1.00800           0
     45424 TIP3     5596     TIP3     H2       HT       0.417000       1.00800           0
     45425 TIP3     5597     TIP3     OH2      OT      -0.834000       15.9994           0
     45426 TIP3     5597     TIP3     H1       HT       0.417000       1.00800           0
     45427 TIP3     5597     TIP3     H2       HT       0.417000       1.00800           0
     45428 TIP3     5598     TIP3     OH2      OT      -0.834000       15.9994           0
     45429 TIP3     5598     TIP3     H1       HT       0.417000       1.00800           0
     45430 TIP3     5598     TIP3     H2       HT       0.417000       1.00800           0
     45431 TIP3     5599     TIP3     OH2      OT      -0.834000       15.9994           0
     45432 TIP3     5599     TIP3     H1       HT       0.417000       1.00800           0
     45433 TIP3     5599     TIP3     H2       HT       0.417000       1.00800           0
     45434 TIP3     5600     TIP3     OH2      OT      -0.834000       15.9994           0
     45435 TIP3     5600     TIP3     H1       HT       0.417000       1.00800           0
     45436 TIP3     5600     TIP3     H2       HT       0.417000       1.00800           0
     45437 TIP3     5601     TIP3     OH2      OT      -0.834000       15.9994           0
     45438 TIP3     5601     TIP3     H1       HT       0.417000       1.00800           0
     45439 TIP3     5601     TIP3     H2       HT       0.417000       1.00800           0
     45440 TIP3     5602     TIP3     OH2      OT      -0.834000       15.9994           0
     45441 TIP3     5602     TIP3     H1       HT       0.417000       1.00800           0
     45442 TIP3     5602     TIP3     H2       HT       0.417000       1.00800           0
     45443 TIP3     5603     TIP3     OH2      OT      -0.834000       15.9994           0
     45444 TIP3     5603     TIP3     H1       HT       0.417000       1.00800           0
     45445 TIP3     5603     TIP3     H2       HT       0.417000       1.00800           0
     45446 TIP3     5604     TIP3     OH2      OT      -0.834000       15.9994           0
     45447 TIP3     5604     TIP3     H1       HT       0.417000       1.00800           0
     45448 TIP3     5604     TIP3     H2       HT       0.417000       1.00800           0
     45449 TIP3     5605     TIP3     OH2      OT      -0.834000       15.9994           0
     45450 TIP3     5605     TIP3     H1       HT       0.417000       1.00800           0
     45451 TIP3     5605     TIP3     H2       HT       0.417000       1.00800           0
     45452 TIP3     5606     TIP3     OH2      OT      -0.834000       15.9994           0
     45453 TIP3     5606     TIP3     H1       HT       0.417000       1.00800           0
     45454 TIP3     5606     TIP3     H2       HT       0.417000       1.00800           0
     45455 TIP3     5607     TIP3     OH2      OT      -0.834000       15.9994           0
     45456 TIP3     5607     TIP3     H1       HT       0.417000       1.00800           0
     45457 TIP3     5607     TIP3     H2       HT       0.417000       1.00800           0
     45458 TIP3     5608     TIP3     OH2      OT      -0.834000       15.9994           0
     45459 TIP3     5608     TIP3     H1       HT       0.417000       1.00800           0
     45460 TIP3     5608     TIP3     H2       HT       0.417000       1.00800           0
     45461 TIP3     5609     TIP3     OH2      OT      -0.834000       15.9994           0
     45462 TIP3     5609     TIP3     H1       HT       0.417000       1.00800           0
     45463 TIP3     5609     TIP3     H2       HT       0.417000       1.00800           0
     45464 TIP3     5610     TIP3     OH2      OT      -0.834000       15.9994           0
     45465 TIP3     5610     TIP3     H1       HT       0.417000       1.00800           0
     45466 TIP3     5610     TIP3     H2       HT       0.417000       1.00800           0
     45467 TIP3     5611     TIP3     OH2      OT      -0.834000       15.9994           0
     45468 TIP3     5611     TIP3     H1       HT       0.417000       1.00800           0
     45469 TIP3     5611     TIP3     H2       HT       0.417000       1.00800           0
     45470 TIP3     5612     TIP3     OH2      OT      -0.834000       15.9994           0
     45471 TIP3     5612     TIP3     H1       HT       0.417000       1.00800           0
     45472 TIP3     5612     TIP3     H2       HT       0.417000       1.00800           0
     45473 TIP3     5613     TIP3     OH2      OT      -0.834000       15.9994           0
     45474 TIP3     5613     TIP3     H1       HT       0.417000       1.00800           0
     45475 TIP3     5613     TIP3     H2       HT       0.417000       1.00800           0
     45476 TIP3     5614     TIP3     OH2      OT      -0.834000       15.9994           0
     45477 TIP3     5614     TIP3     H1       HT       0.417000       1.00800           0
     45478 TIP3     5614     TIP3     H2       HT       0.417000       1.00800           0
     45479 TIP3     5615     TIP3     OH2      OT      -0.834000       15.9994           0
     45480 TIP3     5615     TIP3     H1       HT       0.417000       1.00800           0
     45481 TIP3     5615     TIP3     H2       HT       0.417000       1.00800           0
     45482 TIP3     5616     TIP3     OH2      OT      -0.834000       15.9994           0
     45483 TIP3     5616     TIP3     H1       HT       0.417000       1.00800           0
     45484 TIP3     5616     TIP3     H2       HT       0.417000       1.00800           0
     45485 TIP3     5617     TIP3     OH2      OT      -0.834000       15.9994           0
     45486 TIP3     5617     TIP3     H1       HT       0.417000       1.00800           0
     45487 TIP3     5617     TIP3     H2       HT       0.417000       1.00800           0
     45488 TIP3     5618     TIP3     OH2      OT      -0.834000       15.9994           0
     45489 TIP3     5618     TIP3     H1       HT       0.417000       1.00800           0
     45490 TIP3     5618     TIP3     H2       HT       0.417000       1.00800           0
     45491 TIP3     5619     TIP3     OH2      OT      -0.834000       15.9994           0
     45492 TIP3     5619     TIP3     H1       HT       0.417000       1.00800           0
     45493 TIP3     5619     TIP3     H2       HT       0.417000       1.00800           0
     45494 TIP3     5620     TIP3     OH2      OT      -0.834000       15.9994           0
     45495 TIP3     5620     TIP3     H1       HT       0.417000       1.00800           0
     45496 TIP3     5620     TIP3     H2       HT       0.417000       1.00800           0
     45497 TIP3     5621     TIP3     OH2      OT      -0.834000       15.9994           0
     45498 TIP3     5621     TIP3     H1       HT       0.417000       1.00800           0
     45499 TIP3     5621     TIP3     H2       HT       0.417000       1.00800           0
     45500 TIP3     5622     TIP3     OH2      OT      -0.834000       15.9994           0
     45501 TIP3     5622     TIP3     H1       HT       0.417000       1.00800           0
     45502 TIP3     5622     TIP3     H2       HT       0.417000       1.00800           0
     45503 TIP3     5623     TIP3     OH2      OT      -0.834000       15.9994           0
     45504 TIP3     5623     TIP3     H1       HT       0.417000       1.00800           0
     45505 TIP3     5623     TIP3     H2       HT       0.417000       1.00800           0
     45506 TIP3     5624     TIP3     OH2      OT      -0.834000       15.9994           0
     45507 TIP3     5624     TIP3     H1       HT       0.417000       1.00800           0
     45508 TIP3     5624     TIP3     H2       HT       0.417000       1.00800           0
     45509 TIP3     5625     TIP3     OH2      OT      -0.834000       15.9994           0
     45510 TIP3     5625     TIP3     H1       HT       0.417000       1.00800           0
     45511 TIP3     5625     TIP3     H2       HT       0.417000       1.00800           0
     45512 TIP3     5626     TIP3     OH2      OT      -0.834000       15.9994           0
     45513 TIP3     5626     TIP3     H1       HT       0.417000       1.00800           0
     45514 TIP3     5626     TIP3     H2       HT       0.417000       1.00800           0
     45515 TIP3     5627     TIP3     OH2      OT      -0.834000       15.9994           0
     45516 TIP3     5627     TIP3     H1       HT       0.417000       1.00800           0
     45517 TIP3     5627     TIP3     H2       HT       0.417000       1.00800           0
     45518 TIP3     5628     TIP3     OH2      OT      -0.834000       15.9994           0
     45519 TIP3     5628     TIP3     H1       HT       0.417000       1.00800           0
     45520 TIP3     5628     TIP3     H2       HT       0.417000       1.00800           0
     45521 TIP3     5629     TIP3     OH2      OT      -0.834000       15.9994           0
     45522 TIP3     5629     TIP3     H1       HT       0.417000       1.00800           0
     45523 TIP3     5629     TIP3     H2       HT       0.417000       1.00800           0
     45524 TIP3     5630     TIP3     OH2      OT      -0.834000       15.9994           0
     45525 TIP3     5630     TIP3     H1       HT       0.417000       1.00800           0
     45526 TIP3     5630     TIP3     H2       HT       0.417000       1.00800           0
     45527 TIP3     5631     TIP3     OH2      OT      -0.834000       15.9994           0
     45528 TIP3     5631     TIP3     H1       HT       0.417000       1.00800           0
     45529 TIP3     5631     TIP3     H2       HT       0.417000       1.00800           0
     45530 TIP3     5632     TIP3     OH2      OT      -0.834000       15.9994           0
     45531 TIP3     5632     TIP3     H1       HT       0.417000       1.00800           0
     45532 TIP3     5632     TIP3     H2       HT       0.417000       1.00800           0
     45533 TIP3     5633     TIP3     OH2      OT      -0.834000       15.9994           0
     45534 TIP3     5633     TIP3     H1       HT       0.417000       1.00800           0
     45535 TIP3     5633     TIP3     H2       HT       0.417000       1.00800           0
     45536 TIP3     5634     TIP3     OH2      OT      -0.834000       15.9994           0
     45537 TIP3     5634     TIP3     H1       HT       0.417000       1.00800           0
     45538 TIP3     5634     TIP3     H2       HT       0.417000       1.00800           0
     45539 TIP3     5635     TIP3     OH2      OT      -0.834000       15.9994           0
     45540 TIP3     5635     TIP3     H1       HT       0.417000       1.00800           0
     45541 TIP3     5635     TIP3     H2       HT       0.417000       1.00800           0
     45542 TIP3     5636     TIP3     OH2      OT      -0.834000       15.9994           0
     45543 TIP3     5636     TIP3     H1       HT       0.417000       1.00800           0
     45544 TIP3     5636     TIP3     H2       HT       0.417000       1.00800           0
     45545 TIP3     5637     TIP3     OH2      OT      -0.834000       15.9994           0
     45546 TIP3     5637     TIP3     H1       HT       0.417000       1.00800           0
     45547 TIP3     5637     TIP3     H2       HT       0.417000       1.00800           0
     45548 TIP3     5638     TIP3     OH2      OT      -0.834000       15.9994           0
     45549 TIP3     5638     TIP3     H1       HT       0.417000       1.00800           0
     45550 TIP3     5638     TIP3     H2       HT       0.417000       1.00800           0
     45551 TIP3     5639     TIP3     OH2      OT      -0.834000       15.9994           0
     45552 TIP3     5639     TIP3     H1       HT       0.417000       1.00800           0
     45553 TIP3     5639     TIP3     H2       HT       0.417000       1.00800           0
     45554 TIP3     5640     TIP3     OH2      OT      -0.834000       15.9994           0
     45555 TIP3     5640     TIP3     H1       HT       0.417000       1.00800           0
     45556 TIP3     5640     TIP3     H2       HT       0.417000       1.00800           0
     45557 TIP3     5641     TIP3     OH2      OT      -0.834000       15.9994           0
     45558 TIP3     5641     TIP3     H1       HT       0.417000       1.00800           0
     45559 TIP3     5641     TIP3     H2       HT       0.417000       1.00800           0
     45560 TIP3     5642     TIP3     OH2      OT      -0.834000       15.9994           0
     45561 TIP3     5642     TIP3     H1       HT       0.417000       1.00800           0
     45562 TIP3     5642     TIP3     H2       HT       0.417000       1.00800           0
     45563 TIP3     5643     TIP3     OH2      OT      -0.834000       15.9994           0
     45564 TIP3     5643     TIP3     H1       HT       0.417000       1.00800           0
     45565 TIP3     5643     TIP3     H2       HT       0.417000       1.00800           0
     45566 TIP3     5644     TIP3     OH2      OT      -0.834000       15.9994           0
     45567 TIP3     5644     TIP3     H1       HT       0.417000       1.00800           0
     45568 TIP3     5644     TIP3     H2       HT       0.417000       1.00800           0
     45569 TIP3     5645     TIP3     OH2      OT      -0.834000       15.9994           0
     45570 TIP3     5645     TIP3     H1       HT       0.417000       1.00800           0
     45571 TIP3     5645     TIP3     H2       HT       0.417000       1.00800           0
     45572 TIP3     5646     TIP3     OH2      OT      -0.834000       15.9994           0
     45573 TIP3     5646     TIP3     H1       HT       0.417000       1.00800           0
     45574 TIP3     5646     TIP3     H2       HT       0.417000       1.00800           0
     45575 TIP3     5647     TIP3     OH2      OT      -0.834000       15.9994           0
     45576 TIP3     5647     TIP3     H1       HT       0.417000       1.00800           0
     45577 TIP3     5647     TIP3     H2       HT       0.417000       1.00800           0
     45578 TIP3     5648     TIP3     OH2      OT      -0.834000       15.9994           0
     45579 TIP3     5648     TIP3     H1       HT       0.417000       1.00800           0
     45580 TIP3     5648     TIP3     H2       HT       0.417000       1.00800           0
     45581 TIP3     5649     TIP3     OH2      OT      -0.834000       15.9994           0
     45582 TIP3     5649     TIP3     H1       HT       0.417000       1.00800           0
     45583 TIP3     5649     TIP3     H2       HT       0.417000       1.00800           0
     45584 TIP3     5650     TIP3     OH2      OT      -0.834000       15.9994           0
     45585 TIP3     5650     TIP3     H1       HT       0.417000       1.00800           0
     45586 TIP3     5650     TIP3     H2       HT       0.417000       1.00800           0
     45587 TIP3     5651     TIP3     OH2      OT      -0.834000       15.9994           0
     45588 TIP3     5651     TIP3     H1       HT       0.417000       1.00800           0
     45589 TIP3     5651     TIP3     H2       HT       0.417000       1.00800           0
     45590 TIP3     5652     TIP3     OH2      OT      -0.834000       15.9994           0
     45591 TIP3     5652     TIP3     H1       HT       0.417000       1.00800           0
     45592 TIP3     5652     TIP3     H2       HT       0.417000       1.00800           0
     45593 TIP3     5653     TIP3     OH2      OT      -0.834000       15.9994           0
     45594 TIP3     5653     TIP3     H1       HT       0.417000       1.00800           0
     45595 TIP3     5653     TIP3     H2       HT       0.417000       1.00800           0
     45596 TIP3     5654     TIP3     OH2      OT      -0.834000       15.9994           0
     45597 TIP3     5654     TIP3     H1       HT       0.417000       1.00800           0
     45598 TIP3     5654     TIP3     H2       HT       0.417000       1.00800           0
     45599 TIP3     5655     TIP3     OH2      OT      -0.834000       15.9994           0
     45600 TIP3     5655     TIP3     H1       HT       0.417000       1.00800           0
     45601 TIP3     5655     TIP3     H2       HT       0.417000       1.00800           0
     45602 TIP3     5656     TIP3     OH2      OT      -0.834000       15.9994           0
     45603 TIP3     5656     TIP3     H1       HT       0.417000       1.00800           0
     45604 TIP3     5656     TIP3     H2       HT       0.417000       1.00800           0
     45605 TIP3     5657     TIP3     OH2      OT      -0.834000       15.9994           0
     45606 TIP3     5657     TIP3     H1       HT       0.417000       1.00800           0
     45607 TIP3     5657     TIP3     H2       HT       0.417000       1.00800           0
     45608 TIP3     5658     TIP3     OH2      OT      -0.834000       15.9994           0
     45609 TIP3     5658     TIP3     H1       HT       0.417000       1.00800           0
     45610 TIP3     5658     TIP3     H2       HT       0.417000       1.00800           0
     45611 TIP3     5659     TIP3     OH2      OT      -0.834000       15.9994           0
     45612 TIP3     5659     TIP3     H1       HT       0.417000       1.00800           0
     45613 TIP3     5659     TIP3     H2       HT       0.417000       1.00800           0
     45614 TIP3     5660     TIP3     OH2      OT      -0.834000       15.9994           0
     45615 TIP3     5660     TIP3     H1       HT       0.417000       1.00800           0
     45616 TIP3     5660     TIP3     H2       HT       0.417000       1.00800           0
     45617 TIP3     5661     TIP3     OH2      OT      -0.834000       15.9994           0
     45618 TIP3     5661     TIP3     H1       HT       0.417000       1.00800           0
     45619 TIP3     5661     TIP3     H2       HT       0.417000       1.00800           0
     45620 TIP3     5662     TIP3     OH2      OT      -0.834000       15.9994           0
     45621 TIP3     5662     TIP3     H1       HT       0.417000       1.00800           0
     45622 TIP3     5662     TIP3     H2       HT       0.417000       1.00800           0
     45623 TIP3     5663     TIP3     OH2      OT      -0.834000       15.9994           0
     45624 TIP3     5663     TIP3     H1       HT       0.417000       1.00800           0
     45625 TIP3     5663     TIP3     H2       HT       0.417000       1.00800           0
     45626 TIP3     5664     TIP3     OH2      OT      -0.834000       15.9994           0
     45627 TIP3     5664     TIP3     H1       HT       0.417000       1.00800           0
     45628 TIP3     5664     TIP3     H2       HT       0.417000       1.00800           0
     45629 TIP3     5665     TIP3     OH2      OT      -0.834000       15.9994           0
     45630 TIP3     5665     TIP3     H1       HT       0.417000       1.00800           0
     45631 TIP3     5665     TIP3     H2       HT       0.417000       1.00800           0
     45632 TIP3     5666     TIP3     OH2      OT      -0.834000       15.9994           0
     45633 TIP3     5666     TIP3     H1       HT       0.417000       1.00800           0
     45634 TIP3     5666     TIP3     H2       HT       0.417000       1.00800           0
     45635 TIP3     5667     TIP3     OH2      OT      -0.834000       15.9994           0
     45636 TIP3     5667     TIP3     H1       HT       0.417000       1.00800           0
     45637 TIP3     5667     TIP3     H2       HT       0.417000       1.00800           0
     45638 TIP3     5668     TIP3     OH2      OT      -0.834000       15.9994           0
     45639 TIP3     5668     TIP3     H1       HT       0.417000       1.00800           0
     45640 TIP3     5668     TIP3     H2       HT       0.417000       1.00800           0
     45641 TIP3     5669     TIP3     OH2      OT      -0.834000       15.9994           0
     45642 TIP3     5669     TIP3     H1       HT       0.417000       1.00800           0
     45643 TIP3     5669     TIP3     H2       HT       0.417000       1.00800           0
     45644 TIP3     5670     TIP3     OH2      OT      -0.834000       15.9994           0
     45645 TIP3     5670     TIP3     H1       HT       0.417000       1.00800           0
     45646 TIP3     5670     TIP3     H2       HT       0.417000       1.00800           0
     45647 TIP3     5671     TIP3     OH2      OT      -0.834000       15.9994           0
     45648 TIP3     5671     TIP3     H1       HT       0.417000       1.00800           0
     45649 TIP3     5671     TIP3     H2       HT       0.417000       1.00800           0
     45650 TIP3     5672     TIP3     OH2      OT      -0.834000       15.9994           0
     45651 TIP3     5672     TIP3     H1       HT       0.417000       1.00800           0
     45652 TIP3     5672     TIP3     H2       HT       0.417000       1.00800           0
     45653 TIP3     5673     TIP3     OH2      OT      -0.834000       15.9994           0
     45654 TIP3     5673     TIP3     H1       HT       0.417000       1.00800           0
     45655 TIP3     5673     TIP3     H2       HT       0.417000       1.00800           0
     45656 TIP3     5674     TIP3     OH2      OT      -0.834000       15.9994           0
     45657 TIP3     5674     TIP3     H1       HT       0.417000       1.00800           0
     45658 TIP3     5674     TIP3     H2       HT       0.417000       1.00800           0
     45659 TIP3     5675     TIP3     OH2      OT      -0.834000       15.9994           0
     45660 TIP3     5675     TIP3     H1       HT       0.417000       1.00800           0
     45661 TIP3     5675     TIP3     H2       HT       0.417000       1.00800           0
     45662 TIP3     5676     TIP3     OH2      OT      -0.834000       15.9994           0
     45663 TIP3     5676     TIP3     H1       HT       0.417000       1.00800           0
     45664 TIP3     5676     TIP3     H2       HT       0.417000       1.00800           0
     45665 TIP3     5677     TIP3     OH2      OT      -0.834000       15.9994           0
     45666 TIP3     5677     TIP3     H1       HT       0.417000       1.00800           0
     45667 TIP3     5677     TIP3     H2       HT       0.417000       1.00800           0
     45668 TIP3     5678     TIP3     OH2      OT      -0.834000       15.9994           0
     45669 TIP3     5678     TIP3     H1       HT       0.417000       1.00800           0
     45670 TIP3     5678     TIP3     H2       HT       0.417000       1.00800           0
     45671 TIP3     5679     TIP3     OH2      OT      -0.834000       15.9994           0
     45672 TIP3     5679     TIP3     H1       HT       0.417000       1.00800           0
     45673 TIP3     5679     TIP3     H2       HT       0.417000       1.00800           0
     45674 TIP3     5680     TIP3     OH2      OT      -0.834000       15.9994           0
     45675 TIP3     5680     TIP3     H1       HT       0.417000       1.00800           0
     45676 TIP3     5680     TIP3     H2       HT       0.417000       1.00800           0
     45677 TIP3     5681     TIP3     OH2      OT      -0.834000       15.9994           0
     45678 TIP3     5681     TIP3     H1       HT       0.417000       1.00800           0
     45679 TIP3     5681     TIP3     H2       HT       0.417000       1.00800           0
     45680 TIP3     5682     TIP3     OH2      OT      -0.834000       15.9994           0
     45681 TIP3     5682     TIP3     H1       HT       0.417000       1.00800           0
     45682 TIP3     5682     TIP3     H2       HT       0.417000       1.00800           0
     45683 TIP3     5683     TIP3     OH2      OT      -0.834000       15.9994           0
     45684 TIP3     5683     TIP3     H1       HT       0.417000       1.00800           0
     45685 TIP3     5683     TIP3     H2       HT       0.417000       1.00800           0
     45686 TIP3     5684     TIP3     OH2      OT      -0.834000       15.9994           0
     45687 TIP3     5684     TIP3     H1       HT       0.417000       1.00800           0
     45688 TIP3     5684     TIP3     H2       HT       0.417000       1.00800           0
     45689 TIP3     5685     TIP3     OH2      OT      -0.834000       15.9994           0
     45690 TIP3     5685     TIP3     H1       HT       0.417000       1.00800           0
     45691 TIP3     5685     TIP3     H2       HT       0.417000       1.00800           0
     45692 TIP3     5686     TIP3     OH2      OT      -0.834000       15.9994           0
     45693 TIP3     5686     TIP3     H1       HT       0.417000       1.00800           0
     45694 TIP3     5686     TIP3     H2       HT       0.417000       1.00800           0
     45695 TIP3     5687     TIP3     OH2      OT      -0.834000       15.9994           0
     45696 TIP3     5687     TIP3     H1       HT       0.417000       1.00800           0
     45697 TIP3     5687     TIP3     H2       HT       0.417000       1.00800           0
     45698 TIP3     5688     TIP3     OH2      OT      -0.834000       15.9994           0
     45699 TIP3     5688     TIP3     H1       HT       0.417000       1.00800           0
     45700 TIP3     5688     TIP3     H2       HT       0.417000       1.00800           0
     45701 TIP3     5689     TIP3     OH2      OT      -0.834000       15.9994           0
     45702 TIP3     5689     TIP3     H1       HT       0.417000       1.00800           0
     45703 TIP3     5689     TIP3     H2       HT       0.417000       1.00800           0
     45704 TIP3     5690     TIP3     OH2      OT      -0.834000       15.9994           0
     45705 TIP3     5690     TIP3     H1       HT       0.417000       1.00800           0
     45706 TIP3     5690     TIP3     H2       HT       0.417000       1.00800           0
     45707 TIP3     5691     TIP3     OH2      OT      -0.834000       15.9994           0
     45708 TIP3     5691     TIP3     H1       HT       0.417000       1.00800           0
     45709 TIP3     5691     TIP3     H2       HT       0.417000       1.00800           0
     45710 TIP3     5692     TIP3     OH2      OT      -0.834000       15.9994           0
     45711 TIP3     5692     TIP3     H1       HT       0.417000       1.00800           0
     45712 TIP3     5692     TIP3     H2       HT       0.417000       1.00800           0
     45713 TIP3     5693     TIP3     OH2      OT      -0.834000       15.9994           0
     45714 TIP3     5693     TIP3     H1       HT       0.417000       1.00800           0
     45715 TIP3     5693     TIP3     H2       HT       0.417000       1.00800           0
     45716 TIP3     5694     TIP3     OH2      OT      -0.834000       15.9994           0
     45717 TIP3     5694     TIP3     H1       HT       0.417000       1.00800           0
     45718 TIP3     5694     TIP3     H2       HT       0.417000       1.00800           0
     45719 TIP3     5695     TIP3     OH2      OT      -0.834000       15.9994           0
     45720 TIP3     5695     TIP3     H1       HT       0.417000       1.00800           0
     45721 TIP3     5695     TIP3     H2       HT       0.417000       1.00800           0
     45722 TIP3     5696     TIP3     OH2      OT      -0.834000       15.9994           0
     45723 TIP3     5696     TIP3     H1       HT       0.417000       1.00800           0
     45724 TIP3     5696     TIP3     H2       HT       0.417000       1.00800           0
     45725 TIP3     5697     TIP3     OH2      OT      -0.834000       15.9994           0
     45726 TIP3     5697     TIP3     H1       HT       0.417000       1.00800           0
     45727 TIP3     5697     TIP3     H2       HT       0.417000       1.00800           0
     45728 TIP3     5698     TIP3     OH2      OT      -0.834000       15.9994           0
     45729 TIP3     5698     TIP3     H1       HT       0.417000       1.00800           0
     45730 TIP3     5698     TIP3     H2       HT       0.417000       1.00800           0
     45731 TIP3     5699     TIP3     OH2      OT      -0.834000       15.9994           0
     45732 TIP3     5699     TIP3     H1       HT       0.417000       1.00800           0
     45733 TIP3     5699     TIP3     H2       HT       0.417000       1.00800           0
     45734 TIP3     5700     TIP3     OH2      OT      -0.834000       15.9994           0
     45735 TIP3     5700     TIP3     H1       HT       0.417000       1.00800           0
     45736 TIP3     5700     TIP3     H2       HT       0.417000       1.00800           0
     45737 TIP3     5701     TIP3     OH2      OT      -0.834000       15.9994           0
     45738 TIP3     5701     TIP3     H1       HT       0.417000       1.00800           0
     45739 TIP3     5701     TIP3     H2       HT       0.417000       1.00800           0
     45740 TIP3     5702     TIP3     OH2      OT      -0.834000       15.9994           0
     45741 TIP3     5702     TIP3     H1       HT       0.417000       1.00800           0
     45742 TIP3     5702     TIP3     H2       HT       0.417000       1.00800           0
     45743 TIP3     5703     TIP3     OH2      OT      -0.834000       15.9994           0
     45744 TIP3     5703     TIP3     H1       HT       0.417000       1.00800           0
     45745 TIP3     5703     TIP3     H2       HT       0.417000       1.00800           0
     45746 TIP3     5704     TIP3     OH2      OT      -0.834000       15.9994           0
     45747 TIP3     5704     TIP3     H1       HT       0.417000       1.00800           0
     45748 TIP3     5704     TIP3     H2       HT       0.417000       1.00800           0
     45749 TIP3     5705     TIP3     OH2      OT      -0.834000       15.9994           0
     45750 TIP3     5705     TIP3     H1       HT       0.417000       1.00800           0
     45751 TIP3     5705     TIP3     H2       HT       0.417000       1.00800           0
     45752 TIP3     5706     TIP3     OH2      OT      -0.834000       15.9994           0
     45753 TIP3     5706     TIP3     H1       HT       0.417000       1.00800           0
     45754 TIP3     5706     TIP3     H2       HT       0.417000       1.00800           0
     45755 TIP3     5707     TIP3     OH2      OT      -0.834000       15.9994           0
     45756 TIP3     5707     TIP3     H1       HT       0.417000       1.00800           0
     45757 TIP3     5707     TIP3     H2       HT       0.417000       1.00800           0
     45758 TIP3     5708     TIP3     OH2      OT      -0.834000       15.9994           0
     45759 TIP3     5708     TIP3     H1       HT       0.417000       1.00800           0
     45760 TIP3     5708     TIP3     H2       HT       0.417000       1.00800           0
     45761 TIP3     5709     TIP3     OH2      OT      -0.834000       15.9994           0
     45762 TIP3     5709     TIP3     H1       HT       0.417000       1.00800           0
     45763 TIP3     5709     TIP3     H2       HT       0.417000       1.00800           0
     45764 TIP3     5710     TIP3     OH2      OT      -0.834000       15.9994           0
     45765 TIP3     5710     TIP3     H1       HT       0.417000       1.00800           0
     45766 TIP3     5710     TIP3     H2       HT       0.417000       1.00800           0
     45767 TIP3     5711     TIP3     OH2      OT      -0.834000       15.9994           0
     45768 TIP3     5711     TIP3     H1       HT       0.417000       1.00800           0
     45769 TIP3     5711     TIP3     H2       HT       0.417000       1.00800           0
     45770 TIP3     5712     TIP3     OH2      OT      -0.834000       15.9994           0
     45771 TIP3     5712     TIP3     H1       HT       0.417000       1.00800           0
     45772 TIP3     5712     TIP3     H2       HT       0.417000       1.00800           0
     45773 TIP3     5713     TIP3     OH2      OT      -0.834000       15.9994           0
     45774 TIP3     5713     TIP3     H1       HT       0.417000       1.00800           0
     45775 TIP3     5713     TIP3     H2       HT       0.417000       1.00800           0
     45776 TIP3     5714     TIP3     OH2      OT      -0.834000       15.9994           0
     45777 TIP3     5714     TIP3     H1       HT       0.417000       1.00800           0
     45778 TIP3     5714     TIP3     H2       HT       0.417000       1.00800           0
     45779 TIP3     5715     TIP3     OH2      OT      -0.834000       15.9994           0
     45780 TIP3     5715     TIP3     H1       HT       0.417000       1.00800           0
     45781 TIP3     5715     TIP3     H2       HT       0.417000       1.00800           0
     45782 TIP3     5716     TIP3     OH2      OT      -0.834000       15.9994           0
     45783 TIP3     5716     TIP3     H1       HT       0.417000       1.00800           0
     45784 TIP3     5716     TIP3     H2       HT       0.417000       1.00800           0
     45785 TIP3     5717     TIP3     OH2      OT      -0.834000       15.9994           0
     45786 TIP3     5717     TIP3     H1       HT       0.417000       1.00800           0
     45787 TIP3     5717     TIP3     H2       HT       0.417000       1.00800           0
     45788 TIP3     5718     TIP3     OH2      OT      -0.834000       15.9994           0
     45789 TIP3     5718     TIP3     H1       HT       0.417000       1.00800           0
     45790 TIP3     5718     TIP3     H2       HT       0.417000       1.00800           0
     45791 TIP3     5719     TIP3     OH2      OT      -0.834000       15.9994           0
     45792 TIP3     5719     TIP3     H1       HT       0.417000       1.00800           0
     45793 TIP3     5719     TIP3     H2       HT       0.417000       1.00800           0
     45794 TIP3     5720     TIP3     OH2      OT      -0.834000       15.9994           0
     45795 TIP3     5720     TIP3     H1       HT       0.417000       1.00800           0
     45796 TIP3     5720     TIP3     H2       HT       0.417000       1.00800           0
     45797 TIP3     5721     TIP3     OH2      OT      -0.834000       15.9994           0
     45798 TIP3     5721     TIP3     H1       HT       0.417000       1.00800           0
     45799 TIP3     5721     TIP3     H2       HT       0.417000       1.00800           0
     45800 TIP3     5722     TIP3     OH2      OT      -0.834000       15.9994           0
     45801 TIP3     5722     TIP3     H1       HT       0.417000       1.00800           0
     45802 TIP3     5722     TIP3     H2       HT       0.417000       1.00800           0
     45803 TIP3     5723     TIP3     OH2      OT      -0.834000       15.9994           0
     45804 TIP3     5723     TIP3     H1       HT       0.417000       1.00800           0
     45805 TIP3     5723     TIP3     H2       HT       0.417000       1.00800           0
     45806 TIP3     5724     TIP3     OH2      OT      -0.834000       15.9994           0
     45807 TIP3     5724     TIP3     H1       HT       0.417000       1.00800           0
     45808 TIP3     5724     TIP3     H2       HT       0.417000       1.00800           0
     45809 TIP3     5725     TIP3     OH2      OT      -0.834000       15.9994           0
     45810 TIP3     5725     TIP3     H1       HT       0.417000       1.00800           0
     45811 TIP3     5725     TIP3     H2       HT       0.417000       1.00800           0
     45812 TIP3     5726     TIP3     OH2      OT      -0.834000       15.9994           0
     45813 TIP3     5726     TIP3     H1       HT       0.417000       1.00800           0
     45814 TIP3     5726     TIP3     H2       HT       0.417000       1.00800           0
     45815 TIP3     5727     TIP3     OH2      OT      -0.834000       15.9994           0
     45816 TIP3     5727     TIP3     H1       HT       0.417000       1.00800           0
     45817 TIP3     5727     TIP3     H2       HT       0.417000       1.00800           0
     45818 TIP3     5728     TIP3     OH2      OT      -0.834000       15.9994           0
     45819 TIP3     5728     TIP3     H1       HT       0.417000       1.00800           0
     45820 TIP3     5728     TIP3     H2       HT       0.417000       1.00800           0
     45821 TIP3     5729     TIP3     OH2      OT      -0.834000       15.9994           0
     45822 TIP3     5729     TIP3     H1       HT       0.417000       1.00800           0
     45823 TIP3     5729     TIP3     H2       HT       0.417000       1.00800           0
     45824 TIP3     5730     TIP3     OH2      OT      -0.834000       15.9994           0
     45825 TIP3     5730     TIP3     H1       HT       0.417000       1.00800           0
     45826 TIP3     5730     TIP3     H2       HT       0.417000       1.00800           0
     45827 TIP3     5731     TIP3     OH2      OT      -0.834000       15.9994           0
     45828 TIP3     5731     TIP3     H1       HT       0.417000       1.00800           0
     45829 TIP3     5731     TIP3     H2       HT       0.417000       1.00800           0
     45830 TIP3     5732     TIP3     OH2      OT      -0.834000       15.9994           0
     45831 TIP3     5732     TIP3     H1       HT       0.417000       1.00800           0
     45832 TIP3     5732     TIP3     H2       HT       0.417000       1.00800           0
     45833 TIP3     5733     TIP3     OH2      OT      -0.834000       15.9994           0
     45834 TIP3     5733     TIP3     H1       HT       0.417000       1.00800           0
     45835 TIP3     5733     TIP3     H2       HT       0.417000       1.00800           0
     45836 TIP3     5734     TIP3     OH2      OT      -0.834000       15.9994           0
     45837 TIP3     5734     TIP3     H1       HT       0.417000       1.00800           0
     45838 TIP3     5734     TIP3     H2       HT       0.417000       1.00800           0
     45839 TIP3     5735     TIP3     OH2      OT      -0.834000       15.9994           0
     45840 TIP3     5735     TIP3     H1       HT       0.417000       1.00800           0
     45841 TIP3     5735     TIP3     H2       HT       0.417000       1.00800           0
     45842 TIP3     5736     TIP3     OH2      OT      -0.834000       15.9994           0
     45843 TIP3     5736     TIP3     H1       HT       0.417000       1.00800           0
     45844 TIP3     5736     TIP3     H2       HT       0.417000       1.00800           0
     45845 TIP3     5737     TIP3     OH2      OT      -0.834000       15.9994           0
     45846 TIP3     5737     TIP3     H1       HT       0.417000       1.00800           0
     45847 TIP3     5737     TIP3     H2       HT       0.417000       1.00800           0
     45848 TIP3     5738     TIP3     OH2      OT      -0.834000       15.9994           0
     45849 TIP3     5738     TIP3     H1       HT       0.417000       1.00800           0
     45850 TIP3     5738     TIP3     H2       HT       0.417000       1.00800           0
     45851 TIP3     5739     TIP3     OH2      OT      -0.834000       15.9994           0
     45852 TIP3     5739     TIP3     H1       HT       0.417000       1.00800           0
     45853 TIP3     5739     TIP3     H2       HT       0.417000       1.00800           0
     45854 TIP3     5740     TIP3     OH2      OT      -0.834000       15.9994           0
     45855 TIP3     5740     TIP3     H1       HT       0.417000       1.00800           0
     45856 TIP3     5740     TIP3     H2       HT       0.417000       1.00800           0
     45857 TIP3     5741     TIP3     OH2      OT      -0.834000       15.9994           0
     45858 TIP3     5741     TIP3     H1       HT       0.417000       1.00800           0
     45859 TIP3     5741     TIP3     H2       HT       0.417000       1.00800           0
     45860 TIP3     5742     TIP3     OH2      OT      -0.834000       15.9994           0
     45861 TIP3     5742     TIP3     H1       HT       0.417000       1.00800           0
     45862 TIP3     5742     TIP3     H2       HT       0.417000       1.00800           0
     45863 TIP3     5743     TIP3     OH2      OT      -0.834000       15.9994           0
     45864 TIP3     5743     TIP3     H1       HT       0.417000       1.00800           0
     45865 TIP3     5743     TIP3     H2       HT       0.417000       1.00800           0
     45866 TIP3     5744     TIP3     OH2      OT      -0.834000       15.9994           0
     45867 TIP3     5744     TIP3     H1       HT       0.417000       1.00800           0
     45868 TIP3     5744     TIP3     H2       HT       0.417000       1.00800           0
     45869 TIP3     5745     TIP3     OH2      OT      -0.834000       15.9994           0
     45870 TIP3     5745     TIP3     H1       HT       0.417000       1.00800           0
     45871 TIP3     5745     TIP3     H2       HT       0.417000       1.00800           0
     45872 TIP3     5746     TIP3     OH2      OT      -0.834000       15.9994           0
     45873 TIP3     5746     TIP3     H1       HT       0.417000       1.00800           0
     45874 TIP3     5746     TIP3     H2       HT       0.417000       1.00800           0
     45875 TIP3     5747     TIP3     OH2      OT      -0.834000       15.9994           0
     45876 TIP3     5747     TIP3     H1       HT       0.417000       1.00800           0
     45877 TIP3     5747     TIP3     H2       HT       0.417000       1.00800           0
     45878 TIP3     5748     TIP3     OH2      OT      -0.834000       15.9994           0
     45879 TIP3     5748     TIP3     H1       HT       0.417000       1.00800           0
     45880 TIP3     5748     TIP3     H2       HT       0.417000       1.00800           0
     45881 TIP3     5749     TIP3     OH2      OT      -0.834000       15.9994           0
     45882 TIP3     5749     TIP3     H1       HT       0.417000       1.00800           0
     45883 TIP3     5749     TIP3     H2       HT       0.417000       1.00800           0
     45884 TIP3     5750     TIP3     OH2      OT      -0.834000       15.9994           0
     45885 TIP3     5750     TIP3     H1       HT       0.417000       1.00800           0
     45886 TIP3     5750     TIP3     H2       HT       0.417000       1.00800           0
     45887 TIP3     5751     TIP3     OH2      OT      -0.834000       15.9994           0
     45888 TIP3     5751     TIP3     H1       HT       0.417000       1.00800           0
     45889 TIP3     5751     TIP3     H2       HT       0.417000       1.00800           0
     45890 TIP3     5752     TIP3     OH2      OT      -0.834000       15.9994           0
     45891 TIP3     5752     TIP3     H1       HT       0.417000       1.00800           0
     45892 TIP3     5752     TIP3     H2       HT       0.417000       1.00800           0
     45893 TIP3     5753     TIP3     OH2      OT      -0.834000       15.9994           0
     45894 TIP3     5753     TIP3     H1       HT       0.417000       1.00800           0
     45895 TIP3     5753     TIP3     H2       HT       0.417000       1.00800           0
     45896 TIP3     5754     TIP3     OH2      OT      -0.834000       15.9994           0
     45897 TIP3     5754     TIP3     H1       HT       0.417000       1.00800           0
     45898 TIP3     5754     TIP3     H2       HT       0.417000       1.00800           0
     45899 TIP3     5755     TIP3     OH2      OT      -0.834000       15.9994           0
     45900 TIP3     5755     TIP3     H1       HT       0.417000       1.00800           0
     45901 TIP3     5755     TIP3     H2       HT       0.417000       1.00800           0
     45902 TIP3     5756     TIP3     OH2      OT      -0.834000       15.9994           0
     45903 TIP3     5756     TIP3     H1       HT       0.417000       1.00800           0
     45904 TIP3     5756     TIP3     H2       HT       0.417000       1.00800           0
     45905 TIP3     5757     TIP3     OH2      OT      -0.834000       15.9994           0
     45906 TIP3     5757     TIP3     H1       HT       0.417000       1.00800           0
     45907 TIP3     5757     TIP3     H2       HT       0.417000       1.00800           0
     45908 TIP3     5758     TIP3     OH2      OT      -0.834000       15.9994           0
     45909 TIP3     5758     TIP3     H1       HT       0.417000       1.00800           0
     45910 TIP3     5758     TIP3     H2       HT       0.417000       1.00800           0
     45911 TIP3     5759     TIP3     OH2      OT      -0.834000       15.9994           0
     45912 TIP3     5759     TIP3     H1       HT       0.417000       1.00800           0
     45913 TIP3     5759     TIP3     H2       HT       0.417000       1.00800           0
     45914 TIP3     5760     TIP3     OH2      OT      -0.834000       15.9994           0
     45915 TIP3     5760     TIP3     H1       HT       0.417000       1.00800           0
     45916 TIP3     5760     TIP3     H2       HT       0.417000       1.00800           0
     45917 TIP3     5761     TIP3     OH2      OT      -0.834000       15.9994           0
     45918 TIP3     5761     TIP3     H1       HT       0.417000       1.00800           0
     45919 TIP3     5761     TIP3     H2       HT       0.417000       1.00800           0
     45920 TIP3     5762     TIP3     OH2      OT      -0.834000       15.9994           0
     45921 TIP3     5762     TIP3     H1       HT       0.417000       1.00800           0
     45922 TIP3     5762     TIP3     H2       HT       0.417000       1.00800           0
     45923 TIP3     5763     TIP3     OH2      OT      -0.834000       15.9994           0
     45924 TIP3     5763     TIP3     H1       HT       0.417000       1.00800           0
     45925 TIP3     5763     TIP3     H2       HT       0.417000       1.00800           0
     45926 TIP3     5764     TIP3     OH2      OT      -0.834000       15.9994           0
     45927 TIP3     5764     TIP3     H1       HT       0.417000       1.00800           0
     45928 TIP3     5764     TIP3     H2       HT       0.417000       1.00800           0
     45929 TIP3     5765     TIP3     OH2      OT      -0.834000       15.9994           0
     45930 TIP3     5765     TIP3     H1       HT       0.417000       1.00800           0
     45931 TIP3     5765     TIP3     H2       HT       0.417000       1.00800           0
     45932 TIP3     5766     TIP3     OH2      OT      -0.834000       15.9994           0
     45933 TIP3     5766     TIP3     H1       HT       0.417000       1.00800           0
     45934 TIP3     5766     TIP3     H2       HT       0.417000       1.00800           0
     45935 TIP3     5767     TIP3     OH2      OT      -0.834000       15.9994           0
     45936 TIP3     5767     TIP3     H1       HT       0.417000       1.00800           0
     45937 TIP3     5767     TIP3     H2       HT       0.417000       1.00800           0
     45938 TIP3     5768     TIP3     OH2      OT      -0.834000       15.9994           0
     45939 TIP3     5768     TIP3     H1       HT       0.417000       1.00800           0
     45940 TIP3     5768     TIP3     H2       HT       0.417000       1.00800           0
     45941 TIP3     5769     TIP3     OH2      OT      -0.834000       15.9994           0
     45942 TIP3     5769     TIP3     H1       HT       0.417000       1.00800           0
     45943 TIP3     5769     TIP3     H2       HT       0.417000       1.00800           0
     45944 TIP3     5770     TIP3     OH2      OT      -0.834000       15.9994           0
     45945 TIP3     5770     TIP3     H1       HT       0.417000       1.00800           0
     45946 TIP3     5770     TIP3     H2       HT       0.417000       1.00800           0
     45947 TIP3     5771     TIP3     OH2      OT      -0.834000       15.9994           0
     45948 TIP3     5771     TIP3     H1       HT       0.417000       1.00800           0
     45949 TIP3     5771     TIP3     H2       HT       0.417000       1.00800           0
     45950 TIP3     5772     TIP3     OH2      OT      -0.834000       15.9994           0
     45951 TIP3     5772     TIP3     H1       HT       0.417000       1.00800           0
     45952 TIP3     5772     TIP3     H2       HT       0.417000       1.00800           0
     45953 TIP3     5773     TIP3     OH2      OT      -0.834000       15.9994           0
     45954 TIP3     5773     TIP3     H1       HT       0.417000       1.00800           0
     45955 TIP3     5773     TIP3     H2       HT       0.417000       1.00800           0
     45956 TIP3     5774     TIP3     OH2      OT      -0.834000       15.9994           0
     45957 TIP3     5774     TIP3     H1       HT       0.417000       1.00800           0
     45958 TIP3     5774     TIP3     H2       HT       0.417000       1.00800           0
     45959 TIP3     5775     TIP3     OH2      OT      -0.834000       15.9994           0
     45960 TIP3     5775     TIP3     H1       HT       0.417000       1.00800           0
     45961 TIP3     5775     TIP3     H2       HT       0.417000       1.00800           0
     45962 TIP3     5776     TIP3     OH2      OT      -0.834000       15.9994           0
     45963 TIP3     5776     TIP3     H1       HT       0.417000       1.00800           0
     45964 TIP3     5776     TIP3     H2       HT       0.417000       1.00800           0
     45965 TIP3     5777     TIP3     OH2      OT      -0.834000       15.9994           0
     45966 TIP3     5777     TIP3     H1       HT       0.417000       1.00800           0
     45967 TIP3     5777     TIP3     H2       HT       0.417000       1.00800           0
     45968 TIP3     5778     TIP3     OH2      OT      -0.834000       15.9994           0
     45969 TIP3     5778     TIP3     H1       HT       0.417000       1.00800           0
     45970 TIP3     5778     TIP3     H2       HT       0.417000       1.00800           0
     45971 TIP3     5779     TIP3     OH2      OT      -0.834000       15.9994           0
     45972 TIP3     5779     TIP3     H1       HT       0.417000       1.00800           0
     45973 TIP3     5779     TIP3     H2       HT       0.417000       1.00800           0
     45974 TIP3     5780     TIP3     OH2      OT      -0.834000       15.9994           0
     45975 TIP3     5780     TIP3     H1       HT       0.417000       1.00800           0
     45976 TIP3     5780     TIP3     H2       HT       0.417000       1.00800           0
     45977 TIP3     5781     TIP3     OH2      OT      -0.834000       15.9994           0
     45978 TIP3     5781     TIP3     H1       HT       0.417000       1.00800           0
     45979 TIP3     5781     TIP3     H2       HT       0.417000       1.00800           0
     45980 TIP3     5782     TIP3     OH2      OT      -0.834000       15.9994           0
     45981 TIP3     5782     TIP3     H1       HT       0.417000       1.00800           0
     45982 TIP3     5782     TIP3     H2       HT       0.417000       1.00800           0
     45983 TIP3     5783     TIP3     OH2      OT      -0.834000       15.9994           0
     45984 TIP3     5783     TIP3     H1       HT       0.417000       1.00800           0
     45985 TIP3     5783     TIP3     H2       HT       0.417000       1.00800           0
     45986 TIP3     5784     TIP3     OH2      OT      -0.834000       15.9994           0
     45987 TIP3     5784     TIP3     H1       HT       0.417000       1.00800           0
     45988 TIP3     5784     TIP3     H2       HT       0.417000       1.00800           0
     45989 TIP3     5785     TIP3     OH2      OT      -0.834000       15.9994           0
     45990 TIP3     5785     TIP3     H1       HT       0.417000       1.00800           0
     45991 TIP3     5785     TIP3     H2       HT       0.417000       1.00800           0
     45992 TIP3     5786     TIP3     OH2      OT      -0.834000       15.9994           0
     45993 TIP3     5786     TIP3     H1       HT       0.417000       1.00800           0
     45994 TIP3     5786     TIP3     H2       HT       0.417000       1.00800           0
     45995 TIP3     5787     TIP3     OH2      OT      -0.834000       15.9994           0
     45996 TIP3     5787     TIP3     H1       HT       0.417000       1.00800           0
     45997 TIP3     5787     TIP3     H2       HT       0.417000       1.00800           0
     45998 TIP3     5788     TIP3     OH2      OT      -0.834000       15.9994           0
     45999 TIP3     5788     TIP3     H1       HT       0.417000       1.00800           0
     46000 TIP3     5788     TIP3     H2       HT       0.417000       1.00800           0
     46001 TIP3     5789     TIP3     OH2      OT      -0.834000       15.9994           0
     46002 TIP3     5789     TIP3     H1       HT       0.417000       1.00800           0
     46003 TIP3     5789     TIP3     H2       HT       0.417000       1.00800           0
     46004 TIP3     5790     TIP3     OH2      OT      -0.834000       15.9994           0
     46005 TIP3     5790     TIP3     H1       HT       0.417000       1.00800           0
     46006 TIP3     5790     TIP3     H2       HT       0.417000       1.00800           0
     46007 TIP3     5791     TIP3     OH2      OT      -0.834000       15.9994           0
     46008 TIP3     5791     TIP3     H1       HT       0.417000       1.00800           0
     46009 TIP3     5791     TIP3     H2       HT       0.417000       1.00800           0
     46010 TIP3     5792     TIP3     OH2      OT      -0.834000       15.9994           0
     46011 TIP3     5792     TIP3     H1       HT       0.417000       1.00800           0
     46012 TIP3     5792     TIP3     H2       HT       0.417000       1.00800           0
     46013 TIP3     5793     TIP3     OH2      OT      -0.834000       15.9994           0
     46014 TIP3     5793     TIP3     H1       HT       0.417000       1.00800           0
     46015 TIP3     5793     TIP3     H2       HT       0.417000       1.00800           0
     46016 TIP3     5794     TIP3     OH2      OT      -0.834000       15.9994           0
     46017 TIP3     5794     TIP3     H1       HT       0.417000       1.00800           0
     46018 TIP3     5794     TIP3     H2       HT       0.417000       1.00800           0
     46019 TIP3     5795     TIP3     OH2      OT      -0.834000       15.9994           0
     46020 TIP3     5795     TIP3     H1       HT       0.417000       1.00800           0
     46021 TIP3     5795     TIP3     H2       HT       0.417000       1.00800           0
     46022 TIP3     5796     TIP3     OH2      OT      -0.834000       15.9994           0
     46023 TIP3     5796     TIP3     H1       HT       0.417000       1.00800           0
     46024 TIP3     5796     TIP3     H2       HT       0.417000       1.00800           0
     46025 TIP3     5797     TIP3     OH2      OT      -0.834000       15.9994           0
     46026 TIP3     5797     TIP3     H1       HT       0.417000       1.00800           0
     46027 TIP3     5797     TIP3     H2       HT       0.417000       1.00800           0
     46028 TIP3     5798     TIP3     OH2      OT      -0.834000       15.9994           0
     46029 TIP3     5798     TIP3     H1       HT       0.417000       1.00800           0
     46030 TIP3     5798     TIP3     H2       HT       0.417000       1.00800           0
     46031 TIP3     5799     TIP3     OH2      OT      -0.834000       15.9994           0
     46032 TIP3     5799     TIP3     H1       HT       0.417000       1.00800           0
     46033 TIP3     5799     TIP3     H2       HT       0.417000       1.00800           0
     46034 TIP3     5800     TIP3     OH2      OT      -0.834000       15.9994           0
     46035 TIP3     5800     TIP3     H1       HT       0.417000       1.00800           0
     46036 TIP3     5800     TIP3     H2       HT       0.417000       1.00800           0
     46037 TIP3     5801     TIP3     OH2      OT      -0.834000       15.9994           0
     46038 TIP3     5801     TIP3     H1       HT       0.417000       1.00800           0
     46039 TIP3     5801     TIP3     H2       HT       0.417000       1.00800           0
     46040 TIP3     5802     TIP3     OH2      OT      -0.834000       15.9994           0
     46041 TIP3     5802     TIP3     H1       HT       0.417000       1.00800           0
     46042 TIP3     5802     TIP3     H2       HT       0.417000       1.00800           0
     46043 TIP3     5803     TIP3     OH2      OT      -0.834000       15.9994           0
     46044 TIP3     5803     TIP3     H1       HT       0.417000       1.00800           0
     46045 TIP3     5803     TIP3     H2       HT       0.417000       1.00800           0
     46046 TIP3     5804     TIP3     OH2      OT      -0.834000       15.9994           0
     46047 TIP3     5804     TIP3     H1       HT       0.417000       1.00800           0
     46048 TIP3     5804     TIP3     H2       HT       0.417000       1.00800           0
     46049 TIP3     5805     TIP3     OH2      OT      -0.834000       15.9994           0
     46050 TIP3     5805     TIP3     H1       HT       0.417000       1.00800           0
     46051 TIP3     5805     TIP3     H2       HT       0.417000       1.00800           0
     46052 TIP3     5806     TIP3     OH2      OT      -0.834000       15.9994           0
     46053 TIP3     5806     TIP3     H1       HT       0.417000       1.00800           0
     46054 TIP3     5806     TIP3     H2       HT       0.417000       1.00800           0
     46055 TIP3     5807     TIP3     OH2      OT      -0.834000       15.9994           0
     46056 TIP3     5807     TIP3     H1       HT       0.417000       1.00800           0
     46057 TIP3     5807     TIP3     H2       HT       0.417000       1.00800           0
     46058 TIP3     5808     TIP3     OH2      OT      -0.834000       15.9994           0
     46059 TIP3     5808     TIP3     H1       HT       0.417000       1.00800           0
     46060 TIP3     5808     TIP3     H2       HT       0.417000       1.00800           0
     46061 TIP3     5809     TIP3     OH2      OT      -0.834000       15.9994           0
     46062 TIP3     5809     TIP3     H1       HT       0.417000       1.00800           0
     46063 TIP3     5809     TIP3     H2       HT       0.417000       1.00800           0
     46064 TIP3     5810     TIP3     OH2      OT      -0.834000       15.9994           0
     46065 TIP3     5810     TIP3     H1       HT       0.417000       1.00800           0
     46066 TIP3     5810     TIP3     H2       HT       0.417000       1.00800           0
     46067 TIP3     5811     TIP3     OH2      OT      -0.834000       15.9994           0
     46068 TIP3     5811     TIP3     H1       HT       0.417000       1.00800           0
     46069 TIP3     5811     TIP3     H2       HT       0.417000       1.00800           0
     46070 TIP3     5812     TIP3     OH2      OT      -0.834000       15.9994           0
     46071 TIP3     5812     TIP3     H1       HT       0.417000       1.00800           0
     46072 TIP3     5812     TIP3     H2       HT       0.417000       1.00800           0
     46073 TIP3     5813     TIP3     OH2      OT      -0.834000       15.9994           0
     46074 TIP3     5813     TIP3     H1       HT       0.417000       1.00800           0
     46075 TIP3     5813     TIP3     H2       HT       0.417000       1.00800           0
     46076 TIP3     5814     TIP3     OH2      OT      -0.834000       15.9994           0
     46077 TIP3     5814     TIP3     H1       HT       0.417000       1.00800           0
     46078 TIP3     5814     TIP3     H2       HT       0.417000       1.00800           0
     46079 TIP3     5815     TIP3     OH2      OT      -0.834000       15.9994           0
     46080 TIP3     5815     TIP3     H1       HT       0.417000       1.00800           0
     46081 TIP3     5815     TIP3     H2       HT       0.417000       1.00800           0
     46082 TIP3     5816     TIP3     OH2      OT      -0.834000       15.9994           0
     46083 TIP3     5816     TIP3     H1       HT       0.417000       1.00800           0
     46084 TIP3     5816     TIP3     H2       HT       0.417000       1.00800           0
     46085 TIP3     5817     TIP3     OH2      OT      -0.834000       15.9994           0
     46086 TIP3     5817     TIP3     H1       HT       0.417000       1.00800           0
     46087 TIP3     5817     TIP3     H2       HT       0.417000       1.00800           0
     46088 TIP3     5818     TIP3     OH2      OT      -0.834000       15.9994           0
     46089 TIP3     5818     TIP3     H1       HT       0.417000       1.00800           0
     46090 TIP3     5818     TIP3     H2       HT       0.417000       1.00800           0
     46091 TIP3     5819     TIP3     OH2      OT      -0.834000       15.9994           0
     46092 TIP3     5819     TIP3     H1       HT       0.417000       1.00800           0
     46093 TIP3     5819     TIP3     H2       HT       0.417000       1.00800           0
     46094 TIP3     5820     TIP3     OH2      OT      -0.834000       15.9994           0
     46095 TIP3     5820     TIP3     H1       HT       0.417000       1.00800           0
     46096 TIP3     5820     TIP3     H2       HT       0.417000       1.00800           0
     46097 TIP3     5821     TIP3     OH2      OT      -0.834000       15.9994           0
     46098 TIP3     5821     TIP3     H1       HT       0.417000       1.00800           0
     46099 TIP3     5821     TIP3     H2       HT       0.417000       1.00800           0
     46100 TIP3     5822     TIP3     OH2      OT      -0.834000       15.9994           0
     46101 TIP3     5822     TIP3     H1       HT       0.417000       1.00800           0
     46102 TIP3     5822     TIP3     H2       HT       0.417000       1.00800           0
     46103 TIP3     5823     TIP3     OH2      OT      -0.834000       15.9994           0
     46104 TIP3     5823     TIP3     H1       HT       0.417000       1.00800           0
     46105 TIP3     5823     TIP3     H2       HT       0.417000       1.00800           0
     46106 TIP3     5824     TIP3     OH2      OT      -0.834000       15.9994           0
     46107 TIP3     5824     TIP3     H1       HT       0.417000       1.00800           0
     46108 TIP3     5824     TIP3     H2       HT       0.417000       1.00800           0
     46109 TIP3     5825     TIP3     OH2      OT      -0.834000       15.9994           0
     46110 TIP3     5825     TIP3     H1       HT       0.417000       1.00800           0
     46111 TIP3     5825     TIP3     H2       HT       0.417000       1.00800           0
     46112 TIP3     5826     TIP3     OH2      OT      -0.834000       15.9994           0
     46113 TIP3     5826     TIP3     H1       HT       0.417000       1.00800           0
     46114 TIP3     5826     TIP3     H2       HT       0.417000       1.00800           0
     46115 TIP3     5827     TIP3     OH2      OT      -0.834000       15.9994           0
     46116 TIP3     5827     TIP3     H1       HT       0.417000       1.00800           0
     46117 TIP3     5827     TIP3     H2       HT       0.417000       1.00800           0
     46118 TIP3     5828     TIP3     OH2      OT      -0.834000       15.9994           0
     46119 TIP3     5828     TIP3     H1       HT       0.417000       1.00800           0
     46120 TIP3     5828     TIP3     H2       HT       0.417000       1.00800           0
     46121 TIP3     5829     TIP3     OH2      OT      -0.834000       15.9994           0
     46122 TIP3     5829     TIP3     H1       HT       0.417000       1.00800           0
     46123 TIP3     5829     TIP3     H2       HT       0.417000       1.00800           0
     46124 TIP3     5830     TIP3     OH2      OT      -0.834000       15.9994           0
     46125 TIP3     5830     TIP3     H1       HT       0.417000       1.00800           0
     46126 TIP3     5830     TIP3     H2       HT       0.417000       1.00800           0
     46127 TIP3     5831     TIP3     OH2      OT      -0.834000       15.9994           0
     46128 TIP3     5831     TIP3     H1       HT       0.417000       1.00800           0
     46129 TIP3     5831     TIP3     H2       HT       0.417000       1.00800           0
     46130 TIP3     5832     TIP3     OH2      OT      -0.834000       15.9994           0
     46131 TIP3     5832     TIP3     H1       HT       0.417000       1.00800           0
     46132 TIP3     5832     TIP3     H2       HT       0.417000       1.00800           0
     46133 TIP3     5833     TIP3     OH2      OT      -0.834000       15.9994           0
     46134 TIP3     5833     TIP3     H1       HT       0.417000       1.00800           0
     46135 TIP3     5833     TIP3     H2       HT       0.417000       1.00800           0
     46136 TIP3     5834     TIP3     OH2      OT      -0.834000       15.9994           0
     46137 TIP3     5834     TIP3     H1       HT       0.417000       1.00800           0
     46138 TIP3     5834     TIP3     H2       HT       0.417000       1.00800           0
     46139 TIP3     5835     TIP3     OH2      OT      -0.834000       15.9994           0
     46140 TIP3     5835     TIP3     H1       HT       0.417000       1.00800           0
     46141 TIP3     5835     TIP3     H2       HT       0.417000       1.00800           0
     46142 TIP3     5836     TIP3     OH2      OT      -0.834000       15.9994           0
     46143 TIP3     5836     TIP3     H1       HT       0.417000       1.00800           0
     46144 TIP3     5836     TIP3     H2       HT       0.417000       1.00800           0
     46145 TIP3     5837     TIP3     OH2      OT      -0.834000       15.9994           0
     46146 TIP3     5837     TIP3     H1       HT       0.417000       1.00800           0
     46147 TIP3     5837     TIP3     H2       HT       0.417000       1.00800           0
     46148 TIP3     5838     TIP3     OH2      OT      -0.834000       15.9994           0
     46149 TIP3     5838     TIP3     H1       HT       0.417000       1.00800           0
     46150 TIP3     5838     TIP3     H2       HT       0.417000       1.00800           0
     46151 TIP3     5839     TIP3     OH2      OT      -0.834000       15.9994           0
     46152 TIP3     5839     TIP3     H1       HT       0.417000       1.00800           0
     46153 TIP3     5839     TIP3     H2       HT       0.417000       1.00800           0
     46154 TIP3     5840     TIP3     OH2      OT      -0.834000       15.9994           0
     46155 TIP3     5840     TIP3     H1       HT       0.417000       1.00800           0
     46156 TIP3     5840     TIP3     H2       HT       0.417000       1.00800           0
     46157 TIP3     5841     TIP3     OH2      OT      -0.834000       15.9994           0
     46158 TIP3     5841     TIP3     H1       HT       0.417000       1.00800           0
     46159 TIP3     5841     TIP3     H2       HT       0.417000       1.00800           0
     46160 TIP3     5842     TIP3     OH2      OT      -0.834000       15.9994           0
     46161 TIP3     5842     TIP3     H1       HT       0.417000       1.00800           0
     46162 TIP3     5842     TIP3     H2       HT       0.417000       1.00800           0
     46163 TIP3     5843     TIP3     OH2      OT      -0.834000       15.9994           0
     46164 TIP3     5843     TIP3     H1       HT       0.417000       1.00800           0
     46165 TIP3     5843     TIP3     H2       HT       0.417000       1.00800           0
     46166 TIP3     5844     TIP3     OH2      OT      -0.834000       15.9994           0
     46167 TIP3     5844     TIP3     H1       HT       0.417000       1.00800           0
     46168 TIP3     5844     TIP3     H2       HT       0.417000       1.00800           0
     46169 TIP3     5845     TIP3     OH2      OT      -0.834000       15.9994           0
     46170 TIP3     5845     TIP3     H1       HT       0.417000       1.00800           0
     46171 TIP3     5845     TIP3     H2       HT       0.417000       1.00800           0
     46172 TIP3     5846     TIP3     OH2      OT      -0.834000       15.9994           0
     46173 TIP3     5846     TIP3     H1       HT       0.417000       1.00800           0
     46174 TIP3     5846     TIP3     H2       HT       0.417000       1.00800           0
     46175 TIP3     5847     TIP3     OH2      OT      -0.834000       15.9994           0
     46176 TIP3     5847     TIP3     H1       HT       0.417000       1.00800           0
     46177 TIP3     5847     TIP3     H2       HT       0.417000       1.00800           0
     46178 TIP3     5848     TIP3     OH2      OT      -0.834000       15.9994           0
     46179 TIP3     5848     TIP3     H1       HT       0.417000       1.00800           0
     46180 TIP3     5848     TIP3     H2       HT       0.417000       1.00800           0
     46181 TIP3     5849     TIP3     OH2      OT      -0.834000       15.9994           0
     46182 TIP3     5849     TIP3     H1       HT       0.417000       1.00800           0
     46183 TIP3     5849     TIP3     H2       HT       0.417000       1.00800           0
     46184 TIP3     5850     TIP3     OH2      OT      -0.834000       15.9994           0
     46185 TIP3     5850     TIP3     H1       HT       0.417000       1.00800           0
     46186 TIP3     5850     TIP3     H2       HT       0.417000       1.00800           0
     46187 TIP3     5851     TIP3     OH2      OT      -0.834000       15.9994           0
     46188 TIP3     5851     TIP3     H1       HT       0.417000       1.00800           0
     46189 TIP3     5851     TIP3     H2       HT       0.417000       1.00800           0
     46190 TIP3     5852     TIP3     OH2      OT      -0.834000       15.9994           0
     46191 TIP3     5852     TIP3     H1       HT       0.417000       1.00800           0
     46192 TIP3     5852     TIP3     H2       HT       0.417000       1.00800           0
     46193 TIP3     5853     TIP3     OH2      OT      -0.834000       15.9994           0
     46194 TIP3     5853     TIP3     H1       HT       0.417000       1.00800           0
     46195 TIP3     5853     TIP3     H2       HT       0.417000       1.00800           0
     46196 TIP3     5854     TIP3     OH2      OT      -0.834000       15.9994           0
     46197 TIP3     5854     TIP3     H1       HT       0.417000       1.00800           0
     46198 TIP3     5854     TIP3     H2       HT       0.417000       1.00800           0
     46199 TIP3     5855     TIP3     OH2      OT      -0.834000       15.9994           0
     46200 TIP3     5855     TIP3     H1       HT       0.417000       1.00800           0
     46201 TIP3     5855     TIP3     H2       HT       0.417000       1.00800           0
     46202 TIP3     5856     TIP3     OH2      OT      -0.834000       15.9994           0
     46203 TIP3     5856     TIP3     H1       HT       0.417000       1.00800           0
     46204 TIP3     5856     TIP3     H2       HT       0.417000       1.00800           0
     46205 TIP3     5857     TIP3     OH2      OT      -0.834000       15.9994           0
     46206 TIP3     5857     TIP3     H1       HT       0.417000       1.00800           0
     46207 TIP3     5857     TIP3     H2       HT       0.417000       1.00800           0
     46208 TIP3     5858     TIP3     OH2      OT      -0.834000       15.9994           0
     46209 TIP3     5858     TIP3     H1       HT       0.417000       1.00800           0
     46210 TIP3     5858     TIP3     H2       HT       0.417000       1.00800           0
     46211 TIP3     5859     TIP3     OH2      OT      -0.834000       15.9994           0
     46212 TIP3     5859     TIP3     H1       HT       0.417000       1.00800           0
     46213 TIP3     5859     TIP3     H2       HT       0.417000       1.00800           0
     46214 TIP3     5860     TIP3     OH2      OT      -0.834000       15.9994           0
     46215 TIP3     5860     TIP3     H1       HT       0.417000       1.00800           0
     46216 TIP3     5860     TIP3     H2       HT       0.417000       1.00800           0
     46217 TIP3     5861     TIP3     OH2      OT      -0.834000       15.9994           0
     46218 TIP3     5861     TIP3     H1       HT       0.417000       1.00800           0
     46219 TIP3     5861     TIP3     H2       HT       0.417000       1.00800           0
     46220 TIP3     5862     TIP3     OH2      OT      -0.834000       15.9994           0
     46221 TIP3     5862     TIP3     H1       HT       0.417000       1.00800           0
     46222 TIP3     5862     TIP3     H2       HT       0.417000       1.00800           0
     46223 TIP3     5863     TIP3     OH2      OT      -0.834000       15.9994           0
     46224 TIP3     5863     TIP3     H1       HT       0.417000       1.00800           0
     46225 TIP3     5863     TIP3     H2       HT       0.417000       1.00800           0
     46226 TIP3     5864     TIP3     OH2      OT      -0.834000       15.9994           0
     46227 TIP3     5864     TIP3     H1       HT       0.417000       1.00800           0
     46228 TIP3     5864     TIP3     H2       HT       0.417000       1.00800           0
     46229 TIP3     5865     TIP3     OH2      OT      -0.834000       15.9994           0
     46230 TIP3     5865     TIP3     H1       HT       0.417000       1.00800           0
     46231 TIP3     5865     TIP3     H2       HT       0.417000       1.00800           0
     46232 TIP3     5866     TIP3     OH2      OT      -0.834000       15.9994           0
     46233 TIP3     5866     TIP3     H1       HT       0.417000       1.00800           0
     46234 TIP3     5866     TIP3     H2       HT       0.417000       1.00800           0
     46235 TIP3     5867     TIP3     OH2      OT      -0.834000       15.9994           0
     46236 TIP3     5867     TIP3     H1       HT       0.417000       1.00800           0
     46237 TIP3     5867     TIP3     H2       HT       0.417000       1.00800           0
     46238 TIP3     5868     TIP3     OH2      OT      -0.834000       15.9994           0
     46239 TIP3     5868     TIP3     H1       HT       0.417000       1.00800           0
     46240 TIP3     5868     TIP3     H2       HT       0.417000       1.00800           0
     46241 TIP3     5869     TIP3     OH2      OT      -0.834000       15.9994           0
     46242 TIP3     5869     TIP3     H1       HT       0.417000       1.00800           0
     46243 TIP3     5869     TIP3     H2       HT       0.417000       1.00800           0
     46244 TIP3     5870     TIP3     OH2      OT      -0.834000       15.9994           0
     46245 TIP3     5870     TIP3     H1       HT       0.417000       1.00800           0
     46246 TIP3     5870     TIP3     H2       HT       0.417000       1.00800           0
     46247 TIP3     5871     TIP3     OH2      OT      -0.834000       15.9994           0
     46248 TIP3     5871     TIP3     H1       HT       0.417000       1.00800           0
     46249 TIP3     5871     TIP3     H2       HT       0.417000       1.00800           0
     46250 TIP3     5872     TIP3     OH2      OT      -0.834000       15.9994           0
     46251 TIP3     5872     TIP3     H1       HT       0.417000       1.00800           0
     46252 TIP3     5872     TIP3     H2       HT       0.417000       1.00800           0
     46253 TIP3     5873     TIP3     OH2      OT      -0.834000       15.9994           0
     46254 TIP3     5873     TIP3     H1       HT       0.417000       1.00800           0
     46255 TIP3     5873     TIP3     H2       HT       0.417000       1.00800           0
     46256 TIP3     5874     TIP3     OH2      OT      -0.834000       15.9994           0
     46257 TIP3     5874     TIP3     H1       HT       0.417000       1.00800           0
     46258 TIP3     5874     TIP3     H2       HT       0.417000       1.00800           0
     46259 TIP3     5875     TIP3     OH2      OT      -0.834000       15.9994           0
     46260 TIP3     5875     TIP3     H1       HT       0.417000       1.00800           0
     46261 TIP3     5875     TIP3     H2       HT       0.417000       1.00800           0
     46262 TIP3     5876     TIP3     OH2      OT      -0.834000       15.9994           0
     46263 TIP3     5876     TIP3     H1       HT       0.417000       1.00800           0
     46264 TIP3     5876     TIP3     H2       HT       0.417000       1.00800           0
     46265 TIP3     5877     TIP3     OH2      OT      -0.834000       15.9994           0
     46266 TIP3     5877     TIP3     H1       HT       0.417000       1.00800           0
     46267 TIP3     5877     TIP3     H2       HT       0.417000       1.00800           0
     46268 TIP3     5878     TIP3     OH2      OT      -0.834000       15.9994           0
     46269 TIP3     5878     TIP3     H1       HT       0.417000       1.00800           0
     46270 TIP3     5878     TIP3     H2       HT       0.417000       1.00800           0
     46271 TIP3     5879     TIP3     OH2      OT      -0.834000       15.9994           0
     46272 TIP3     5879     TIP3     H1       HT       0.417000       1.00800           0
     46273 TIP3     5879     TIP3     H2       HT       0.417000       1.00800           0
     46274 TIP3     5880     TIP3     OH2      OT      -0.834000       15.9994           0
     46275 TIP3     5880     TIP3     H1       HT       0.417000       1.00800           0
     46276 TIP3     5880     TIP3     H2       HT       0.417000       1.00800           0
     46277 TIP3     5881     TIP3     OH2      OT      -0.834000       15.9994           0
     46278 TIP3     5881     TIP3     H1       HT       0.417000       1.00800           0
     46279 TIP3     5881     TIP3     H2       HT       0.417000       1.00800           0
     46280 TIP3     5882     TIP3     OH2      OT      -0.834000       15.9994           0
     46281 TIP3     5882     TIP3     H1       HT       0.417000       1.00800           0
     46282 TIP3     5882     TIP3     H2       HT       0.417000       1.00800           0
     46283 TIP3     5883     TIP3     OH2      OT      -0.834000       15.9994           0
     46284 TIP3     5883     TIP3     H1       HT       0.417000       1.00800           0
     46285 TIP3     5883     TIP3     H2       HT       0.417000       1.00800           0
     46286 TIP3     5884     TIP3     OH2      OT      -0.834000       15.9994           0
     46287 TIP3     5884     TIP3     H1       HT       0.417000       1.00800           0
     46288 TIP3     5884     TIP3     H2       HT       0.417000       1.00800           0
     46289 TIP3     5885     TIP3     OH2      OT      -0.834000       15.9994           0
     46290 TIP3     5885     TIP3     H1       HT       0.417000       1.00800           0
     46291 TIP3     5885     TIP3     H2       HT       0.417000       1.00800           0
     46292 TIP3     5886     TIP3     OH2      OT      -0.834000       15.9994           0
     46293 TIP3     5886     TIP3     H1       HT       0.417000       1.00800           0
     46294 TIP3     5886     TIP3     H2       HT       0.417000       1.00800           0
     46295 TIP3     5887     TIP3     OH2      OT      -0.834000       15.9994           0
     46296 TIP3     5887     TIP3     H1       HT       0.417000       1.00800           0
     46297 TIP3     5887     TIP3     H2       HT       0.417000       1.00800           0
     46298 TIP3     5888     TIP3     OH2      OT      -0.834000       15.9994           0
     46299 TIP3     5888     TIP3     H1       HT       0.417000       1.00800           0
     46300 TIP3     5888     TIP3     H2       HT       0.417000       1.00800           0
     46301 TIP3     5889     TIP3     OH2      OT      -0.834000       15.9994           0
     46302 TIP3     5889     TIP3     H1       HT       0.417000       1.00800           0
     46303 TIP3     5889     TIP3     H2       HT       0.417000       1.00800           0
     46304 TIP3     5890     TIP3     OH2      OT      -0.834000       15.9994           0
     46305 TIP3     5890     TIP3     H1       HT       0.417000       1.00800           0
     46306 TIP3     5890     TIP3     H2       HT       0.417000       1.00800           0
     46307 TIP3     5891     TIP3     OH2      OT      -0.834000       15.9994           0
     46308 TIP3     5891     TIP3     H1       HT       0.417000       1.00800           0
     46309 TIP3     5891     TIP3     H2       HT       0.417000       1.00800           0
     46310 TIP3     5892     TIP3     OH2      OT      -0.834000       15.9994           0
     46311 TIP3     5892     TIP3     H1       HT       0.417000       1.00800           0
     46312 TIP3     5892     TIP3     H2       HT       0.417000       1.00800           0
     46313 TIP3     5893     TIP3     OH2      OT      -0.834000       15.9994           0
     46314 TIP3     5893     TIP3     H1       HT       0.417000       1.00800           0
     46315 TIP3     5893     TIP3     H2       HT       0.417000       1.00800           0
     46316 TIP3     5894     TIP3     OH2      OT      -0.834000       15.9994           0
     46317 TIP3     5894     TIP3     H1       HT       0.417000       1.00800           0
     46318 TIP3     5894     TIP3     H2       HT       0.417000       1.00800           0
     46319 TIP3     5895     TIP3     OH2      OT      -0.834000       15.9994           0
     46320 TIP3     5895     TIP3     H1       HT       0.417000       1.00800           0
     46321 TIP3     5895     TIP3     H2       HT       0.417000       1.00800           0
     46322 TIP3     5896     TIP3     OH2      OT      -0.834000       15.9994           0
     46323 TIP3     5896     TIP3     H1       HT       0.417000       1.00800           0
     46324 TIP3     5896     TIP3     H2       HT       0.417000       1.00800           0
     46325 TIP3     5897     TIP3     OH2      OT      -0.834000       15.9994           0
     46326 TIP3     5897     TIP3     H1       HT       0.417000       1.00800           0
     46327 TIP3     5897     TIP3     H2       HT       0.417000       1.00800           0
     46328 TIP3     5898     TIP3     OH2      OT      -0.834000       15.9994           0
     46329 TIP3     5898     TIP3     H1       HT       0.417000       1.00800           0
     46330 TIP3     5898     TIP3     H2       HT       0.417000       1.00800           0
     46331 TIP3     5899     TIP3     OH2      OT      -0.834000       15.9994           0
     46332 TIP3     5899     TIP3     H1       HT       0.417000       1.00800           0
     46333 TIP3     5899     TIP3     H2       HT       0.417000       1.00800           0
     46334 TIP3     5900     TIP3     OH2      OT      -0.834000       15.9994           0
     46335 TIP3     5900     TIP3     H1       HT       0.417000       1.00800           0
     46336 TIP3     5900     TIP3     H2       HT       0.417000       1.00800           0
     46337 TIP3     5901     TIP3     OH2      OT      -0.834000       15.9994           0
     46338 TIP3     5901     TIP3     H1       HT       0.417000       1.00800           0
     46339 TIP3     5901     TIP3     H2       HT       0.417000       1.00800           0
     46340 TIP3     5902     TIP3     OH2      OT      -0.834000       15.9994           0
     46341 TIP3     5902     TIP3     H1       HT       0.417000       1.00800           0
     46342 TIP3     5902     TIP3     H2       HT       0.417000       1.00800           0
     46343 TIP3     5903     TIP3     OH2      OT      -0.834000       15.9994           0
     46344 TIP3     5903     TIP3     H1       HT       0.417000       1.00800           0
     46345 TIP3     5903     TIP3     H2       HT       0.417000       1.00800           0
     46346 TIP3     5904     TIP3     OH2      OT      -0.834000       15.9994           0
     46347 TIP3     5904     TIP3     H1       HT       0.417000       1.00800           0
     46348 TIP3     5904     TIP3     H2       HT       0.417000       1.00800           0
     46349 TIP3     5905     TIP3     OH2      OT      -0.834000       15.9994           0
     46350 TIP3     5905     TIP3     H1       HT       0.417000       1.00800           0
     46351 TIP3     5905     TIP3     H2       HT       0.417000       1.00800           0
     46352 TIP3     5906     TIP3     OH2      OT      -0.834000       15.9994           0
     46353 TIP3     5906     TIP3     H1       HT       0.417000       1.00800           0
     46354 TIP3     5906     TIP3     H2       HT       0.417000       1.00800           0
     46355 TIP3     5907     TIP3     OH2      OT      -0.834000       15.9994           0
     46356 TIP3     5907     TIP3     H1       HT       0.417000       1.00800           0
     46357 TIP3     5907     TIP3     H2       HT       0.417000       1.00800           0
     46358 TIP3     5908     TIP3     OH2      OT      -0.834000       15.9994           0
     46359 TIP3     5908     TIP3     H1       HT       0.417000       1.00800           0
     46360 TIP3     5908     TIP3     H2       HT       0.417000       1.00800           0
     46361 TIP3     5909     TIP3     OH2      OT      -0.834000       15.9994           0
     46362 TIP3     5909     TIP3     H1       HT       0.417000       1.00800           0
     46363 TIP3     5909     TIP3     H2       HT       0.417000       1.00800           0
     46364 TIP3     5910     TIP3     OH2      OT      -0.834000       15.9994           0
     46365 TIP3     5910     TIP3     H1       HT       0.417000       1.00800           0
     46366 TIP3     5910     TIP3     H2       HT       0.417000       1.00800           0
     46367 TIP3     5911     TIP3     OH2      OT      -0.834000       15.9994           0
     46368 TIP3     5911     TIP3     H1       HT       0.417000       1.00800           0
     46369 TIP3     5911     TIP3     H2       HT       0.417000       1.00800           0
     46370 TIP3     5912     TIP3     OH2      OT      -0.834000       15.9994           0
     46371 TIP3     5912     TIP3     H1       HT       0.417000       1.00800           0
     46372 TIP3     5912     TIP3     H2       HT       0.417000       1.00800           0
     46373 TIP3     5913     TIP3     OH2      OT      -0.834000       15.9994           0
     46374 TIP3     5913     TIP3     H1       HT       0.417000       1.00800           0
     46375 TIP3     5913     TIP3     H2       HT       0.417000       1.00800           0
     46376 TIP3     5914     TIP3     OH2      OT      -0.834000       15.9994           0
     46377 TIP3     5914     TIP3     H1       HT       0.417000       1.00800           0
     46378 TIP3     5914     TIP3     H2       HT       0.417000       1.00800           0
     46379 TIP3     5915     TIP3     OH2      OT      -0.834000       15.9994           0
     46380 TIP3     5915     TIP3     H1       HT       0.417000       1.00800           0
     46381 TIP3     5915     TIP3     H2       HT       0.417000       1.00800           0
     46382 TIP3     5916     TIP3     OH2      OT      -0.834000       15.9994           0
     46383 TIP3     5916     TIP3     H1       HT       0.417000       1.00800           0
     46384 TIP3     5916     TIP3     H2       HT       0.417000       1.00800           0
     46385 TIP3     5917     TIP3     OH2      OT      -0.834000       15.9994           0
     46386 TIP3     5917     TIP3     H1       HT       0.417000       1.00800           0
     46387 TIP3     5917     TIP3     H2       HT       0.417000       1.00800           0
     46388 TIP3     5918     TIP3     OH2      OT      -0.834000       15.9994           0
     46389 TIP3     5918     TIP3     H1       HT       0.417000       1.00800           0
     46390 TIP3     5918     TIP3     H2       HT       0.417000       1.00800           0
     46391 TIP3     5919     TIP3     OH2      OT      -0.834000       15.9994           0
     46392 TIP3     5919     TIP3     H1       HT       0.417000       1.00800           0
     46393 TIP3     5919     TIP3     H2       HT       0.417000       1.00800           0
     46394 TIP3     5920     TIP3     OH2      OT      -0.834000       15.9994           0
     46395 TIP3     5920     TIP3     H1       HT       0.417000       1.00800           0
     46396 TIP3     5920     TIP3     H2       HT       0.417000       1.00800           0
     46397 TIP3     5921     TIP3     OH2      OT      -0.834000       15.9994           0
     46398 TIP3     5921     TIP3     H1       HT       0.417000       1.00800           0
     46399 TIP3     5921     TIP3     H2       HT       0.417000       1.00800           0
     46400 TIP3     5922     TIP3     OH2      OT      -0.834000       15.9994           0
     46401 TIP3     5922     TIP3     H1       HT       0.417000       1.00800           0
     46402 TIP3     5922     TIP3     H2       HT       0.417000       1.00800           0
     46403 TIP3     5923     TIP3     OH2      OT      -0.834000       15.9994           0
     46404 TIP3     5923     TIP3     H1       HT       0.417000       1.00800           0
     46405 TIP3     5923     TIP3     H2       HT       0.417000       1.00800           0
     46406 TIP3     5924     TIP3     OH2      OT      -0.834000       15.9994           0
     46407 TIP3     5924     TIP3     H1       HT       0.417000       1.00800           0
     46408 TIP3     5924     TIP3     H2       HT       0.417000       1.00800           0
     46409 TIP3     5925     TIP3     OH2      OT      -0.834000       15.9994           0
     46410 TIP3     5925     TIP3     H1       HT       0.417000       1.00800           0
     46411 TIP3     5925     TIP3     H2       HT       0.417000       1.00800           0
     46412 TIP3     5926     TIP3     OH2      OT      -0.834000       15.9994           0
     46413 TIP3     5926     TIP3     H1       HT       0.417000       1.00800           0
     46414 TIP3     5926     TIP3     H2       HT       0.417000       1.00800           0
     46415 TIP3     5927     TIP3     OH2      OT      -0.834000       15.9994           0
     46416 TIP3     5927     TIP3     H1       HT       0.417000       1.00800           0
     46417 TIP3     5927     TIP3     H2       HT       0.417000       1.00800           0
     46418 TIP3     5928     TIP3     OH2      OT      -0.834000       15.9994           0
     46419 TIP3     5928     TIP3     H1       HT       0.417000       1.00800           0
     46420 TIP3     5928     TIP3     H2       HT       0.417000       1.00800           0
     46421 TIP3     5929     TIP3     OH2      OT      -0.834000       15.9994           0
     46422 TIP3     5929     TIP3     H1       HT       0.417000       1.00800           0
     46423 TIP3     5929     TIP3     H2       HT       0.417000       1.00800           0
     46424 TIP3     5930     TIP3     OH2      OT      -0.834000       15.9994           0
     46425 TIP3     5930     TIP3     H1       HT       0.417000       1.00800           0
     46426 TIP3     5930     TIP3     H2       HT       0.417000       1.00800           0
     46427 TIP3     5931     TIP3     OH2      OT      -0.834000       15.9994           0
     46428 TIP3     5931     TIP3     H1       HT       0.417000       1.00800           0
     46429 TIP3     5931     TIP3     H2       HT       0.417000       1.00800           0
     46430 TIP3     5932     TIP3     OH2      OT      -0.834000       15.9994           0
     46431 TIP3     5932     TIP3     H1       HT       0.417000       1.00800           0
     46432 TIP3     5932     TIP3     H2       HT       0.417000       1.00800           0
     46433 IONS     1        POT      POT      POT       1.00000       39.0983           0
     46434 IONS     2        POT      POT      POT       1.00000       39.0983           0
     46435 IONS     3        POT      POT      POT       1.00000       39.0983           0
     46436 IONS     4        POT      POT      POT       1.00000       39.0983           0
     46437 IONS     5        POT      POT      POT       1.00000       39.0983           0
     46438 IONS     6        POT      POT      POT       1.00000       39.0983           0
     46439 IONS     7        POT      POT      POT       1.00000       39.0983           0
     46440 IONS     8        POT      POT      POT       1.00000       39.0983           0
     46441 IONS     9        POT      POT      POT       1.00000       39.0983           0
     46442 IONS     10       POT      POT      POT       1.00000       39.0983           0
     46443 IONS     11       POT      POT      POT       1.00000       39.0983           0
     46444 IONS     12       POT      POT      POT       1.00000       39.0983           0
     46445 IONS     13       POT      POT      POT       1.00000       39.0983           0
     46446 IONS     14       POT      POT      POT       1.00000       39.0983           0
     46447 IONS     15       POT      POT      POT       1.00000       39.0983           0
     46448 IONS     16       POT      POT      POT       1.00000       39.0983           0
     46449 IONS     17       POT      POT      POT       1.00000       39.0983           0
     46450 IONS     18       POT      POT      POT       1.00000       39.0983           0
     46451 IONS     19       POT      POT      POT       1.00000       39.0983           0
     46452 IONS     20       POT      POT      POT       1.00000       39.0983           0
     46453 IONS     21       POT      POT      POT       1.00000       39.0983           0
     46454 IONS     22       POT      POT      POT       1.00000       39.0983           0
     46455 IONS     23       POT      POT      POT       1.00000       39.0983           0
     46456 IONS     24       POT      POT      POT       1.00000       39.0983           0
     46457 IONS     25       POT      POT      POT       1.00000       39.0983           0
     46458 IONS     26       POT      POT      POT       1.00000       39.0983           0
     46459 IONS     27       POT      POT      POT       1.00000       39.0983           0
     46460 IONS     28       POT      POT      POT       1.00000       39.0983           0
     46461 IONS     29       POT      POT      POT       1.00000       39.0983           0
     46462 IONS     30       POT      POT      POT       1.00000       39.0983           0
     46463 IONS     31       POT      POT      POT       1.00000       39.0983           0
     46464 IONS     32       POT      POT      POT       1.00000       39.0983           0
     46465 IONS     33       POT      POT      POT       1.00000       39.0983           0
     46466 IONS     34       POT      POT      POT       1.00000       39.0983           0
     46467 IONS     35       POT      POT      POT       1.00000       39.0983           0
     46468 IONS     36       POT      POT      POT       1.00000       39.0983           0
     46469 IONS     37       POT      POT      POT       1.00000       39.0983           0
     46470 IONS     38       POT      POT      POT       1.00000       39.0983           0
     46471 IONS     39       POT      POT      POT       1.00000       39.0983           0
     46472 IONS     40       POT      POT      POT       1.00000       39.0983           0
     46473 IONS     41       POT      POT      POT       1.00000       39.0983           0
     46474 IONS     42       POT      POT      POT       1.00000       39.0983           0
     46475 IONS     43       POT      POT      POT       1.00000       39.0983           0
     46476 IONS     44       POT      POT      POT       1.00000       39.0983           0
     46477 IONS     45       POT      POT      POT       1.00000       39.0983           0
     46478 IONS     46       POT      POT      POT       1.00000       39.0983           0
     46479 IONS     47       POT      POT      POT       1.00000       39.0983           0
     46480 IONS     48       POT      POT      POT       1.00000       39.0983           0
     46481 IONS     49       POT      POT      POT       1.00000       39.0983           0
     46482 IONS     50       POT      POT      POT       1.00000       39.0983           0
     46483 IONS     51       POT      POT      POT       1.00000       39.0983           0
     46484 IONS     52       POT      POT      POT       1.00000       39.0983           0
     46485 IONS     53       POT      POT      POT       1.00000       39.0983           0
     46486 IONS     54       POT      POT      POT       1.00000       39.0983           0
     46487 IONS     55       POT      POT      POT       1.00000       39.0983           0
     46488 IONS     56       POT      POT      POT       1.00000       39.0983           0
     46489 IONS     57       POT      POT      POT       1.00000       39.0983           0
     46490 IONS     58       POT      POT      POT       1.00000       39.0983           0
     46491 IONS     59       CLA      CLA      CLA      -1.00000       35.4500           0
     46492 IONS     60       CLA      CLA      CLA      -1.00000       35.4500           0
     46493 IONS     61       CLA      CLA      CLA      -1.00000       35.4500           0
     46494 IONS     62       CLA      CLA      CLA      -1.00000       35.4500           0
     46495 IONS     63       CLA      CLA      CLA      -1.00000       35.4500           0
     46496 IONS     64       CLA      CLA      CLA      -1.00000       35.4500           0
     46497 IONS     65       CLA      CLA      CLA      -1.00000       35.4500           0
     46498 IONS     66       CLA      CLA      CLA      -1.00000       35.4500           0
     46499 IONS     67       CLA      CLA      CLA      -1.00000       35.4500           0
     46500 IONS     68       CLA      CLA      CLA      -1.00000       35.4500           0
     46501 IONS     69       CLA      CLA      CLA      -1.00000       35.4500           0
     46502 IONS     70       CLA      CLA      CLA      -1.00000       35.4500           0
     46503 IONS     71       CLA      CLA      CLA      -1.00000       35.4500           0
     46504 IONS     72       CLA      CLA      CLA      -1.00000       35.4500           0

     46216 !NBOND: bonds
         1         5         1         9         1        13         5         6
         5         7         5         8         9        10         9        11
         9        12        13        14        13        15        13        16
         1         2         2         3         2         4         2        17
        17        18        17        19        17        23        24        25
        23        20        20        24        20        21        20        22
        25        26        25        27        25        28        28        29
        28        36        28        30        36        37        36        38
        36        39        30        31        31        33        31        32
        33        34        33        35        33        45        45        46
        45        47        45        48        48        49        48        50
        48        51        51        52        51        53        51        54
        54        55        54        56        54        57        57        58
        57        59        57        60        60        61        60        62
        60        63        63        64        63        65        65        66
        65        67        67        68        67        69        67        70
        70        71        70        72        70        73        73        74
        73        75        73        76        76        77        76        78
        76        79        79        80        79        81        79        82
        82        83        82        84        82        85        85        86
        85        87        85        88        88        89        88        90
        88        91        39        40        40        42        40        41
        42        43        42        44        42        92        92        93
        92        94        92        95        95        96        95        97
        95        98        98        99        98       100        98       101
       101       102       101       103       101       104       104       105
       104       106       104       107       107       108       107       109
       107       110       110       111       110       112       110       113
       113       114       113       115       113       116       116       117
       116       118       116       119       119       120       119       121
       119       122       122       123       122       124       122       125
       125       126       125       127       125       128       128       129
       128       130       128       131       131       132       131       133
       131       134       135       136       135       137       135       138
       135       139       143       141       141       139       141       142
       139       140       139       144       152       151       144       145
       144       146       144       150       150       147       147       151
       147       148       147       149       152       153       152       154
       152       155       155       156       155       163       155       157
       163       164       163       165       163       166       157       158
       158       160       158       159       160       161       160       162
       160       172       172       173       172       174       172       175
       175       176       175       177       175       178       178       179
       178       180       178       181       181       182       181       183
       181       184       184       185       184       186       184       187
       187       188       187       189       187       190       190       191
       190       192       192       193       192       194       194       195
       194       196       194       197       197       198       197       199
       197       200       200       201       200       202       200       203
       203       204       203       205       203       206       206       207
       206       208       206       209       209       210       209       211
       209       212       212       213       212       214       212       215
       215       216       215       217       215       218       166       167
       167       169       167       168       169       170       169       171
       169       219       219       220       219       221       219       222
       222       223       222       224       222       225       225       226
       225       227       225       228       228       229       228       230
       228       231       231       232       231       233       231       234
       234       235       234       236       234       237       237       238
       237       239       237       240       240       241       240       242
       240       243       243       244       243       245       243       246
       246       247       246       248       246       249       249       250
       249       251       249       252       252       253       252       254
       252       255       255       256       255       257       255       258
       258       259       258       260       258       261       262       266
       262       270       262       274       266       267       266       268
       266       269       270       271       270       272       270       273
       274       275       274       276       274       277       262       263
       263       264       263       265       263       278       278       279
       278       280       278       284       285       286       284       281
       281       285       281       282       281       283       286       287
       286       288       286       289       289       290       289       297
       289       291       297       298       297       299       297       300
       291       292       292       294       292       293       294       295
       294       296       294       306       306       307       306       308
       306       309       309       310       309       311       309       312
       312       313       312       314       312       315       315       316
       315       317       315       318       318       319       318       320
       318       321       321       322       321       323       321       324
       324       325       324       326       326       327       326       328
       328       329       328       330       328       331       331       332
       331       333       331       334       334       335       334       336
       334       337       337       338       337       339       337       340
       340       341       340       342       340       343       343       344
       343       345       343       346       346       347       346       348
       346       349       349       350       349       351       349       352
       300       301       301       303       301       302       303       304
       303       305       303       353       353       354       353       355
       353       356       356       357       356       358       356       359
       359       360       359       361       359       362       362       363
       362       364       362       365       365       366       365       367
       365       368       368       369       368       370       368       371
       371       372       371       373       371       374       374       375
       374       376       374       377       377       378       377       379
       377       380       380       381       380       382       380       383
       383       384       383       385       383       386       386       387
       386       388       386       389       389       390       389       391
       389       392       392       393       392       394       392       395
       396       400       396       404       396       408       400       401
       400       402       400       403       404       405       404       406
       404       407       408       409       408       410       408       411
       396       397       397       398       397       399       397       412
       412       413       412       414       412       418       419       420
       418       415       415       419       415       416       415       417
       420       421       420       422       420       423       423       424
       423       431       423       425       431       432       431       433
       431       434       425       426       426       428       426       427
       428       429       428       430       428       440       440       441
       440       442       440       443       443       444       443       445
       443       446       446       447       446       448       446       449
       449       450       449       451       449       452       452       453
       452       454       452       455       455       456       455       457
       455       458       458       459       458       460       460       461
       460       462       462       463       462       464       462       465
       465       466       465       467       465       468       468       469
       468       470       468       471       471       472       471       473
       471       474       474       475       474       476       474       477
       477       478       477       479       477       480       480       481
       480       482       480       483       483       484       483       485
       483       486       434       435       435       437       435       436
       437       438       437       439       437       487       487       488
       487       489       487       490       490       491       490       492
       490       493       493       494       493       495       493       496
       496       497       496       498       496       499       499       500
       499       501       499       502       502       503       502       504
       502       505       505       506       505       507       505       508
       508       509       508       510       508       511       511       512
       511       513       511       514       514       515       514       516
       514       517       517       518       517       519       517       520
       520       521       520       522       520       523       523       524
       523       525       523       526       526       527       526       528
       526       529       530       534       530       538       530       542
       534       535       534       536       534       537       538       539
       538       540       538       541       542       543       542       544
       542       545       530       531       531       532       531       533
       531       546       546       547       546       548       546       552
       553       554       552       549       549       553       549       550
       549       551       554       555       554       556       554       557
       557       558       557       565       557       559       565       566
       565       567       565       568       559       560       560       562
       560       561       562       563       562       564       562       574
       574       575       574       576       574       577       577       578
       577       579       577       580       580       581       580       582
       580       583       583       584       583       585       583       586
       586       587       586       588       586       589       589       590
       589       591       589       592       592       593       592       594
       594       595       594       596       596       597       596       598
       596       599       599       600       599       601       599       602
       602       603       602       604       602       605       605       606
       605       607       605       608       608       609       608       610
       608       611       611       612       611       613       611       614
       614       615       614       616       614       617       617       618
       617       619       617       620       568       569       569       571
       569       570       571       572       571       573       571       621
       621       622       621       623       621       624       624       625
       624       626       624       627       627       628       627       629
       627       630       630       631       630       632       630       633
       633       634       633       635       633       636       636       637
       636       638       636       639       639       640       639       641
       639       642       642       643       642       644       642       645
       645       646       645       647       645       648       648       649
       648       650       648       651       651       652       651       653
       651       654       654       655       654       656       654       657
       657       658       657       659       657       660       660       661
       660       662       660       663       664       668       664       672
       664       676       668       669       668       670       668       671
       672       673       672       674       672       675       676       677
       676       678       676       679       664       665       665       666
       665       667       665       680       680       681       680       682
       680       686       687       688       686       683       683       687
       683       684       683       685       688       689       688       690
       688       691       691       692       691       699       691       693
       699       700       699       701       699       702       693       694
       694       696       694       695       696       697       696       698
       696       708       708       709       708       710       708       711
       711       712       711       713       711       714       714       715
       714       716       714       717       717       718       717       719
       717       720       720       721       720       722       720       723
       723       724       723       725       723       726       726       727
       726       728       728       729       728       730       730       731
       730       732       730       733       733       734       733       735
       733       736       736       737       736       738       736       739
       739       740       739       741       739       742       742       743
       742       744       742       745       745       746       745       747
       745       748       748       749       748       750       748       751
       751       752       751       753       751       754       702       703
       703       705       703       704       705       706       705       707
       705       755       755       756       755       757       755       758
       758       759       758       760       758       761       761       762
       761       763       761       764       764       765       764       766
       764       767       767       768       767       769       767       770
       770       771       770       772       770       773       773       774
       773       775       773       776       776       777       776       778
       776       779       779       780       779       781       779       782
       782       783       782       784       782       785       785       786
       785       787       785       788       788       789       788       790
       788       791       791       792       791       793       791       794
       794       795       794       796       794       797       798       802
       798       806       798       810       802       803       802       804
       802       805       806       807       806       808       806       809
       810       811       810       812       810       813       798       799
       799       800       799       801       799       814       814       815
       814       816       814       820       821       822       820       817
       817       821       817       818       817       819       822       823
       822       824       822       825       825       826       825       833
       825       827       833       834       833       835       833       836
       827       828       828       830       828       829       830       831
       830       832       830       842       842       843       842       844
       842       845       845       846       845       847       845       848
       848       849       848       850       848       851       851       852
       851       853       851       854       854       855       854       856
       854       857       857       858       857       859       857       860
       860       861       860       862       862       863       862       864
       864       865       864       866       864       867       867       868
       867       869       867       870       870       871       870       872
       870       873       873       874       873       875       873       876
       876       877       876       878       876       879       879       880
       879       881       879       882       882       883       882       884
       882       885       885       886       885       887       885       888
       836       837       837       839       837       838       839       840
       839       841       839       889       889       890       889       891
       889       892       892       893       892       894       892       895
       895       896       895       897       895       898       898       899
       898       900       898       901       901       902       901       903
       901       904       904       905       904       906       904       907
       907       908       907       909       907       910       910       911
       910       912       910       913       913       914       913       915
       913       916       916       917       916       918       916       919
       919       920       919       921       919       922       922       923
       922       924       922       925       925       926       925       927
       925       928       928       929       928       930       928       931
       932       936       932       940       932       944       936       937
       936       938       936       939       940       941       940       942
       940       943       944       945       944       946       944       947
       932       933       933       934       933       935       933       948
       948       949       948       950       948       954       955       956
       954       951       951       955       951       952       951       953
       956       957       956       958       956       959       959       960
       959       967       959       961       967       968       967       969
       967       970       961       962       962       964       962       963
       964       965       964       966       964       976       976       977
       976       978       976       979       979       980       979       981
       979       982       982       983       982       984       982       985
       985       986       985       987       985       988       988       989
       988       990       988       991       991       992       991       993
       991       994       994       995       994       996       996       997
       996       998       998       999       998      1000       998      1001
      1001      1002      1001      1003      1001      1004      1004      1005
      1004      1006      1004      1007      1007      1008      1007      1009
      1007      1010      1010      1011      1010      1012      1010      1013
      1013      1014      1013      1015      1013      1016      1016      1017
      1016      1018      1016      1019      1019      1020      1019      1021
      1019      1022       970       971       971       973       971       972
       973       974       973       975       973      1023      1023      1024
      1023      1025      1023      1026      1026      1027      1026      1028
      1026      1029      1029      1030      1029      1031      1029      1032
      1032      1033      1032      1034      1032      1035      1035      1036
      1035      1037      1035      1038      1038      1039      1038      1040
      1038      1041      1041      1042      1041      1043      1041      1044
      1044      1045      1044      1046      1044      1047      1047      1048
      1047      1049      1047      1050      1050      1051      1050      1052
      1050      1053      1053      1054      1053      1055      1053      1056
      1056      1057      1056      1058      1056      1059      1059      1060
      1059      1061      1059      1062      1062      1063      1062      1064
      1062      1065      1066      1070      1066      1074      1066      1078
      1070      1071      1070      1072      1070      1073      1074      1075
      1074      1076      1074      1077      1078      1079      1078      1080
      1078      1081      1066      1067      1067      1068      1067      1069
      1067      1082      1082      1083      1082      1084      1082      1088
      1089      1090      1088      1085      1085      1089      1085      1086
      1085      1087      1090      1091      1090      1092      1090      1093
      1093      1094      1093      1101      1093      1095      1101      1102
      1101      1103      1101      1104      1095      1096      1096      1098
      1096      1097      1098      1099      1098      1100      1098      1110
      1110      1111      1110      1112      1110      1113      1113      1114
      1113      1115      1113      1116      1116      1117      1116      1118
      1116      1119      1119      1120      1119      1121      1119      1122
      1122      1123      1122      1124      1122      1125      1125      1126
      1125      1127      1125      1128      1128      1129      1128      1130
      1130      1131      1130      1132      1132      1133      1132      1134
      1132      1135      1135      1136      1135      1137      1135      1138
      1138      1139      1138      1140      1138      1141      1141      1142
      1141      1143      1141      1144      1144      1145      1144      1146
      1144      1147      1147      1148      1147      1149      1147      1150
      1150      1151      1150      1152      1150      1153      1153      1154
      1153      1155      1153      1156      1104      1105      1105      1107
      1105      1106      1107      1108      1107      1109      1107      1157
      1157      1158      1157      1159      1157      1160      1160      1161
      1160      1162      1160      1163      1163      1164      1163      1165
      1163      1166      1166      1167      1166      1168      1166      1169
      1169      1170      1169      1171      1169      1172      1172      1173
      1172      1174      1172      1175      1175      1176      1175      1177
      1175      1178      1178      1179      1178      1180      1178      1181
      1181      1182      1181      1183      1181      1184      1184      1185
      1184      1186      1184      1187      1187      1188      1187      1189
      1187      1190      1190      1191      1190      1192      1190      1193
      1193      1194      1193      1195      1193      1196      1196      1197
      1196      1198      1196      1199      1200      1204      1200      1208
      1200      1212      1204      1205      1204      1206      1204      1207
      1208      1209      1208      1210      1208      1211      1212      1213
      1212      1214      1212      1215      1200      1201      1201      1202
      1201      1203      1201      1216      1216      1217      1216      1218
      1216      1222      1223      1224      1222      1219      1219      1223
      1219      1220      1219      1221      1224      1225      1224      1226
      1224      1227      1227      1228      1227      1235      1227      1229
      1235      1236      1235      1237      1235      1238      1229      1230
      1230      1232      1230      1231      1232      1233      1232      1234
      1232      1244      1244      1245      1244      1246      1244      1247
      1247      1248      1247      1249      1247      1250      1250      1251
      1250      1252      1250      1253      1253      1254      1253      1255
      1253      1256      1256      1257      1256      1258      1256      1259
      1259      1260      1259      1261      1259      1262      1262      1263
      1262      1264      1264      1265      1264      1266      1266      1267
      1266      1268      1266      1269      1269      1270      1269      1271
      1269      1272      1272      1273      1272      1274      1272      1275
      1275      1276      1275      1277      1275      1278      1278      1279
      1278      1280      1278      1281      1281      1282      1281      1283
      1281      1284      1284      1285      1284      1286      1284      1287
      1287      1288      1287      1289      1287      1290      1238      1239
      1239      1241      1239      1240      1241      1242      1241      1243
      1241      1291      1291      1292      1291      1293      1291      1294
      1294      1295      1294      1296      1294      1297      1297      1298
      1297      1299      1297      1300      1300      1301      1300      1302
      1300      1303      1303      1304      1303      1305      1303      1306
      1306      1307      1306      1308      1306      1309      1309      1310
      1309      1311      1309      1312      1312      1313      1312      1314
      1312      1315      1315      1316      1315      1317      1315      1318
      1318      1319      1318      1320      1318      1321      1321      1322
      1321      1323      1321      1324      1324      1325      1324      1326
      1324      1327      1327      1328      1327      1329      1327      1330
      1330      1331      1330      1332      1330      1333      1334      1338
      1334      1342      1334      1346      1338      1339      1338      1340
      1338      1341      1342      1343      1342      1344      1342      1345
      1346      1347      1346      1348      1346      1349      1334      1335
      1335      1336      1335      1337      1335      1350      1350      1351
      1350      1352      1350      1356      1357      1358      1356      1353
      1353      1357      1353      1354      1353      1355      1358      1359
      1358      1360      1358      1361      1361      1362      1361      1369
      1361      1363      1369      1370      1369      1371      1369      1372
      1363      1364      1364      1366      1364      1365      1366      1367
      1366      1368      1366      1378      1378      1379      1378      1380
      1378      1381      1381      1382      1381      1383      1381      1384
      1384      1385      1384      1386      1384      1387      1387      1388
      1387      1389      1387      1390      1390      1391      1390      1392
      1390      1393      1393      1394      1393      1395      1393      1396
      1396      1397      1396      1398      1398      1399      1398      1400
      1400      1401      1400      1402      1400      1403      1403      1404
      1403      1405      1403      1406      1406      1407      1406      1408
      1406      1409      1409      1410      1409      1411      1409      1412
      1412      1413      1412      1414      1412      1415      1415      1416
      1415      1417      1415      1418      1418      1419      1418      1420
      1418      1421      1421      1422      1421      1423      1421      1424
      1372      1373      1373      1375      1373      1374      1375      1376
      1375      1377      1375      1425      1425      1426      1425      1427
      1425      1428      1428      1429      1428      1430      1428      1431
      1431      1432      1431      1433      1431      1434      1434      1435
      1434      1436      1434      1437      1437      1438      1437      1439
      1437      1440      1440      1441      1440      1442      1440      1443
      1443      1444      1443      1445      1443      1446      1446      1447
      1446      1448      1446      1449      1449      1450      1449      1451
      1449      1452      1452      1453      1452      1454      1452      1455
      1455      1456      1455      1457      1455      1458      1458      1459
      1458      1460      1458      1461      1461      1462      1461      1463
      1461      1464      1464      1465      1464      1466      1464      1467
      1468      1472      1468      1476      1468      1480      1472      1473
      1472      1474      1472      1475      1476      1477      1476      1478
      1476      1479      1480      1481      1480      1482      1480      1483
      1468      1469      1469      1470      1469      1471      1469      1484
      1484      1485      1484      1486      1484      1490      1491      1492
      1490      1487      1487      1491      1487      1488      1487      1489
      1492      1493      1492      1494      1492      1495      1495      1496
      1495      1503      1495      1497      1503      1504      1503      1505
      1503      1506      1497      1498      1498      1500      1498      1499
      1500      1501      1500      1502      1500      1512      1512      1513
      1512      1514      1512      1515      1515      1516      1515      1517
      1515      1518      1518      1519      1518      1520      1518      1521
      1521      1522      1521      1523      1521      1524      1524      1525
      1524      1526      1524      1527      1527      1528      1527      1529
      1527      1530      1530      1531      1530      1532      1532      1533
      1532      1534      1534      1535      1534      1536      1534      1537
      1537      1538      1537      1539      1537      1540      1540      1541
      1540      1542      1540      1543      1543      1544      1543      1545
      1543      1546      1546      1547      1546      1548      1546      1549
      1549      1550      1549      1551      1549      1552      1552      1553
      1552      1554      1552      1555      1555      1556      1555      1557
      1555      1558      1506      1507      1507      1509      1507      1508
      1509      1510      1509      1511      1509      1559      1559      1560
      1559      1561      1559      1562      1562      1563      1562      1564
      1562      1565      1565      1566      1565      1567      1565      1568
      1568      1569      1568      1570      1568      1571      1571      1572
      1571      1573      1571      1574      1574      1575      1574      1576
      1574      1577      1577      1578      1577      1579      1577      1580
      1580      1581      1580      1582      1580      1583      1583      1584
      1583      1585      1583      1586      1586      1587      1586      1588
      1586      1589      1589      1590      1589      1591      1589      1592
      1592      1593      1592      1594      1592      1595      1595      1596
      1595      1597      1595      1598      1598      1599      1598      1600
      1598      1601      1602      1606      1602      1610      1602      1614
      1606      1607      1606      1608      1606      1609      1610      1611
      1610      1612      1610      1613      1614      1615      1614      1616
      1614      1617      1602      1603      1603      1604      1603      1605
      1603      1618      1618      1619      1618      1620      1618      1624
      1625      1626      1624      1621      1621      1625      1621      1622
      1621      1623      1626      1627      1626      1628      1626      1629
      1629      1630      1629      1637      1629      1631      1637      1638
      1637      1639      1637      1640      1631      1632      1632      1634
      1632      1633      1634      1635      1634      1636      1634      1646
      1646      1647      1646      1648      1646      1649      1649      1650
      1649      1651      1649      1652      1652      1653      1652      1654
      1652      1655      1655      1656      1655      1657      1655      1658
      1658      1659      1658      1660      1658      1661      1661      1662
      1661      1663      1661      1664      1664      1665      1664      1666
      1666      1667      1666      1668      1668      1669      1668      1670
      1668      1671      1671      1672      1671      1673      1671      1674
      1674      1675      1674      1676      1674      1677      1677      1678
      1677      1679      1677      1680      1680      1681      1680      1682
      1680      1683      1683      1684      1683      1685      1683      1686
      1686      1687      1686      1688      1686      1689      1689      1690
      1689      1691      1689      1692      1640      1641      1641      1643
      1641      1642      1643      1644      1643      1645      1643      1693
      1693      1694      1693      1695      1693      1696      1696      1697
      1696      1698      1696      1699      1699      1700      1699      1701
      1699      1702      1702      1703      1702      1704      1702      1705
      1705      1706      1705      1707      1705      1708      1708      1709
      1708      1710      1708      1711      1711      1712      1711      1713
      1711      1714      1714      1715      1714      1716      1714      1717
      1717      1718      1717      1719      1717      1720      1720      1721
      1720      1722      1720      1723      1723      1724      1723      1725
      1723      1726      1726      1727      1726      1728      1726      1729
      1729      1730      1729      1731      1729      1732      1732      1733
      1732      1734      1732      1735      1736      1740      1736      1744
      1736      1748      1740      1741      1740      1742      1740      1743
      1744      1745      1744      1746      1744      1747      1748      1749
      1748      1750      1748      1751      1736      1737      1737      1738
      1737      1739      1737      1752      1752      1753      1752      1754
      1752      1758      1759      1760      1758      1755      1755      1759
      1755      1756      1755      1757      1760      1761      1760      1762
      1760      1763      1763      1764      1763      1771      1763      1765
      1771      1772      1771      1773      1771      1774      1765      1766
      1766      1768      1766      1767      1768      1769      1768      1770
      1768      1780      1780      1781      1780      1782      1780      1783
      1783      1784      1783      1785      1783      1786      1786      1787
      1786      1788      1786      1789      1789      1790      1789      1791
      1789      1792      1792      1793      1792      1794      1792      1795
      1795      1796      1795      1797      1795      1798      1798      1799
      1798      1800      1800      1801      1800      1802      1802      1803
      1802      1804      1802      1805      1805      1806      1805      1807
      1805      1808      1808      1809      1808      1810      1808      1811
      1811      1812      1811      1813      1811      1814      1814      1815
      1814      1816      1814      1817      1817      1818      1817      1819
      1817      1820      1820      1821      1820      1822      1820      1823
      1823      1824      1823      1825      1823      1826      1774      1775
      1775      1777      1775      1776      1777      1778      1777      1779
      1777      1827      1827      1828      1827      1829      1827      1830
      1830      1831      1830      1832      1830      1833      1833      1834
      1833      1835      1833      1836      1836      1837      1836      1838
      1836      1839      1839      1840      1839      1841      1839      1842
      1842      1843      1842      1844      1842      1845      1845      1846
      1845      1847      1845      1848      1848      1849      1848      1850
      1848      1851      1851      1852      1851      1853      1851      1854
      1854      1855      1854      1856      1854      1857      1857      1858
      1857      1859      1857      1860      1860      1861      1860      1862
      1860      1863      1863      1864      1863      1865      1863      1866
      1866      1867      1866      1868      1866      1869      1870      1871
      1870      1872      1870      1873      1870      1874      1878      1876
      1876      1874      1876      1877      1874      1875      1874      1879
      1887      1886      1879      1880      1879      1881      1879      1885
      1885      1882      1882      1886      1882      1883      1882      1884
      1887      1888      1887      1889      1887      1890      1890      1891
      1890      1898      1890      1892      1898      1899      1898      1900
      1898      1901      1892      1893      1893      1895      1893      1894
      1895      1896      1895      1897      1895      1907      1907      1908
      1907      1909      1907      1910      1910      1911      1910      1912
      1910      1913      1913      1914      1913      1915      1913      1916
      1916      1917      1916      1918      1916      1919      1919      1920
      1919      1921      1919      1922      1922      1923      1922      1924
      1922      1925      1925      1926      1925      1927      1927      1928
      1927      1929      1929      1930      1929      1931      1929      1932
      1932      1933      1932      1934      1932      1935      1935      1936
      1935      1937      1935      1938      1938      1939      1938      1940
      1938      1941      1941      1942      1941      1943      1941      1944
      1944      1945      1944      1946      1944      1947      1947      1948
      1947      1949      1947      1950      1950      1951      1950      1952
      1950      1953      1901      1902      1902      1904      1902      1903
      1904      1905      1904      1906      1904      1954      1954      1955
      1954      1956      1954      1957      1957      1958      1957      1959
      1957      1960      1960      1961      1960      1962      1960      1963
      1963      1964      1963      1965      1963      1966      1966      1967
      1966      1968      1966      1969      1969      1970      1969      1971
      1969      1972      1972      1973      1972      1974      1972      1975
      1975      1976      1975      1977      1975      1978      1978      1979
      1978      1980      1978      1981      1981      1982      1981      1983
      1981      1984      1984      1985      1984      1986      1984      1987
      1987      1988      1987      1989      1987      1990      1990      1991
      1990      1992      1990      1993      1993      1994      1993      1995
      1993      1996      1997      2001      1997      2005      1997      2009
      2001      2002      2001      2003      2001      2004      2005      2006
      2005      2007      2005      2008      2009      2010      2009      2011
      2009      2012      1997      1998      1998      1999      1998      2000
      1998      2013      2013      2014      2013      2015      2013      2019
      2020      2021      2019      2016      2016      2020      2016      2017
      2016      2018      2021      2022      2021      2023      2021      2024
      2024      2025      2024      2032      2024      2026      2032      2033
      2032      2034      2032      2035      2026      2027      2027      2029
      2027      2028      2029      2030      2029      2031      2029      2041
      2041      2042      2041      2043      2041      2044      2044      2045
      2044      2046      2044      2047      2047      2048      2047      2049
      2047      2050      2050      2051      2050      2052      2050      2053
      2053      2054      2053      2055      2053      2056      2056      2057
      2056      2058      2056      2059      2059      2060      2059      2061
      2061      2062      2061      2063      2063      2064      2063      2065
      2063      2066      2066      2067      2066      2068      2066      2069
      2069      2070      2069      2071      2069      2072      2072      2073
      2072      2074      2072      2075      2075      2076      2075      2077
      2075      2078      2078      2079      2078      2080      2078      2081
      2081      2082      2081      2083      2081      2084      2084      2085
      2084      2086      2084      2087      2035      2036      2036      2038
      2036      2037      2038      2039      2038      2040      2038      2088
      2088      2089      2088      2090      2088      2091      2091      2092
      2091      2093      2091      2094      2094      2095      2094      2096
      2094      2097      2097      2098      2097      2099      2097      2100
      2100      2101      2100      2102      2100      2103      2103      2104
      2103      2105      2103      2106      2106      2107      2106      2108
      2106      2109      2109      2110      2109      2111      2109      2112
      2112      2113      2112      2114      2112      2115      2115      2116
      2115      2117      2115      2118      2118      2119      2118      2120
      2118      2121      2121      2122      2121      2123      2121      2124
      2124      2125      2124      2126      2124      2127      2127      2128
      2127      2129      2127      2130      2131      2135      2131      2139
      2131      2143      2135      2136      2135      2137      2135      2138
      2139      2140      2139      2141      2139      2142      2143      2144
      2143      2145      2143      2146      2131      2132      2132      2133
      2132      2134      2132      2147      2147      2148      2147      2149
      2147      2153      2154      2155      2153      2150      2150      2154
      2150      2151      2150      2152      2155      2156      2155      2157
      2155      2158      2158      2159      2158      2166      2158      2160
      2166      2167      2166      2168      2166      2169      2160      2161
      2161      2163      2161      2162      2163      2164      2163      2165
      2163      2175      2175      2176      2175      2177      2175      2178
      2178      2179      2178      2180      2178      2181      2181      2182
      2181      2183      2181      2184      2184      2185      2184      2186
      2184      2187      2187      2188      2187      2189      2187      2190
      2190      2191      2190      2192      2190      2193      2193      2194
      2193      2195      2195      2196      2195      2197      2197      2198
      2197      2199      2197      2200      2200      2201      2200      2202
      2200      2203      2203      2204      2203      2205      2203      2206
      2206      2207      2206      2208      2206      2209      2209      2210
      2209      2211      2209      2212      2212      2213      2212      2214
      2212      2215      2215      2216      2215      2217      2215      2218
      2218      2219      2218      2220      2218      2221      2169      2170
      2170      2172      2170      2171      2172      2173      2172      2174
      2172      2222      2222      2223      2222      2224      2222      2225
      2225      2226      2225      2227      2225      2228      2228      2229
      2228      2230      2228      2231      2231      2232      2231      2233
      2231      2234      2234      2235      2234      2236      2234      2237
      2237      2238      2237      2239      2237      2240      2240      2241
      2240      2242      2240      2243      2243      2244      2243      2245
      2243      2246      2246      2247      2246      2248      2246      2249
      2249      2250      2249      2251      2249      2252      2252      2253
      2252      2254      2252      2255      2255      2256      2255      2257
      2255      2258      2258      2259      2258      2260      2258      2261
      2261      2262      2261      2263      2261      2264      2265      2269
      2265      2273      2265      2277      2269      2270      2269      2271
      2269      2272      2273      2274      2273      2275      2273      2276
      2277      2278      2277      2279      2277      2280      2265      2266
      2266      2267      2266      2268      2266      2281      2281      2282
      2281      2283      2281      2287      2288      2289      2287      2284
      2284      2288      2284      2285      2284      2286      2289      2290
      2289      2291      2289      2292      2292      2293      2292      2300
      2292      2294      2300      2301      2300      2302      2300      2303
      2294      2295      2295      2297      2295      2296      2297      2298
      2297      2299      2297      2309      2309      2310      2309      2311
      2309      2312      2312      2313      2312      2314      2312      2315
      2315      2316      2315      2317      2315      2318      2318      2319
      2318      2320      2318      2321      2321      2322      2321      2323
      2321      2324      2324      2325      2324      2326      2324      2327
      2327      2328      2327      2329      2329      2330      2329      2331
      2331      2332      2331      2333      2331      2334      2334      2335
      2334      2336      2334      2337      2337      2338      2337      2339
      2337      2340      2340      2341      2340      2342      2340      2343
      2343      2344      2343      2345      2343      2346      2346      2347
      2346      2348      2346      2349      2349      2350      2349      2351
      2349      2352      2352      2353      2352      2354      2352      2355
      2303      2304      2304      2306      2304      2305      2306      2307
      2306      2308      2306      2356      2356      2357      2356      2358
      2356      2359      2359      2360      2359      2361      2359      2362
      2362      2363      2362      2364      2362      2365      2365      2366
      2365      2367      2365      2368      2368      2369      2368      2370
      2368      2371      2371      2372      2371      2373      2371      2374
      2374      2375      2374      2376      2374      2377      2377      2378
      2377      2379      2377      2380      2380      2381      2380      2382
      2380      2383      2383      2384      2383      2385      2383      2386
      2386      2387      2386      2388      2386      2389      2389      2390
      2389      2391      2389      2392      2392      2393      2392      2394
      2392      2395      2395      2396      2395      2397      2395      2398
      2399      2403      2399      2407      2399      2411      2403      2404
      2403      2405      2403      2406      2407      2408      2407      2409
      2407      2410      2411      2412      2411      2413      2411      2414
      2399      2400      2400      2401      2400      2402      2400      2415
      2415      2416      2415      2417      2415      2421      2422      2423
      2421      2418      2418      2422      2418      2419      2418      2420
      2423      2424      2423      2425      2423      2426      2426      2427
      2426      2434      2426      2428      2434      2435      2434      2436
      2434      2437      2428      2429      2429      2431      2429      2430
      2431      2432      2431      2433      2431      2443      2443      2444
      2443      2445      2443      2446      2446      2447      2446      2448
      2446      2449      2449      2450      2449      2451      2449      2452
      2452      2453      2452      2454      2452      2455      2455      2456
      2455      2457      2455      2458      2458      2459      2458      2460
      2458      2461      2461      2462      2461      2463      2463      2464
      2463      2465      2465      2466      2465      2467      2465      2468
      2468      2469      2468      2470      2468      2471      2471      2472
      2471      2473      2471      2474      2474      2475      2474      2476
      2474      2477      2477      2478      2477      2479      2477      2480
      2480      2481      2480      2482      2480      2483      2483      2484
      2483      2485      2483      2486      2486      2487      2486      2488
      2486      2489      2437      2438      2438      2440      2438      2439
      2440      2441      2440      2442      2440      2490      2490      2491
      2490      2492      2490      2493      2493      2494      2493      2495
      2493      2496      2496      2497      2496      2498      2496      2499
      2499      2500      2499      2501      2499      2502      2502      2503
      2502      2504      2502      2505      2505      2506      2505      2507
      2505      2508      2508      2509      2508      2510      2508      2511
      2511      2512      2511      2513      2511      2514      2514      2515
      2514      2516      2514      2517      2517      2518      2517      2519
      2517      2520      2520      2521      2520      2522      2520      2523
      2523      2524      2523      2525      2523      2526      2526      2527
      2526      2528      2526      2529      2529      2530      2529      2531
      2529      2532      2533      2537      2533      2541      2533      2545
      2537      2538      2537      2539      2537      2540      2541      2542
      2541      2543      2541      2544      2545      2546      2545      2547
      2545      2548      2533      2534      2534      2535      2534      2536
      2534      2549      2549      2550      2549      2551      2549      2555
      2556      2557      2555      2552      2552      2556      2552      2553
      2552      2554      2557      2558      2557      2559      2557      2560
      2560      2561      2560      2568      2560      2562      2568      2569
      2568      2570      2568      2571      2562      2563      2563      2565
      2563      2564      2565      2566      2565      2567      2565      2577
      2577      2578      2577      2579      2577      2580      2580      2581
      2580      2582      2580      2583      2583      2584      2583      2585
      2583      2586      2586      2587      2586      2588      2586      2589
      2589      2590      2589      2591      2589      2592      2592      2593
      2592      2594      2592      2595      2595      2596      2595      2597
      2597      2598      2597      2599      2599      2600      2599      2601
      2599      2602      2602      2603      2602      2604      2602      2605
      2605      2606      2605      2607      2605      2608      2608      2609
      2608      2610      2608      2611      2611      2612      2611      2613
      2611      2614      2614      2615      2614      2616      2614      2617
      2617      2618      2617      2619      2617      2620      2620      2621
      2620      2622      2620      2623      2571      2572      2572      2574
      2572      2573      2574      2575      2574      2576      2574      2624
      2624      2625      2624      2626      2624      2627      2627      2628
      2627      2629      2627      2630      2630      2631      2630      2632
      2630      2633      2633      2634      2633      2635      2633      2636
      2636      2637      2636      2638      2636      2639      2639      2640
      2639      2641      2639      2642      2642      2643      2642      2644
      2642      2645      2645      2646      2645      2647      2645      2648
      2648      2649      2648      2650      2648      2651      2651      2652
      2651      2653      2651      2654      2654      2655      2654      2656
      2654      2657      2657      2658      2657      2659      2657      2660
      2660      2661      2660      2662      2660      2663      2663      2664
      2663      2665      2663      2666      2667      2671      2667      2675
      2667      2679      2671      2672      2671      2673      2671      2674
      2675      2676      2675      2677      2675      2678      2679      2680
      2679      2681      2679      2682      2667      2668      2668      2669
      2668      2670      2668      2683      2683      2684      2683      2685
      2683      2689      2690      2691      2689      2686      2686      2690
      2686      2687      2686      2688      2691      2692      2691      2693
      2691      2694      2694      2695      2694      2702      2694      2696
      2702      2703      2702      2704      2702      2705      2696      2697
      2697      2699      2697      2698      2699      2700      2699      2701
      2699      2711      2711      2712      2711      2713      2711      2714
      2714      2715      2714      2716      2714      2717      2717      2718
      2717      2719      2717      2720      2720      2721      2720      2722
      2720      2723      2723      2724      2723      2725      2723      2726
      2726      2727      2726      2728      2726      2729      2729      2730
      2729      2731      2731      2732      2731      2733      2733      2734
      2733      2735      2733      2736      2736      2737      2736      2738
      2736      2739      2739      2740      2739      2741      2739      2742
      2742      2743      2742      2744      2742      2745      2745      2746
      2745      2747      2745      2748      2748      2749      2748      2750
      2748      2751      2751      2752      2751      2753      2751      2754
      2754      2755      2754      2756      2754      2757      2705      2706
      2706      2708      2706      2707      2708      2709      2708      2710
      2708      2758      2758      2759      2758      2760      2758      2761
      2761      2762      2761      2763      2761      2764      2764      2765
      2764      2766      2764      2767      2767      2768      2767      2769
      2767      2770      2770      2771      2770      2772      2770      2773
      2773      2774      2773      2775      2773      2776      2776      2777
      2776      2778      2776      2779      2779      2780      2779      2781
      2779      2782      2782      2783      2782      2784      2782      2785
      2785      2786      2785      2787      2785      2788      2788      2789
      2788      2790      2788      2791      2791      2792      2791      2793
      2791      2794      2794      2795      2794      2796      2794      2797
      2797      2798      2797      2799      2797      2800      2801      2802
      2801      2803      2801      2804      2801      2805      2809      2807
      2807      2805      2807      2808      2805      2806      2805      2810
      2818      2817      2810      2811      2810      2812      2810      2816
      2816      2813      2813      2817      2813      2814      2813      2815
      2818      2819      2818      2820      2818      2821      2821      2822
      2821      2829      2821      2823      2829      2830      2829      2831
      2829      2832      2823      2824      2824      2826      2824      2825
      2826      2827      2826      2828      2826      2838      2838      2839
      2838      2840      2838      2841      2841      2842      2841      2843
      2841      2844      2844      2845      2844      2846      2844      2847
      2847      2848      2847      2849      2847      2850      2850      2851
      2850      2852      2850      2853      2853      2854      2853      2855
      2853      2856      2856      2857      2856      2858      2858      2859
      2858      2860      2860      2861      2860      2862      2860      2863
      2863      2864      2863      2865      2863      2866      2866      2867
      2866      2868      2866      2869      2869      2870      2869      2871
      2869      2872      2872      2873      2872      2874      2872      2875
      2875      2876      2875      2877      2875      2878      2878      2879
      2878      2880      2878      2881      2881      2882      2881      2883
      2881      2884      2832      2833      2833      2835      2833      2834
      2835      2836      2835      2837      2835      2885      2885      2886
      2885      2887      2885      2888      2888      2889      2888      2890
      2888      2891      2891      2892      2891      2893      2891      2894
      2894      2895      2894      2896      2894      2897      2897      2898
      2897      2899      2897      2900      2900      2901      2900      2902
      2900      2903      2903      2904      2903      2905      2903      2906
      2906      2907      2906      2908      2906      2909      2909      2910
      2909      2911      2909      2912      2912      2913      2912      2914
      2912      2915      2915      2916      2915      2917      2915      2918
      2918      2919      2918      2920      2918      2921      2921      2922
      2921      2923      2921      2924      2924      2925      2924      2926
      2924      2927      2928      2932      2928      2936      2928      2940
      2932      2933      2932      2934      2932      2935      2936      2937
      2936      2938      2936      2939      2940      2941      2940      2942
      2940      2943      2928      2929      2929      2930      2929      2931
      2929      2944      2944      2945      2944      2946      2944      2950
      2951      2952      2950      2947      2947      2951      2947      2948
      2947      2949      2952      2953      2952      2954      2952      2955
      2955      2956      2955      2963      2955      2957      2963      2964
      2963      2965      2963      2966      2957      2958      2958      2960
      2958      2959      2960      2961      2960      2962      2960      2972
      2972      2973      2972      2974      2972      2975      2975      2976
      2975      2977      2975      2978      2978      2979      2978      2980
      2978      2981      2981      2982      2981      2983      2981      2984
      2984      2985      2984      2986      2984      2987      2987      2988
      2987      2989      2987      2990      2990      2991      2990      2992
      2992      2993      2992      2994      2994      2995      2994      2996
      2994      2997      2997      2998      2997      2999      2997      3000
      3000      3001      3000      3002      3000      3003      3003      3004
      3003      3005      3003      3006      3006      3007      3006      3008
      3006      3009      3009      3010      3009      3011      3009      3012
      3012      3013      3012      3014      3012      3015      3015      3016
      3015      3017      3015      3018      2966      2967      2967      2969
      2967      2968      2969      2970      2969      2971      2969      3019
      3019      3020      3019      3021      3019      3022      3022      3023
      3022      3024      3022      3025      3025      3026      3025      3027
      3025      3028      3028      3029      3028      3030      3028      3031
      3031      3032      3031      3033      3031      3034      3034      3035
      3034      3036      3034      3037      3037      3038      3037      3039
      3037      3040      3040      3041      3040      3042      3040      3043
      3043      3044      3043      3045      3043      3046      3046      3047
      3046      3048      3046      3049      3049      3050      3049      3051
      3049      3052      3052      3053      3052      3054      3052      3055
      3055      3056      3055      3057      3055      3058      3058      3059
      3058      3060      3058      3061      3062      3063      3062      3064
      3062      3065      3062      3066      3070      3068      3068      3066
      3068      3069      3066      3067      3066      3071      3079      3078
      3071      3072      3071      3073      3071      3077      3077      3074
      3074      3078      3074      3075      3074      3076      3079      3080
      3079      3081      3079      3082      3082      3083      3082      3090
      3082      3084      3090      3091      3090      3092      3090      3093
      3084      3085      3085      3087      3085      3086      3087      3088
      3087      3089      3087      3099      3099      3100      3099      3101
      3099      3102      3102      3103      3102      3104      3102      3105
      3105      3106      3105      3107      3105      3108      3108      3109
      3108      3110      3108      3111      3111      3112      3111      3113
      3111      3114      3114      3115      3114      3116      3114      3117
      3117      3118      3117      3119      3119      3120      3119      3121
      3121      3122      3121      3123      3121      3124      3124      3125
      3124      3126      3124      3127      3127      3128      3127      3129
      3127      3130      3130      3131      3130      3132      3130      3133
      3133      3134      3133      3135      3133      3136      3136      3137
      3136      3138      3136      3139      3139      3140      3139      3141
      3139      3142      3142      3143      3142      3144      3142      3145
      3093      3094      3094      3096      3094      3095      3096      3097
      3096      3098      3096      3146      3146      3147      3146      3148
      3146      3149      3149      3150      3149      3151      3149      3152
      3152      3153      3152      3154      3152      3155      3155      3156
      3155      3157      3155      3158      3158      3159      3158      3160
      3158      3161      3161      3162      3161      3163      3161      3164
      3164      3165      3164      3166      3164      3167      3167      3168
      3167      3169      3167      3170      3170      3171      3170      3172
      3170      3173      3173      3174      3173      3175      3173      3176
      3176      3177      3176      3178      3176      3179      3179      3180
      3179      3181      3179      3182      3182      3183      3182      3184
      3182      3185      3185      3186      3185      3187      3185      3188
      3189      3193      3189      3197      3189      3201      3193      3194
      3193      3195      3193      3196      3197      3198      3197      3199
      3197      3200      3201      3202      3201      3203      3201      3204
      3189      3190      3190      3191      3190      3192      3190      3205
      3205      3206      3205      3207      3205      3211      3212      3213
      3211      3208      3208      3212      3208      3209      3208      3210
      3213      3214      3213      3215      3213      3216      3216      3217
      3216      3224      3216      3218      3224      3225      3224      3226
      3224      3227      3218      3219      3219      3221      3219      3220
      3221      3222      3221      3223      3221      3233      3233      3234
      3233      3235      3233      3236      3236      3237      3236      3238
      3236      3239      3239      3240      3239      3241      3239      3242
      3242      3243      3242      3244      3242      3245      3245      3246
      3245      3247      3245      3248      3248      3249      3248      3250
      3248      3251      3251      3252      3251      3253      3253      3254
      3253      3255      3255      3256      3255      3257      3255      3258
      3258      3259      3258      3260      3258      3261      3261      3262
      3261      3263      3261      3264      3264      3265      3264      3266
      3264      3267      3267      3268      3267      3269      3267      3270
      3270      3271      3270      3272      3270      3273      3273      3274
      3273      3275      3273      3276      3276      3277      3276      3278
      3276      3279      3227      3228      3228      3230      3228      3229
      3230      3231      3230      3232      3230      3280      3280      3281
      3280      3282      3280      3283      3283      3284      3283      3285
      3283      3286      3286      3287      3286      3288      3286      3289
      3289      3290      3289      3291      3289      3292      3292      3293
      3292      3294      3292      3295      3295      3296      3295      3297
      3295      3298      3298      3299      3298      3300      3298      3301
      3301      3302      3301      3303      3301      3304      3304      3305
      3304      3306      3304      3307      3307      3308      3307      3309
      3307      3310      3310      3311      3310      3312      3310      3313
      3313      3314      3313      3315      3313      3316      3316      3317
      3316      3318      3316      3319      3319      3320      3319      3321
      3319      3322      3323      3327      3323      3331      3323      3335
      3327      3328      3327      3329      3327      3330      3331      3332
      3331      3333      3331      3334      3335      3336      3335      3337
      3335      3338      3323      3324      3324      3325      3324      3326
      3324      3339      3339      3340      3339      3341      3339      3345
      3346      3347      3345      3342      3342      3346      3342      3343
      3342      3344      3347      3348      3347      3349      3347      3350
      3350      3351      3350      3358      3350      3352      3358      3359
      3358      3360      3358      3361      3352      3353      3353      3355
      3353      3354      3355      3356      3355      3357      3355      3367
      3367      3368      3367      3369      3367      3370      3370      3371
      3370      3372      3370      3373      3373      3374      3373      3375
      3373      3376      3376      3377      3376      3378      3376      3379
      3379      3380      3379      3381      3379      3382      3382      3383
      3382      3384      3382      3385      3385      3386      3385      3387
      3387      3388      3387      3389      3389      3390      3389      3391
      3389      3392      3392      3393      3392      3394      3392      3395
      3395      3396      3395      3397      3395      3398      3398      3399
      3398      3400      3398      3401      3401      3402      3401      3403
      3401      3404      3404      3405      3404      3406      3404      3407
      3407      3408      3407      3409      3407      3410      3410      3411
      3410      3412      3410      3413      3361      3362      3362      3364
      3362      3363      3364      3365      3364      3366      3364      3414
      3414      3415      3414      3416      3414      3417      3417      3418
      3417      3419      3417      3420      3420      3421      3420      3422
      3420      3423      3423      3424      3423      3425      3423      3426
      3426      3427      3426      3428      3426      3429      3429      3430
      3429      3431      3429      3432      3432      3433      3432      3434
      3432      3435      3435      3436      3435      3437      3435      3438
      3438      3439      3438      3440      3438      3441      3441      3442
      3441      3443      3441      3444      3444      3445      3444      3446
      3444      3447      3447      3448      3447      3449      3447      3450
      3450      3451      3450      3452      3450      3453      3453      3454
      3453      3455      3453      3456      3457      3458      3457      3459
      3457      3460      3457      3461      3465      3463      3463      3461
      3463      3464      3461      3462      3461      3466      3474      3473
      3466      3467      3466      3468      3466      3472      3472      3469
      3469      3473      3469      3470      3469      3471      3474      3475
      3474      3476      3474      3477      3477      3478      3477      3485
      3477      3479      3485      3486      3485      3487      3485      3488
      3479      3480      3480      3482      3480      3481      3482      3483
      3482      3484      3482      3494      3494      3495      3494      3496
      3494      3497      3497      3498      3497      3499      3497      3500
      3500      3501      3500      3502      3500      3503      3503      3504
      3503      3505      3503      3506      3506      3507      3506      3508
      3506      3509      3509      3510      3509      3511      3509      3512
      3512      3513      3512      3514      3514      3515      3514      3516
      3516      3517      3516      3518      3516      3519      3519      3520
      3519      3521      3519      3522      3522      3523      3522      3524
      3522      3525      3525      3526      3525      3527      3525      3528
      3528      3529      3528      3530      3528      3531      3531      3532
      3531      3533      3531      3534      3534      3535      3534      3536
      3534      3537      3537      3538      3537      3539      3537      3540
      3488      3489      3489      3491      3489      3490      3491      3492
      3491      3493      3491      3541      3541      3542      3541      3543
      3541      3544      3544      3545      3544      3546      3544      3547
      3547      3548      3547      3549      3547      3550      3550      3551
      3550      3552      3550      3553      3553      3554      3553      3555
      3553      3556      3556      3557      3556      3558      3556      3559
      3559      3560      3559      3561      3559      3562      3562      3563
      3562      3564      3562      3565      3565      3566      3565      3567
      3565      3568      3568      3569      3568      3570      3568      3571
      3571      3572      3571      3573      3571      3574      3574      3575
      3574      3576      3574      3577      3577      3578      3577      3579
      3577      3580      3580      3581      3580      3582      3580      3583
      3584      3588      3584      3592      3584      3596      3588      3589
      3588      3590      3588      3591      3592      3593      3592      3594
      3592      3595      3596      3597      3596      3598      3596      3599
      3584      3585      3585      3586      3585      3587      3585      3600
      3600      3601      3600      3602      3600      3606      3607      3608
      3606      3603      3603      3607      3603      3604      3603      3605
      3608      3609      3608      3610      3608      3611      3611      3612
      3611      3619      3611      3613      3619      3620      3619      3621
      3619      3622      3613      3614      3614      3616      3614      3615
      3616      3617      3616      3618      3616      3628      3628      3629
      3628      3630      3628      3631      3631      3632      3631      3633
      3631      3634      3634      3635      3634      3636      3634      3637
      3637      3638      3637      3639      3637      3640      3640      3641
      3640      3642      3640      3643      3643      3644      3643      3645
      3643      3646      3646      3647      3646      3648      3648      3649
      3648      3650      3650      3651      3650      3652      3650      3653
      3653      3654      3653      3655      3653      3656      3656      3657
      3656      3658      3656      3659      3659      3660      3659      3661
      3659      3662      3662      3663      3662      3664      3662      3665
      3665      3666      3665      3667      3665      3668      3668      3669
      3668      3670      3668      3671      3671      3672      3671      3673
      3671      3674      3622      3623      3623      3625      3623      3624
      3625      3626      3625      3627      3625      3675      3675      3676
      3675      3677      3675      3678      3678      3679      3678      3680
      3678      3681      3681      3682      3681      3683      3681      3684
      3684      3685      3684      3686      3684      3687      3687      3688
      3687      3689      3687      3690      3690      3691      3690      3692
      3690      3693      3693      3694      3693      3695      3693      3696
      3696      3697      3696      3698      3696      3699      3699      3700
      3699      3701      3699      3702      3702      3703      3702      3704
      3702      3705      3705      3706      3705      3707      3705      3708
      3708      3709      3708      3710      3708      3711      3711      3712
      3711      3713      3711      3714      3714      3715      3714      3716
      3714      3717      3718      3722      3718      3726      3718      3730
      3722      3723      3722      3724      3722      3725      3726      3727
      3726      3728      3726      3729      3730      3731      3730      3732
      3730      3733      3718      3719      3719      3720      3719      3721
      3719      3734      3734      3735      3734      3736      3734      3740
      3741      3742      3740      3737      3737      3741      3737      3738
      3737      3739      3742      3743      3742      3744      3742      3745
      3745      3746      3745      3753      3745      3747      3753      3754
      3753      3755      3753      3756      3747      3748      3748      3750
      3748      3749      3750      3751      3750      3752      3750      3762
      3762      3763      3762      3764      3762      3765      3765      3766
      3765      3767      3765      3768      3768      3769      3768      3770
      3768      3771      3771      3772      3771      3773      3771      3774
      3774      3775      3774      3776      3774      3777      3777      3778
      3777      3779      3777      3780      3780      3781      3780      3782
      3782      3783      3782      3784      3784      3785      3784      3786
      3784      3787      3787      3788      3787      3789      3787      3790
      3790      3791      3790      3792      3790      3793      3793      3794
      3793      3795      3793      3796      3796      3797      3796      3798
      3796      3799      3799      3800      3799      3801      3799      3802
      3802      3803      3802      3804      3802      3805      3805      3806
      3805      3807      3805      3808      3756      3757      3757      3759
      3757      3758      3759      3760      3759      3761      3759      3809
      3809      3810      3809      3811      3809      3812      3812      3813
      3812      3814      3812      3815      3815      3816      3815      3817
      3815      3818      3818      3819      3818      3820      3818      3821
      3821      3822      3821      3823      3821      3824      3824      3825
      3824      3826      3824      3827      3827      3828      3827      3829
      3827      3830      3830      3831      3830      3832      3830      3833
      3833      3834      3833      3835      3833      3836      3836      3837
      3836      3838      3836      3839      3839      3840      3839      3841
      3839      3842      3842      3843      3842      3844      3842      3845
      3845      3846      3845      3847      3845      3848      3848      3849
      3848      3850      3848      3851      3852      3856      3852      3860
      3852      3864      3856      3857      3856      3858      3856      3859
      3860      3861      3860      3862      3860      3863      3864      3865
      3864      3866      3864      3867      3852      3853      3853      3854
      3853      3855      3853      3868      3868      3869      3868      3870
      3868      3874      3875      3876      3874      3871      3871      3875
      3871      3872      3871      3873      3876      3877      3876      3878
      3876      3879      3879      3880      3879      3887      3879      3881
      3887      3888      3887      3889      3887      3890      3881      3882
      3882      3884      3882      3883      3884      3885      3884      3886
      3884      3896      3896      3897      3896      3898      3896      3899
      3899      3900      3899      3901      3899      3902      3902      3903
      3902      3904      3902      3905      3905      3906      3905      3907
      3905      3908      3908      3909      3908      3910      3908      3911
      3911      3912      3911      3913      3911      3914      3914      3915
      3914      3916      3916      3917      3916      3918      3918      3919
      3918      3920      3918      3921      3921      3922      3921      3923
      3921      3924      3924      3925      3924      3926      3924      3927
      3927      3928      3927      3929      3927      3930      3930      3931
      3930      3932      3930      3933      3933      3934      3933      3935
      3933      3936      3936      3937      3936      3938      3936      3939
      3939      3940      3939      3941      3939      3942      3890      3891
      3891      3893      3891      3892      3893      3894      3893      3895
      3893      3943      3943      3944      3943      3945      3943      3946
      3946      3947      3946      3948      3946      3949      3949      3950
      3949      3951      3949      3952      3952      3953      3952      3954
      3952      3955      3955      3956      3955      3957      3955      3958
      3958      3959      3958      3960      3958      3961      3961      3962
      3961      3963      3961      3964      3964      3965      3964      3966
      3964      3967      3967      3968      3967      3969      3967      3970
      3970      3971      3970      3972      3970      3973      3973      3974
      3973      3975      3973      3976      3976      3977      3976      3978
      3976      3979      3979      3980      3979      3981      3979      3982
      3982      3983      3982      3984      3982      3985      3986      3987
      3986      3988      3986      3989      3986      3990      3994      3992
      3992      3990      3992      3993      3990      3991      3990      3995
      4003      4002      3995      3996      3995      3997      3995      4001
      4001      3998      3998      4002      3998      3999      3998      4000
      4003      4004      4003      4005      4003      4006      4006      4007
      4006      4014      4006      4008      4014      4015      4014      4016
      4014      4017      4008      4009      4009      4011      4009      4010
      4011      4012      4011      4013      4011      4023      4023      4024
      4023      4025      4023      4026      4026      4027      4026      4028
      4026      4029      4029      4030      4029      4031      4029      4032
      4032      4033      4032      4034      4032      4035      4035      4036
      4035      4037      4035      4038      4038      4039      4038      4040
      4038      4041      4041      4042      4041      4043      4043      4044
      4043      4045      4045      4046      4045      4047      4045      4048
      4048      4049      4048      4050      4048      4051      4051      4052
      4051      4053      4051      4054      4054      4055      4054      4056
      4054      4057      4057      4058      4057      4059      4057      4060
      4060      4061      4060      4062      4060      4063      4063      4064
      4063      4065      4063      4066      4066      4067      4066      4068
      4066      4069      4017      4018      4018      4020      4018      4019
      4020      4021      4020      4022      4020      4070      4070      4071
      4070      4072      4070      4073      4073      4074      4073      4075
      4073      4076      4076      4077      4076      4078      4076      4079
      4079      4080      4079      4081      4079      4082      4082      4083
      4082      4084      4082      4085      4085      4086      4085      4087
      4085      4088      4088      4089      4088      4090      4088      4091
      4091      4092      4091      4093      4091      4094      4094      4095
      4094      4096      4094      4097      4097      4098      4097      4099
      4097      4100      4100      4101      4100      4102      4100      4103
      4103      4104      4103      4105      4103      4106      4106      4107
      4106      4108      4106      4109      4109      4110      4109      4111
      4109      4112      4113      4117      4113      4121      4113      4125
      4117      4118      4117      4119      4117      4120      4121      4122
      4121      4123      4121      4124      4125      4126      4125      4127
      4125      4128      4113      4114      4114      4115      4114      4116
      4114      4129      4129      4130      4129      4131      4129      4135
      4136      4137      4135      4132      4132      4136      4132      4133
      4132      4134      4137      4138      4137      4139      4137      4140
      4140      4141      4140      4148      4140      4142      4148      4149
      4148      4150      4148      4151      4142      4143      4143      4145
      4143      4144      4145      4146      4145      4147      4145      4157
      4157      4158      4157      4159      4157      4160      4160      4161
      4160      4162      4160      4163      4163      4164      4163      4165
      4163      4166      4166      4167      4166      4168      4166      4169
      4169      4170      4169      4171      4169      4172      4172      4173
      4172      4174      4172      4175      4175      4176      4175      4177
      4177      4178      4177      4179      4179      4180      4179      4181
      4179      4182      4182      4183      4182      4184      4182      4185
      4185      4186      4185      4187      4185      4188      4188      4189
      4188      4190      4188      4191      4191      4192      4191      4193
      4191      4194      4194      4195      4194      4196      4194      4197
      4197      4198      4197      4199      4197      4200      4200      4201
      4200      4202      4200      4203      4151      4152      4152      4154
      4152      4153      4154      4155      4154      4156      4154      4204
      4204      4205      4204      4206      4204      4207      4207      4208
      4207      4209      4207      4210      4210      4211      4210      4212
      4210      4213      4213      4214      4213      4215      4213      4216
      4216      4217      4216      4218      4216      4219      4219      4220
      4219      4221      4219      4222      4222      4223      4222      4224
      4222      4225      4225      4226      4225      4227      4225      4228
      4228      4229      4228      4230      4228      4231      4231      4232
      4231      4233      4231      4234      4234      4235      4234      4236
      4234      4237      4237      4238      4237      4239      4237      4240
      4240      4241      4240      4242      4240      4243      4243      4244
      4243      4245      4243      4246      4247      4251      4247      4255
      4247      4259      4251      4252      4251      4253      4251      4254
      4255      4256      4255      4257      4255      4258      4259      4260
      4259      4261      4259      4262      4247      4248      4248      4249
      4248      4250      4248      4263      4263      4264      4263      4265
      4263      4269      4270      4271      4269      4266      4266      4270
      4266      4267      4266      4268      4271      4272      4271      4273
      4271      4274      4274      4275      4274      4282      4274      4276
      4282      4283      4282      4284      4282      4285      4276      4277
      4277      4279      4277      4278      4279      4280      4279      4281
      4279      4291      4291      4292      4291      4293      4291      4294
      4294      4295      4294      4296      4294      4297      4297      4298
      4297      4299      4297      4300      4300      4301      4300      4302
      4300      4303      4303      4304      4303      4305      4303      4306
      4306      4307      4306      4308      4306      4309      4309      4310
      4309      4311      4311      4312      4311      4313      4313      4314
      4313      4315      4313      4316      4316      4317      4316      4318
      4316      4319      4319      4320      4319      4321      4319      4322
      4322      4323      4322      4324      4322      4325      4325      4326
      4325      4327      4325      4328      4328      4329      4328      4330
      4328      4331      4331      4332      4331      4333      4331      4334
      4334      4335      4334      4336      4334      4337      4285      4286
      4286      4288      4286      4287      4288      4289      4288      4290
      4288      4338      4338      4339      4338      4340      4338      4341
      4341      4342      4341      4343      4341      4344      4344      4345
      4344      4346      4344      4347      4347      4348      4347      4349
      4347      4350      4350      4351      4350      4352      4350      4353
      4353      4354      4353      4355      4353      4356      4356      4357
      4356      4358      4356      4359      4359      4360      4359      4361
      4359      4362      4362      4363      4362      4364      4362      4365
      4365      4366      4365      4367      4365      4368      4368      4369
      4368      4370      4368      4371      4371      4372      4371      4373
      4371      4374      4374      4375      4374      4376      4374      4377
      4377      4378      4377      4379      4377      4380      4381      4382
      4381      4383      4381      4384      4381      4385      4389      4387
      4387      4385      4387      4388      4385      4386      4385      4390
      4398      4397      4390      4391      4390      4392      4390      4396
      4396      4393      4393      4397      4393      4394      4393      4395
      4398      4399      4398      4400      4398      4401      4401      4402
      4401      4409      4401      4403      4409      4410      4409      4411
      4409      4412      4403      4404      4404      4406      4404      4405
      4406      4407      4406      4408      4406      4418      4418      4419
      4418      4420      4418      4421      4421      4422      4421      4423
      4421      4424      4424      4425      4424      4426      4424      4427
      4427      4428      4427      4429      4427      4430      4430      4431
      4430      4432      4430      4433      4433      4434      4433      4435
      4433      4436      4436      4437      4436      4438      4438      4439
      4438      4440      4440      4441      4440      4442      4440      4443
      4443      4444      4443      4445      4443      4446      4446      4447
      4446      4448      4446      4449      4449      4450      4449      4451
      4449      4452      4452      4453      4452      4454      4452      4455
      4455      4456      4455      4457      4455      4458      4458      4459
      4458      4460      4458      4461      4461      4462      4461      4463
      4461      4464      4412      4413      4413      4415      4413      4414
      4415      4416      4415      4417      4415      4465      4465      4466
      4465      4467      4465      4468      4468      4469      4468      4470
      4468      4471      4471      4472      4471      4473      4471      4474
      4474      4475      4474      4476      4474      4477      4477      4478
      4477      4479      4477      4480      4480      4481      4480      4482
      4480      4483      4483      4484      4483      4485      4483      4486
      4486      4487      4486      4488      4486      4489      4489      4490
      4489      4491      4489      4492      4492      4493      4492      4494
      4492      4495      4495      4496      4495      4497      4495      4498
      4498      4499      4498      4500      4498      4501      4501      4502
      4501      4503      4501      4504      4504      4505      4504      4506
      4504      4507      4508      4509      4508      4510      4508      4511
      4508      4512      4516      4514      4514      4512      4514      4515
      4512      4513      4512      4517      4525      4524      4517      4518
      4517      4519      4517      4523      4523      4520      4520      4524
      4520      4521      4520      4522      4525      4526      4525      4527
      4525      4528      4528      4529      4528      4536      4528      4530
      4536      4537      4536      4538      4536      4539      4530      4531
      4531      4533      4531      4532      4533      4534      4533      4535
      4533      4545      4545      4546      4545      4547      4545      4548
      4548      4549      4548      4550      4548      4551      4551      4552
      4551      4553      4551      4554      4554      4555      4554      4556
      4554      4557      4557      4558      4557      4559      4557      4560
      4560      4561      4560      4562      4560      4563      4563      4564
      4563      4565      4565      4566      4565      4567      4567      4568
      4567      4569      4567      4570      4570      4571      4570      4572
      4570      4573      4573      4574      4573      4575      4573      4576
      4576      4577      4576      4578      4576      4579      4579      4580
      4579      4581      4579      4582      4582      4583      4582      4584
      4582      4585      4585      4586      4585      4587      4585      4588
      4588      4589      4588      4590      4588      4591      4539      4540
      4540      4542      4540      4541      4542      4543      4542      4544
      4542      4592      4592      4593      4592      4594      4592      4595
      4595      4596      4595      4597      4595      4598      4598      4599
      4598      4600      4598      4601      4601      4602      4601      4603
      4601      4604      4604      4605      4604      4606      4604      4607
      4607      4608      4607      4609      4607      4610      4610      4611
      4610      4612      4610      4613      4613      4614      4613      4615
      4613      4616      4616      4617      4616      4618      4616      4619
      4619      4620      4619      4621      4619      4622      4622      4623
      4622      4624      4622      4625      4625      4626      4625      4627
      4625      4628      4628      4629      4628      4630      4628      4631
      4631      4632      4631      4633      4631      4634      4635      4639
      4635      4643      4635      4647      4639      4640      4639      4641
      4639      4642      4643      4644      4643      4645      4643      4646
      4647      4648      4647      4649      4647      4650      4635      4636
      4636      4637      4636      4638      4636      4651      4651      4652
      4651      4653      4651      4657      4658      4659      4657      4654
      4654      4658      4654      4655      4654      4656      4659      4660
      4659      4661      4659      4662      4662      4663      4662      4670
      4662      4664      4670      4671      4670      4672      4670      4673
      4664      4665      4665      4667      4665      4666      4667      4668
      4667      4669      4667      4679      4679      4680      4679      4681
      4679      4682      4682      4683      4682      4684      4682      4685
      4685      4686      4685      4687      4685      4688      4688      4689
      4688      4690      4688      4691      4691      4692      4691      4693
      4691      4694      4694      4695      4694      4696      4694      4697
      4697      4698      4697      4699      4699      4700      4699      4701
      4701      4702      4701      4703      4701      4704      4704      4705
      4704      4706      4704      4707      4707      4708      4707      4709
      4707      4710      4710      4711      4710      4712      4710      4713
      4713      4714      4713      4715      4713      4716      4716      4717
      4716      4718      4716      4719      4719      4720      4719      4721
      4719      4722      4722      4723      4722      4724      4722      4725
      4673      4674      4674      4676      4674      4675      4676      4677
      4676      4678      4676      4726      4726      4727      4726      4728
      4726      4729      4729      4730      4729      4731      4729      4732
      4732      4733      4732      4734      4732      4735      4735      4736
      4735      4737      4735      4738      4738      4739      4738      4740
      4738      4741      4741      4742      4741      4743      4741      4744
      4744      4745      4744      4746      4744      4747      4747      4748
      4747      4749      4747      4750      4750      4751      4750      4752
      4750      4753      4753      4754      4753      4755      4753      4756
      4756      4757      4756      4758      4756      4759      4759      4760
      4759      4761      4759      4762      4762      4763      4762      4764
      4762      4765      4765      4766      4765      4767      4765      4768
      4769      4773      4769      4777      4769      4781      4773      4774
      4773      4775      4773      4776      4777      4778      4777      4779
      4777      4780      4781      4782      4781      4783      4781      4784
      4769      4770      4770      4771      4770      4772      4770      4785
      4785      4786      4785      4787      4785      4791      4792      4793
      4791      4788      4788      4792      4788      4789      4788      4790
      4793      4794      4793      4795      4793      4796      4796      4797
      4796      4804      4796      4798      4804      4805      4804      4806
      4804      4807      4798      4799      4799      4801      4799      4800
      4801      4802      4801      4803      4801      4813      4813      4814
      4813      4815      4813      4816      4816      4817      4816      4818
      4816      4819      4819      4820      4819      4821      4819      4822
      4822      4823      4822      4824      4822      4825      4825      4826
      4825      4827      4825      4828      4828      4829      4828      4830
      4828      4831      4831      4832      4831      4833      4833      4834
      4833      4835      4835      4836      4835      4837      4835      4838
      4838      4839      4838      4840      4838      4841      4841      4842
      4841      4843      4841      4844      4844      4845      4844      4846
      4844      4847      4847      4848      4847      4849      4847      4850
      4850      4851      4850      4852      4850      4853      4853      4854
      4853      4855      4853      4856      4856      4857      4856      4858
      4856      4859      4807      4808      4808      4810      4808      4809
      4810      4811      4810      4812      4810      4860      4860      4861
      4860      4862      4860      4863      4863      4864      4863      4865
      4863      4866      4866      4867      4866      4868      4866      4869
      4869      4870      4869      4871      4869      4872      4872      4873
      4872      4874      4872      4875      4875      4876      4875      4877
      4875      4878      4878      4879      4878      4880      4878      4881
      4881      4882      4881      4883      4881      4884      4884      4885
      4884      4886      4884      4887      4887      4888      4887      4889
      4887      4890      4890      4891      4890      4892      4890      4893
      4893      4894      4893      4895      4893      4896      4896      4897
      4896      4898      4896      4899      4899      4900      4899      4901
      4899      4902      4903      4904      4903      4905      4903      4906
      4903      4907      4911      4909      4909      4907      4909      4910
      4907      4908      4907      4912      4920      4919      4912      4913
      4912      4914      4912      4918      4918      4915      4915      4919
      4915      4916      4915      4917      4920      4921      4920      4922
      4920      4923      4923      4924      4923      4931      4923      4925
      4931      4932      4931      4933      4931      4934      4925      4926
      4926      4928      4926      4927      4928      4929      4928      4930
      4928      4940      4940      4941      4940      4942      4940      4943
      4943      4944      4943      4945      4943      4946      4946      4947
      4946      4948      4946      4949      4949      4950      4949      4951
      4949      4952      4952      4953      4952      4954      4952      4955
      4955      4956      4955      4957      4955      4958      4958      4959
      4958      4960      4960      4961      4960      4962      4962      4963
      4962      4964      4962      4965      4965      4966      4965      4967
      4965      4968      4968      4969      4968      4970      4968      4971
      4971      4972      4971      4973      4971      4974      4974      4975
      4974      4976      4974      4977      4977      4978      4977      4979
      4977      4980      4980      4981      4980      4982      4980      4983
      4983      4984      4983      4985      4983      4986      4934      4935
      4935      4937      4935      4936      4937      4938      4937      4939
      4937      4987      4987      4988      4987      4989      4987      4990
      4990      4991      4990      4992      4990      4993      4993      4994
      4993      4995      4993      4996      4996      4997      4996      4998
      4996      4999      4999      5000      4999      5001      4999      5002
      5002      5003      5002      5004      5002      5005      5005      5006
      5005      5007      5005      5008      5008      5009      5008      5010
      5008      5011      5011      5012      5011      5013      5011      5014
      5014      5015      5014      5016      5014      5017      5017      5018
      5017      5019      5017      5020      5020      5021      5020      5022
      5020      5023      5023      5024      5023      5025      5023      5026
      5026      5027      5026      5028      5026      5029      5030      5034
      5030      5038      5030      5042      5034      5035      5034      5036
      5034      5037      5038      5039      5038      5040      5038      5041
      5042      5043      5042      5044      5042      5045      5030      5031
      5031      5032      5031      5033      5031      5046      5046      5047
      5046      5048      5046      5052      5053      5054      5052      5049
      5049      5053      5049      5050      5049      5051      5054      5055
      5054      5056      5054      5057      5057      5058      5057      5065
      5057      5059      5065      5066      5065      5067      5065      5068
      5059      5060      5060      5062      5060      5061      5062      5063
      5062      5064      5062      5074      5074      5075      5074      5076
      5074      5077      5077      5078      5077      5079      5077      5080
      5080      5081      5080      5082      5080      5083      5083      5084
      5083      5085      5083      5086      5086      5087      5086      5088
      5086      5089      5089      5090      5089      5091      5089      5092
      5092      5093      5092      5094      5094      5095      5094      5096
      5096      5097      5096      5098      5096      5099      5099      5100
      5099      5101      5099      5102      5102      5103      5102      5104
      5102      5105      5105      5106      5105      5107      5105      5108
      5108      5109      5108      5110      5108      5111      5111      5112
      5111      5113      5111      5114      5114      5115      5114      5116
      5114      5117      5117      5118      5117      5119      5117      5120
      5068      5069      5069      5071      5069      5070      5071      5072
      5071      5073      5071      5121      5121      5122      5121      5123
      5121      5124      5124      5125      5124      5126      5124      5127
      5127      5128      5127      5129      5127      5130      5130      5131
      5130      5132      5130      5133      5133      5134      5133      5135
      5133      5136      5136      5137      5136      5138      5136      5139
      5139      5140      5139      5141      5139      5142      5142      5143
      5142      5144      5142      5145      5145      5146      5145      5147
      5145      5148      5148      5149      5148      5150      5148      5151
      5151      5152      5151      5153      5151      5154      5154      5155
      5154      5156      5154      5157      5157      5158      5157      5159
      5157      5160      5160      5161      5160      5162      5160      5163
      5164      5168      5164      5172      5164      5176      5168      5169
      5168      5170      5168      5171      5172      5173      5172      5174
      5172      5175      5176      5177      5176      5178      5176      5179
      5164      5165      5165      5166      5165      5167      5165      5180
      5180      5181      5180      5182      5180      5186      5187      5188
      5186      5183      5183      5187      5183      5184      5183      5185
      5188      5189      5188      5190      5188      5191      5191      5192
      5191      5199      5191      5193      5199      5200      5199      5201
      5199      5202      5193      5194      5194      5196      5194      5195
      5196      5197      5196      5198      5196      5208      5208      5209
      5208      5210      5208      5211      5211      5212      5211      5213
      5211      5214      5214      5215      5214      5216      5214      5217
      5217      5218      5217      5219      5217      5220      5220      5221
      5220      5222      5220      5223      5223      5224      5223      5225
      5223      5226      5226      5227      5226      5228      5228      5229
      5228      5230      5230      5231      5230      5232      5230      5233
      5233      5234      5233      5235      5233      5236      5236      5237
      5236      5238      5236      5239      5239      5240      5239      5241
      5239      5242      5242      5243      5242      5244      5242      5245
      5245      5246      5245      5247      5245      5248      5248      5249
      5248      5250      5248      5251      5251      5252      5251      5253
      5251      5254      5202      5203      5203      5205      5203      5204
      5205      5206      5205      5207      5205      5255      5255      5256
      5255      5257      5255      5258      5258      5259      5258      5260
      5258      5261      5261      5262      5261      5263      5261      5264
      5264      5265      5264      5266      5264      5267      5267      5268
      5267      5269      5267      5270      5270      5271      5270      5272
      5270      5273      5273      5274      5273      5275      5273      5276
      5276      5277      5276      5278      5276      5279      5279      5280
      5279      5281      5279      5282      5282      5283      5282      5284
      5282      5285      5285      5286      5285      5287      5285      5288
      5288      5289      5288      5290      5288      5291      5291      5292
      5291      5293      5291      5294      5294      5295      5294      5296
      5294      5297      5298      5302      5298      5306      5298      5310
      5302      5303      5302      5304      5302      5305      5306      5307
      5306      5308      5306      5309      5310      5311      5310      5312
      5310      5313      5298      5299      5299      5300      5299      5301
      5299      5314      5314      5315      5314      5316      5314      5320
      5321      5322      5320      5317      5317      5321      5317      5318
      5317      5319      5322      5323      5322      5324      5322      5325
      5325      5326      5325      5333      5325      5327      5333      5334
      5333      5335      5333      5336      5327      5328      5328      5330
      5328      5329      5330      5331      5330      5332      5330      5342
      5342      5343      5342      5344      5342      5345      5345      5346
      5345      5347      5345      5348      5348      5349      5348      5350
      5348      5351      5351      5352      5351      5353      5351      5354
      5354      5355      5354      5356      5354      5357      5357      5358
      5357      5359      5357      5360      5360      5361      5360      5362
      5362      5363      5362      5364      5364      5365      5364      5366
      5364      5367      5367      5368      5367      5369      5367      5370
      5370      5371      5370      5372      5370      5373      5373      5374
      5373      5375      5373      5376      5376      5377      5376      5378
      5376      5379      5379      5380      5379      5381      5379      5382
      5382      5383      5382      5384      5382      5385      5385      5386
      5385      5387      5385      5388      5336      5337      5337      5339
      5337      5338      5339      5340      5339      5341      5339      5389
      5389      5390      5389      5391      5389      5392      5392      5393
      5392      5394      5392      5395      5395      5396      5395      5397
      5395      5398      5398      5399      5398      5400      5398      5401
      5401      5402      5401      5403      5401      5404      5404      5405
      5404      5406      5404      5407      5407      5408      5407      5409
      5407      5410      5410      5411      5410      5412      5410      5413
      5413      5414      5413      5415      5413      5416      5416      5417
      5416      5418      5416      5419      5419      5420      5419      5421
      5419      5422      5422      5423      5422      5424      5422      5425
      5425      5426      5425      5427      5425      5428      5428      5429
      5428      5430      5428      5431      5432      5436      5432      5440
      5432      5444      5436      5437      5436      5438      5436      5439
      5440      5441      5440      5442      5440      5443      5444      5445
      5444      5446      5444      5447      5432      5433      5433      5434
      5433      5435      5433      5448      5448      5449      5448      5450
      5448      5454      5455      5456      5454      5451      5451      5455
      5451      5452      5451      5453      5456      5457      5456      5458
      5456      5459      5459      5460      5459      5467      5459      5461
      5467      5468      5467      5469      5467      5470      5461      5462
      5462      5464      5462      5463      5464      5465      5464      5466
      5464      5476      5476      5477      5476      5478      5476      5479
      5479      5480      5479      5481      5479      5482      5482      5483
      5482      5484      5482      5485      5485      5486      5485      5487
      5485      5488      5488      5489      5488      5490      5488      5491
      5491      5492      5491      5493      5491      5494      5494      5495
      5494      5496      5496      5497      5496      5498      5498      5499
      5498      5500      5498      5501      5501      5502      5501      5503
      5501      5504      5504      5505      5504      5506      5504      5507
      5507      5508      5507      5509      5507      5510      5510      5511
      5510      5512      5510      5513      5513      5514      5513      5515
      5513      5516      5516      5517      5516      5518      5516      5519
      5519      5520      5519      5521      5519      5522      5470      5471
      5471      5473      5471      5472      5473      5474      5473      5475
      5473      5523      5523      5524      5523      5525      5523      5526
      5526      5527      5526      5528      5526      5529      5529      5530
      5529      5531      5529      5532      5532      5533      5532      5534
      5532      5535      5535      5536      5535      5537      5535      5538
      5538      5539      5538      5540      5538      5541      5541      5542
      5541      5543      5541      5544      5544      5545      5544      5546
      5544      5547      5547      5548      5547      5549      5547      5550
      5550      5551      5550      5552      5550      5553      5553      5554
      5553      5555      5553      5556      5556      5557      5556      5558
      5556      5559      5559      5560      5559      5561      5559      5562
      5562      5563      5562      5564      5562      5565      5566      5570
      5566      5574      5566      5578      5570      5571      5570      5572
      5570      5573      5574      5575      5574      5576      5574      5577
      5578      5579      5578      5580      5578      5581      5566      5567
      5567      5568      5567      5569      5567      5582      5582      5583
      5582      5584      5582      5588      5589      5590      5588      5585
      5585      5589      5585      5586      5585      5587      5590      5591
      5590      5592      5590      5593      5593      5594      5593      5601
      5593      5595      5601      5602      5601      5603      5601      5604
      5595      5596      5596      5598      5596      5597      5598      5599
      5598      5600      5598      5610      5610      5611      5610      5612
      5610      5613      5613      5614      5613      5615      5613      5616
      5616      5617      5616      5618      5616      5619      5619      5620
      5619      5621      5619      5622      5622      5623      5622      5624
      5622      5625      5625      5626      5625      5627      5625      5628
      5628      5629      5628      5630      5630      5631      5630      5632
      5632      5633      5632      5634      5632      5635      5635      5636
      5635      5637      5635      5638      5638      5639      5638      5640
      5638      5641      5641      5642      5641      5643      5641      5644
      5644      5645      5644      5646      5644      5647      5647      5648
      5647      5649      5647      5650      5650      5651      5650      5652
      5650      5653      5653      5654      5653      5655      5653      5656
      5604      5605      5605      5607      5605      5606      5607      5608
      5607      5609      5607      5657      5657      5658      5657      5659
      5657      5660      5660      5661      5660      5662      5660      5663
      5663      5664      5663      5665      5663      5666      5666      5667
      5666      5668      5666      5669      5669      5670      5669      5671
      5669      5672      5672      5673      5672      5674      5672      5675
      5675      5676      5675      5677      5675      5678      5678      5679
      5678      5680      5678      5681      5681      5682      5681      5683
      5681      5684      5684      5685      5684      5686      5684      5687
      5687      5688      5687      5689      5687      5690      5690      5691
      5690      5692      5690      5693      5693      5694      5693      5695
      5693      5696      5696      5697      5696      5698      5696      5699
      5700      5704      5700      5708      5700      5712      5704      5705
      5704      5706      5704      5707      5708      5709      5708      5710
      5708      5711      5712      5713      5712      5714      5712      5715
      5700      5701      5701      5702      5701      5703      5701      5716
      5716      5717      5716      5718      5716      5722      5723      5724
      5722      5719      5719      5723      5719      5720      5719      5721
      5724      5725      5724      5726      5724      5727      5727      5728
      5727      5735      5727      5729      5735      5736      5735      5737
      5735      5738      5729      5730      5730      5732      5730      5731
      5732      5733      5732      5734      5732      5744      5744      5745
      5744      5746      5744      5747      5747      5748      5747      5749
      5747      5750      5750      5751      5750      5752      5750      5753
      5753      5754      5753      5755      5753      5756      5756      5757
      5756      5758      5756      5759      5759      5760      5759      5761
      5759      5762      5762      5763      5762      5764      5764      5765
      5764      5766      5766      5767      5766      5768      5766      5769
      5769      5770      5769      5771      5769      5772      5772      5773
      5772      5774      5772      5775      5775      5776      5775      5777
      5775      5778      5778      5779      5778      5780      5778      5781
      5781      5782      5781      5783      5781      5784      5784      5785
      5784      5786      5784      5787      5787      5788      5787      5789
      5787      5790      5738      5739      5739      5741      5739      5740
      5741      5742      5741      5743      5741      5791      5791      5792
      5791      5793      5791      5794      5794      5795      5794      5796
      5794      5797      5797      5798      5797      5799      5797      5800
      5800      5801      5800      5802      5800      5803      5803      5804
      5803      5805      5803      5806      5806      5807      5806      5808
      5806      5809      5809      5810      5809      5811      5809      5812
      5812      5813      5812      5814      5812      5815      5815      5816
      5815      5817      5815      5818      5818      5819      5818      5820
      5818      5821      5821      5822      5821      5823      5821      5824
      5824      5825      5824      5826      5824      5827      5827      5828
      5827      5829      5827      5830      5830      5831      5830      5832
      5830      5833      5834      5838      5834      5842      5834      5846
      5838      5839      5838      5840      5838      5841      5842      5843
      5842      5844      5842      5845      5846      5847      5846      5848
      5846      5849      5834      5835      5835      5836      5835      5837
      5835      5850      5850      5851      5850      5852      5850      5856
      5857      5858      5856      5853      5853      5857      5853      5854
      5853      5855      5858      5859      5858      5860      5858      5861
      5861      5862      5861      5869      5861      5863      5869      5870
      5869      5871      5869      5872      5863      5864      5864      5866
      5864      5865      5866      5867      5866      5868      5866      5878
      5878      5879      5878      5880      5878      5881      5881      5882
      5881      5883      5881      5884      5884      5885      5884      5886
      5884      5887      5887      5888      5887      5889      5887      5890
      5890      5891      5890      5892      5890      5893      5893      5894
      5893      5895      5893      5896      5896      5897      5896      5898
      5898      5899      5898      5900      5900      5901      5900      5902
      5900      5903      5903      5904      5903      5905      5903      5906
      5906      5907      5906      5908      5906      5909      5909      5910
      5909      5911      5909      5912      5912      5913      5912      5914
      5912      5915      5915      5916      5915      5917      5915      5918
      5918      5919      5918      5920      5918      5921      5921      5922
      5921      5923      5921      5924      5872      5873      5873      5875
      5873      5874      5875      5876      5875      5877      5875      5925
      5925      5926      5925      5927      5925      5928      5928      5929
      5928      5930      5928      5931      5931      5932      5931      5933
      5931      5934      5934      5935      5934      5936      5934      5937
      5937      5938      5937      5939      5937      5940      5940      5941
      5940      5942      5940      5943      5943      5944      5943      5945
      5943      5946      5946      5947      5946      5948      5946      5949
      5949      5950      5949      5951      5949      5952      5952      5953
      5952      5954      5952      5955      5955      5956      5955      5957
      5955      5958      5958      5959      5958      5960      5958      5961
      5961      5962      5961      5963      5961      5964      5964      5965
      5964      5966      5964      5967      5968      5972      5968      5976
      5968      5980      5972      5973      5972      5974      5972      5975
      5976      5977      5976      5978      5976      5979      5980      5981
      5980      5982      5980      5983      5968      5969      5969      5970
      5969      5971      5969      5984      5984      5985      5984      5986
      5984      5990      5991      5992      5990      5987      5987      5991
      5987      5988      5987      5989      5992      5993      5992      5994
      5992      5995      5995      5996      5995      6003      5995      5997
      6003      6004      6003      6005      6003      6006      5997      5998
      5998      6000      5998      5999      6000      6001      6000      6002
      6000      6012      6012      6013      6012      6014      6012      6015
      6015      6016      6015      6017      6015      6018      6018      6019
      6018      6020      6018      6021      6021      6022      6021      6023
      6021      6024      6024      6025      6024      6026      6024      6027
      6027      6028      6027      6029      6027      6030      6030      6031
      6030      6032      6032      6033      6032      6034      6034      6035
      6034      6036      6034      6037      6037      6038      6037      6039
      6037      6040      6040      6041      6040      6042      6040      6043
      6043      6044      6043      6045      6043      6046      6046      6047
      6046      6048      6046      6049      6049      6050      6049      6051
      6049      6052      6052      6053      6052      6054      6052      6055
      6055      6056      6055      6057      6055      6058      6006      6007
      6007      6009      6007      6008      6009      6010      6009      6011
      6009      6059      6059      6060      6059      6061      6059      6062
      6062      6063      6062      6064      6062      6065      6065      6066
      6065      6067      6065      6068      6068      6069      6068      6070
      6068      6071      6071      6072      6071      6073      6071      6074
      6074      6075      6074      6076      6074      6077      6077      6078
      6077      6079      6077      6080      6080      6081      6080      6082
      6080      6083      6083      6084      6083      6085      6083      6086
      6086      6087      6086      6088      6086      6089      6089      6090
      6089      6091      6089      6092      6092      6093      6092      6094
      6092      6095      6095      6096      6095      6097      6095      6098
      6098      6099      6098      6100      6098      6101      6102      6106
      6102      6110      6102      6114      6106      6107      6106      6108
      6106      6109      6110      6111      6110      6112      6110      6113
      6114      6115      6114      6116      6114      6117      6102      6103
      6103      6104      6103      6105      6103      6118      6118      6119
      6118      6120      6118      6124      6125      6126      6124      6121
      6121      6125      6121      6122      6121      6123      6126      6127
      6126      6128      6126      6129      6129      6130      6129      6137
      6129      6131      6137      6138      6137      6139      6137      6140
      6131      6132      6132      6134      6132      6133      6134      6135
      6134      6136      6134      6146      6146      6147      6146      6148
      6146      6149      6149      6150      6149      6151      6149      6152
      6152      6153      6152      6154      6152      6155      6155      6156
      6155      6157      6155      6158      6158      6159      6158      6160
      6158      6161      6161      6162      6161      6163      6161      6164
      6164      6165      6164      6166      6166      6167      6166      6168
      6168      6169      6168      6170      6168      6171      6171      6172
      6171      6173      6171      6174      6174      6175      6174      6176
      6174      6177      6177      6178      6177      6179      6177      6180
      6180      6181      6180      6182      6180      6183      6183      6184
      6183      6185      6183      6186      6186      6187      6186      6188
      6186      6189      6189      6190      6189      6191      6189      6192
      6140      6141      6141      6143      6141      6142      6143      6144
      6143      6145      6143      6193      6193      6194      6193      6195
      6193      6196      6196      6197      6196      6198      6196      6199
      6199      6200      6199      6201      6199      6202      6202      6203
      6202      6204      6202      6205      6205      6206      6205      6207
      6205      6208      6208      6209      6208      6210      6208      6211
      6211      6212      6211      6213      6211      6214      6214      6215
      6214      6216      6214      6217      6217      6218      6217      6219
      6217      6220      6220      6221      6220      6222      6220      6223
      6223      6224      6223      6225      6223      6226      6226      6227
      6226      6228      6226      6229      6229      6230      6229      6231
      6229      6232      6232      6233      6232      6234      6232      6235
      6236      6240      6236      6244      6236      6248      6240      6241
      6240      6242      6240      6243      6244      6245      6244      6246
      6244      6247      6248      6249      6248      6250      6248      6251
      6236      6237      6237      6238      6237      6239      6237      6252
      6252      6253      6252      6254      6252      6258      6259      6260
      6258      6255      6255      6259      6255      6256      6255      6257
      6260      6261      6260      6262      6260      6263      6263      6264
      6263      6271      6263      6265      6271      6272      6271      6273
      6271      6274      6265      6266      6266      6268      6266      6267
      6268      6269      6268      6270      6268      6280      6280      6281
      6280      6282      6280      6283      6283      6284      6283      6285
      6283      6286      6286      6287      6286      6288      6286      6289
      6289      6290      6289      6291      6289      6292      6292      6293
      6292      6294      6292      6295      6295      6296      6295      6297
      6295      6298      6298      6299      6298      6300      6300      6301
      6300      6302      6302      6303      6302      6304      6302      6305
      6305      6306      6305      6307      6305      6308      6308      6309
      6308      6310      6308      6311      6311      6312      6311      6313
      6311      6314      6314      6315      6314      6316      6314      6317
      6317      6318      6317      6319      6317      6320      6320      6321
      6320      6322      6320      6323      6323      6324      6323      6325
      6323      6326      6274      6275      6275      6277      6275      6276
      6277      6278      6277      6279      6277      6327      6327      6328
      6327      6329      6327      6330      6330      6331      6330      6332
      6330      6333      6333      6334      6333      6335      6333      6336
      6336      6337      6336      6338      6336      6339      6339      6340
      6339      6341      6339      6342      6342      6343      6342      6344
      6342      6345      6345      6346      6345      6347      6345      6348
      6348      6349      6348      6350      6348      6351      6351      6352
      6351      6353      6351      6354      6354      6355      6354      6356
      6354      6357      6357      6358      6357      6359      6357      6360
      6360      6361      6360      6362      6360      6363      6363      6364
      6363      6365      6363      6366      6366      6367      6366      6368
      6366      6369      6370      6374      6370      6378      6370      6382
      6374      6375      6374      6376      6374      6377      6378      6379
      6378      6380      6378      6381      6382      6383      6382      6384
      6382      6385      6370      6371      6371      6372      6371      6373
      6371      6386      6386      6387      6386      6388      6386      6392
      6393      6394      6392      6389      6389      6393      6389      6390
      6389      6391      6394      6395      6394      6396      6394      6397
      6397      6398      6397      6405      6397      6399      6405      6406
      6405      6407      6405      6408      6399      6400      6400      6402
      6400      6401      6402      6403      6402      6404      6402      6414
      6414      6415      6414      6416      6414      6417      6417      6418
      6417      6419      6417      6420      6420      6421      6420      6422
      6420      6423      6423      6424      6423      6425      6423      6426
      6426      6427      6426      6428      6426      6429      6429      6430
      6429      6431      6429      6432      6432      6433      6432      6434
      6434      6435      6434      6436      6436      6437      6436      6438
      6436      6439      6439      6440      6439      6441      6439      6442
      6442      6443      6442      6444      6442      6445      6445      6446
      6445      6447      6445      6448      6448      6449      6448      6450
      6448      6451      6451      6452      6451      6453      6451      6454
      6454      6455      6454      6456      6454      6457      6457      6458
      6457      6459      6457      6460      6408      6409      6409      6411
      6409      6410      6411      6412      6411      6413      6411      6461
      6461      6462      6461      6463      6461      6464      6464      6465
      6464      6466      6464      6467      6467      6468      6467      6469
      6467      6470      6470      6471      6470      6472      6470      6473
      6473      6474      6473      6475      6473      6476      6476      6477
      6476      6478      6476      6479      6479      6480      6479      6481
      6479      6482      6482      6483      6482      6484      6482      6485
      6485      6486      6485      6487      6485      6488      6488      6489
      6488      6490      6488      6491      6491      6492      6491      6493
      6491      6494      6494      6495      6494      6496      6494      6497
      6497      6498      6497      6499      6497      6500      6500      6501
      6500      6502      6500      6503      6504      6508      6504      6512
      6504      6516      6508      6509      6508      6510      6508      6511
      6512      6513      6512      6514      6512      6515      6516      6517
      6516      6518      6516      6519      6504      6505      6505      6506
      6505      6507      6505      6520      6520      6521      6520      6522
      6520      6526      6527      6528      6526      6523      6523      6527
      6523      6524      6523      6525      6528      6529      6528      6530
      6528      6531      6531      6532      6531      6539      6531      6533
      6539      6540      6539      6541      6539      6542      6533      6534
      6534      6536      6534      6535      6536      6537      6536      6538
      6536      6548      6548      6549      6548      6550      6548      6551
      6551      6552      6551      6553      6551      6554      6554      6555
      6554      6556      6554      6557      6557      6558      6557      6559
      6557      6560      6560      6561      6560      6562      6560      6563
      6563      6564      6563      6565      6563      6566      6566      6567
      6566      6568      6568      6569      6568      6570      6570      6571
      6570      6572      6570      6573      6573      6574      6573      6575
      6573      6576      6576      6577      6576      6578      6576      6579
      6579      6580      6579      6581      6579      6582      6582      6583
      6582      6584      6582      6585      6585      6586      6585      6587
      6585      6588      6588      6589      6588      6590      6588      6591
      6591      6592      6591      6593      6591      6594      6542      6543
      6543      6545      6543      6544      6545      6546      6545      6547
      6545      6595      6595      6596      6595      6597      6595      6598
      6598      6599      6598      6600      6598      6601      6601      6602
      6601      6603      6601      6604      6604      6605      6604      6606
      6604      6607      6607      6608      6607      6609      6607      6610
      6610      6611      6610      6612      6610      6613      6613      6614
      6613      6615      6613      6616      6616      6617      6616      6618
      6616      6619      6619      6620      6619      6621      6619      6622
      6622      6623      6622      6624      6622      6625      6625      6626
      6625      6627      6625      6628      6628      6629      6628      6630
      6628      6631      6631      6632      6631      6633      6631      6634
      6634      6635      6634      6636      6634      6637      6638      6642
      6638      6646      6638      6650      6642      6643      6642      6644
      6642      6645      6646      6647      6646      6648      6646      6649
      6650      6651      6650      6652      6650      6653      6638      6639
      6639      6640      6639      6641      6639      6654      6654      6655
      6654      6656      6654      6660      6661      6662      6660      6657
      6657      6661      6657      6658      6657      6659      6662      6663
      6662      6664      6662      6665      6665      6666      6665      6673
      6665      6667      6673      6674      6673      6675      6673      6676
      6667      6668      6668      6670      6668      6669      6670      6671
      6670      6672      6670      6682      6682      6683      6682      6684
      6682      6685      6685      6686      6685      6687      6685      6688
      6688      6689      6688      6690      6688      6691      6691      6692
      6691      6693      6691      6694      6694      6695      6694      6696
      6694      6697      6697      6698      6697      6699      6697      6700
      6700      6701      6700      6702      6702      6703      6702      6704
      6704      6705      6704      6706      6704      6707      6707      6708
      6707      6709      6707      6710      6710      6711      6710      6712
      6710      6713      6713      6714      6713      6715      6713      6716
      6716      6717      6716      6718      6716      6719      6719      6720
      6719      6721      6719      6722      6722      6723      6722      6724
      6722      6725      6725      6726      6725      6727      6725      6728
      6676      6677      6677      6679      6677      6678      6679      6680
      6679      6681      6679      6729      6729      6730      6729      6731
      6729      6732      6732      6733      6732      6734      6732      6735
      6735      6736      6735      6737      6735      6738      6738      6739
      6738      6740      6738      6741      6741      6742      6741      6743
      6741      6744      6744      6745      6744      6746      6744      6747
      6747      6748      6747      6749      6747      6750      6750      6751
      6750      6752      6750      6753      6753      6754      6753      6755
      6753      6756      6756      6757      6756      6758      6756      6759
      6759      6760      6759      6761      6759      6762      6762      6763
      6762      6764      6762      6765      6765      6766      6765      6767
      6765      6768      6768      6769      6768      6770      6768      6771
      6772      6776      6772      6780      6772      6784      6776      6777
      6776      6778      6776      6779      6780      6781      6780      6782
      6780      6783      6784      6785      6784      6786      6784      6787
      6772      6773      6773      6774      6773      6775      6773      6788
      6788      6789      6788      6790      6788      6794      6795      6796
      6794      6791      6791      6795      6791      6792      6791      6793
      6796      6797      6796      6798      6796      6799      6799      6800
      6799      6807      6799      6801      6807      6808      6807      6809
      6807      6810      6801      6802      6802      6804      6802      6803
      6804      6805      6804      6806      6804      6816      6816      6817
      6816      6818      6816      6819      6819      6820      6819      6821
      6819      6822      6822      6823      6822      6824      6822      6825
      6825      6826      6825      6827      6825      6828      6828      6829
      6828      6830      6828      6831      6831      6832      6831      6833
      6831      6834      6834      6835      6834      6836      6836      6837
      6836      6838      6838      6839      6838      6840      6838      6841
      6841      6842      6841      6843      6841      6844      6844      6845
      6844      6846      6844      6847      6847      6848      6847      6849
      6847      6850      6850      6851      6850      6852      6850      6853
      6853      6854      6853      6855      6853      6856      6856      6857
      6856      6858      6856      6859      6859      6860      6859      6861
      6859      6862      6810      6811      6811      6813      6811      6812
      6813      6814      6813      6815      6813      6863      6863      6864
      6863      6865      6863      6866      6866      6867      6866      6868
      6866      6869      6869      6870      6869      6871      6869      6872
      6872      6873      6872      6874      6872      6875      6875      6876
      6875      6877      6875      6878      6878      6879      6878      6880
      6878      6881      6881      6882      6881      6883      6881      6884
      6884      6885      6884      6886      6884      6887      6887      6888
      6887      6889      6887      6890      6890      6891      6890      6892
      6890      6893      6893      6894      6893      6895      6893      6896
      6896      6897      6896      6898      6896      6899      6899      6900
      6899      6901      6899      6902      6902      6903      6902      6904
      6902      6905      6906      6910      6906      6914      6906      6918
      6910      6911      6910      6912      6910      6913      6914      6915
      6914      6916      6914      6917      6918      6919      6918      6920
      6918      6921      6906      6907      6907      6908      6907      6909
      6907      6922      6922      6923      6922      6924      6922      6928
      6929      6930      6928      6925      6925      6929      6925      6926
      6925      6927      6930      6931      6930      6932      6930      6933
      6933      6934      6933      6941      6933      6935      6941      6942
      6941      6943      6941      6944      6935      6936      6936      6938
      6936      6937      6938      6939      6938      6940      6938      6950
      6950      6951      6950      6952      6950      6953      6953      6954
      6953      6955      6953      6956      6956      6957      6956      6958
      6956      6959      6959      6960      6959      6961      6959      6962
      6962      6963      6962      6964      6962      6965      6965      6966
      6965      6967      6965      6968      6968      6969      6968      6970
      6970      6971      6970      6972      6972      6973      6972      6974
      6972      6975      6975      6976      6975      6977      6975      6978
      6978      6979      6978      6980      6978      6981      6981      6982
      6981      6983      6981      6984      6984      6985      6984      6986
      6984      6987      6987      6988      6987      6989      6987      6990
      6990      6991      6990      6992      6990      6993      6993      6994
      6993      6995      6993      6996      6944      6945      6945      6947
      6945      6946      6947      6948      6947      6949      6947      6997
      6997      6998      6997      6999      6997      7000      7000      7001
      7000      7002      7000      7003      7003      7004      7003      7005
      7003      7006      7006      7007      7006      7008      7006      7009
      7009      7010      7009      7011      7009      7012      7012      7013
      7012      7014      7012      7015      7015      7016      7015      7017
      7015      7018      7018      7019      7018      7020      7018      7021
      7021      7022      7021      7023      7021      7024      7024      7025
      7024      7026      7024      7027      7027      7028      7027      7029
      7027      7030      7030      7031      7030      7032      7030      7033
      7033      7034      7033      7035      7033      7036      7036      7037
      7036      7038      7036      7039      7040      7044      7040      7048
      7040      7052      7044      7045      7044      7046      7044      7047
      7048      7049      7048      7050      7048      7051      7052      7053
      7052      7054      7052      7055      7040      7041      7041      7042
      7041      7043      7041      7056      7056      7057      7056      7058
      7056      7062      7063      7064      7062      7059      7059      7063
      7059      7060      7059      7061      7064      7065      7064      7066
      7064      7067      7067      7068      7067      7075      7067      7069
      7075      7076      7075      7077      7075      7078      7069      7070
      7070      7072      7070      7071      7072      7073      7072      7074
      7072      7084      7084      7085      7084      7086      7084      7087
      7087      7088      7087      7089      7087      7090      7090      7091
      7090      7092      7090      7093      7093      7094      7093      7095
      7093      7096      7096      7097      7096      7098      7096      7099
      7099      7100      7099      7101      7099      7102      7102      7103
      7102      7104      7104      7105      7104      7106      7106      7107
      7106      7108      7106      7109      7109      7110      7109      7111
      7109      7112      7112      7113      7112      7114      7112      7115
      7115      7116      7115      7117      7115      7118      7118      7119
      7118      7120      7118      7121      7121      7122      7121      7123
      7121      7124      7124      7125      7124      7126      7124      7127
      7127      7128      7127      7129      7127      7130      7078      7079
      7079      7081      7079      7080      7081      7082      7081      7083
      7081      7131      7131      7132      7131      7133      7131      7134
      7134      7135      7134      7136      7134      7137      7137      7138
      7137      7139      7137      7140      7140      7141      7140      7142
      7140      7143      7143      7144      7143      7145      7143      7146
      7146      7147      7146      7148      7146      7149      7149      7150
      7149      7151      7149      7152      7152      7153      7152      7154
      7152      7155      7155      7156      7155      7157      7155      7158
      7158      7159      7158      7160      7158      7161      7161      7162
      7161      7163      7161      7164      7164      7165      7164      7166
      7164      7167      7167      7168      7167      7169      7167      7170
      7170      7171      7170      7172      7170      7173      7174      7175
      7174      7176      7174      7177      7174      7178      7182      7180
      7180      7178      7180      7181      7178      7179      7178      7183
      7191      7190      7183      7184      7183      7185      7183      7189
      7189      7186      7186      7190      7186      7187      7186      7188
      7191      7192      7191      7193      7191      7194      7194      7195
      7194      7202      7194      7196      7202      7203      7202      7204
      7202      7205      7196      7197      7197      7199      7197      7198
      7199      7200      7199      7201      7199      7211      7211      7212
      7211      7213      7211      7214      7214      7215      7214      7216
      7214      7217      7217      7218      7217      7219      7217      7220
      7220      7221      7220      7222      7220      7223      7223      7224
      7223      7225      7223      7226      7226      7227      7226      7228
      7226      7229      7229      7230      7229      7231      7231      7232
      7231      7233      7233      7234      7233      7235      7233      7236
      7236      7237      7236      7238      7236      7239      7239      7240
      7239      7241      7239      7242      7242      7243      7242      7244
      7242      7245      7245      7246      7245      7247      7245      7248
      7248      7249      7248      7250      7248      7251      7251      7252
      7251      7253      7251      7254      7254      7255      7254      7256
      7254      7257      7205      7206      7206      7208      7206      7207
      7208      7209      7208      7210      7208      7258      7258      7259
      7258      7260      7258      7261      7261      7262      7261      7263
      7261      7264      7264      7265      7264      7266      7264      7267
      7267      7268      7267      7269      7267      7270      7270      7271
      7270      7272      7270      7273      7273      7274      7273      7275
      7273      7276      7276      7277      7276      7278      7276      7279
      7279      7280      7279      7281      7279      7282      7282      7283
      7282      7284      7282      7285      7285      7286      7285      7287
      7285      7288      7288      7289      7288      7290      7288      7291
      7291      7292      7291      7293      7291      7294      7294      7295
      7294      7296      7294      7297      7297      7298      7297      7299
      7297      7300      7301      7302      7301      7303      7301      7304
      7301      7305      7309      7307      7307      7305      7307      7308
      7305      7306      7305      7310      7318      7317      7310      7311
      7310      7312      7310      7316      7316      7313      7313      7317
      7313      7314      7313      7315      7318      7319      7318      7320
      7318      7321      7321      7322      7321      7329      7321      7323
      7329      7330      7329      7331      7329      7332      7323      7324
      7324      7326      7324      7325      7326      7327      7326      7328
      7326      7338      7338      7339      7338      7340      7338      7341
      7341      7342      7341      7343      7341      7344      7344      7345
      7344      7346      7344      7347      7347      7348      7347      7349
      7347      7350      7350      7351      7350      7352      7350      7353
      7353      7354      7353      7355      7353      7356      7356      7357
      7356      7358      7358      7359      7358      7360      7360      7361
      7360      7362      7360      7363      7363      7364      7363      7365
      7363      7366      7366      7367      7366      7368      7366      7369
      7369      7370      7369      7371      7369      7372      7372      7373
      7372      7374      7372      7375      7375      7376      7375      7377
      7375      7378      7378      7379      7378      7380      7378      7381
      7381      7382      7381      7383      7381      7384      7332      7333
      7333      7335      7333      7334      7335      7336      7335      7337
      7335      7385      7385      7386      7385      7387      7385      7388
      7388      7389      7388      7390      7388      7391      7391      7392
      7391      7393      7391      7394      7394      7395      7394      7396
      7394      7397      7397      7398      7397      7399      7397      7400
      7400      7401      7400      7402      7400      7403      7403      7404
      7403      7405      7403      7406      7406      7407      7406      7408
      7406      7409      7409      7410      7409      7411      7409      7412
      7412      7413      7412      7414      7412      7415      7415      7416
      7415      7417      7415      7418      7418      7419      7418      7420
      7418      7421      7421      7422      7421      7423      7421      7424
      7424      7425      7424      7426      7424      7427      7428      7432
      7428      7436      7428      7440      7432      7433      7432      7434
      7432      7435      7436      7437      7436      7438      7436      7439
      7440      7441      7440      7442      7440      7443      7428      7429
      7429      7430      7429      7431      7429      7444      7444      7445
      7444      7446      7444      7450      7451      7452      7450      7447
      7447      7451      7447      7448      7447      7449      7452      7453
      7452      7454      7452      7455      7455      7456      7455      7463
      7455      7457      7463      7464      7463      7465      7463      7466
      7457      7458      7458      7460      7458      7459      7460      7461
      7460      7462      7460      7472      7472      7473      7472      7474
      7472      7475      7475      7476      7475      7477      7475      7478
      7478      7479      7478      7480      7478      7481      7481      7482
      7481      7483      7481      7484      7484      7485      7484      7486
      7484      7487      7487      7488      7487      7489      7487      7490
      7490      7491      7490      7492      7492      7493      7492      7494
      7494      7495      7494      7496      7494      7497      7497      7498
      7497      7499      7497      7500      7500      7501      7500      7502
      7500      7503      7503      7504      7503      7505      7503      7506
      7506      7507      7506      7508      7506      7509      7509      7510
      7509      7511      7509      7512      7512      7513      7512      7514
      7512      7515      7515      7516      7515      7517      7515      7518
      7466      7467      7467      7469      7467      7468      7469      7470
      7469      7471      7469      7519      7519      7520      7519      7521
      7519      7522      7522      7523      7522      7524      7522      7525
      7525      7526      7525      7527      7525      7528      7528      7529
      7528      7530      7528      7531      7531      7532      7531      7533
      7531      7534      7534      7535      7534      7536      7534      7537
      7537      7538      7537      7539      7537      7540      7540      7541
      7540      7542      7540      7543      7543      7544      7543      7545
      7543      7546      7546      7547      7546      7548      7546      7549
      7549      7550      7549      7551      7549      7552      7552      7553
      7552      7554      7552      7555      7555      7556      7555      7557
      7555      7558      7558      7559      7558      7560      7558      7561
      7562      7566      7562      7570      7562      7574      7566      7567
      7566      7568      7566      7569      7570      7571      7570      7572
      7570      7573      7574      7575      7574      7576      7574      7577
      7562      7563      7563      7564      7563      7565      7563      7578
      7578      7579      7578      7580      7578      7584      7585      7586
      7584      7581      7581      7585      7581      7582      7581      7583
      7586      7587      7586      7588      7586      7589      7589      7590
      7589      7597      7589      7591      7597      7598      7597      7599
      7597      7600      7591      7592      7592      7594      7592      7593
      7594      7595      7594      7596      7594      7606      7606      7607
      7606      7608      7606      7609      7609      7610      7609      7611
      7609      7612      7612      7613      7612      7614      7612      7615
      7615      7616      7615      7617      7615      7618      7618      7619
      7618      7620      7618      7621      7621      7622      7621      7623
      7621      7624      7624      7625      7624      7626      7626      7627
      7626      7628      7628      7629      7628      7630      7628      7631
      7631      7632      7631      7633      7631      7634      7634      7635
      7634      7636      7634      7637      7637      7638      7637      7639
      7637      7640      7640      7641      7640      7642      7640      7643
      7643      7644      7643      7645      7643      7646      7646      7647
      7646      7648      7646      7649      7649      7650      7649      7651
      7649      7652      7600      7601      7601      7603      7601      7602
      7603      7604      7603      7605      7603      7653      7653      7654
      7653      7655      7653      7656      7656      7657      7656      7658
      7656      7659      7659      7660      7659      7661      7659      7662
      7662      7663      7662      7664      7662      7665      7665      7666
      7665      7667      7665      7668      7668      7669      7668      7670
      7668      7671      7671      7672      7671      7673      7671      7674
      7674      7675      7674      7676      7674      7677      7677      7678
      7677      7679      7677      7680      7680      7681      7680      7682
      7680      7683      7683      7684      7683      7685      7683      7686
      7686      7687      7686      7688      7686      7689      7689      7690
      7689      7691      7689      7692      7692      7693      7692      7694
      7692      7695      7696      7700      7696      7704      7696      7708
      7700      7701      7700      7702      7700      7703      7704      7705
      7704      7706      7704      7707      7708      7709      7708      7710
      7708      7711      7696      7697      7697      7698      7697      7699
      7697      7712      7712      7713      7712      7714      7712      7718
      7719      7720      7718      7715      7715      7719      7715      7716
      7715      7717      7720      7721      7720      7722      7720      7723
      7723      7724      7723      7731      7723      7725      7731      7732
      7731      7733      7731      7734      7725      7726      7726      7728
      7726      7727      7728      7729      7728      7730      7728      7740
      7740      7741      7740      7742      7740      7743      7743      7744
      7743      7745      7743      7746      7746      7747      7746      7748
      7746      7749      7749      7750      7749      7751      7749      7752
      7752      7753      7752      7754      7752      7755      7755      7756
      7755      7757      7755      7758      7758      7759      7758      7760
      7760      7761      7760      7762      7762      7763      7762      7764
      7762      7765      7765      7766      7765      7767      7765      7768
      7768      7769      7768      7770      7768      7771      7771      7772
      7771      7773      7771      7774      7774      7775      7774      7776
      7774      7777      7777      7778      7777      7779      7777      7780
      7780      7781      7780      7782      7780      7783      7783      7784
      7783      7785      7783      7786      7734      7735      7735      7737
      7735      7736      7737      7738      7737      7739      7737      7787
      7787      7788      7787      7789      7787      7790      7790      7791
      7790      7792      7790      7793      7793      7794      7793      7795
      7793      7796      7796      7797      7796      7798      7796      7799
      7799      7800      7799      7801      7799      7802      7802      7803
      7802      7804      7802      7805      7805      7806      7805      7807
      7805      7808      7808      7809      7808      7810      7808      7811
      7811      7812      7811      7813      7811      7814      7814      7815
      7814      7816      7814      7817      7817      7818      7817      7819
      7817      7820      7820      7821      7820      7822      7820      7823
      7823      7824      7823      7825      7823      7826      7826      7827
      7826      7828      7826      7829      7830      7834      7830      7838
      7830      7842      7834      7835      7834      7836      7834      7837
      7838      7839      7838      7840      7838      7841      7842      7843
      7842      7844      7842      7845      7830      7831      7831      7832
      7831      7833      7831      7846      7846      7847      7846      7848
      7846      7852      7853      7854      7852      7849      7849      7853
      7849      7850      7849      7851      7854      7855      7854      7856
      7854      7857      7857      7858      7857      7865      7857      7859
      7865      7866      7865      7867      7865      7868      7859      7860
      7860      7862      7860      7861      7862      7863      7862      7864
      7862      7874      7874      7875      7874      7876      7874      7877
      7877      7878      7877      7879      7877      7880      7880      7881
      7880      7882      7880      7883      7883      7884      7883      7885
      7883      7886      7886      7887      7886      7888      7886      7889
      7889      7890      7889      7891      7889      7892      7892      7893
      7892      7894      7894      7895      7894      7896      7896      7897
      7896      7898      7896      7899      7899      7900      7899      7901
      7899      7902      7902      7903      7902      7904      7902      7905
      7905      7906      7905      7907      7905      7908      7908      7909
      7908      7910      7908      7911      7911      7912      7911      7913
      7911      7914      7914      7915      7914      7916      7914      7917
      7917      7918      7917      7919      7917      7920      7868      7869
      7869      7871      7869      7870      7871      7872      7871      7873
      7871      7921      7921      7922      7921      7923      7921      7924
      7924      7925      7924      7926      7924      7927      7927      7928
      7927      7929      7927      7930      7930      7931      7930      7932
      7930      7933      7933      7934      7933      7935      7933      7936
      7936      7937      7936      7938      7936      7939      7939      7940
      7939      7941      7939      7942      7942      7943      7942      7944
      7942      7945      7945      7946      7945      7947      7945      7948
      7948      7949      7948      7950      7948      7951      7951      7952
      7951      7953      7951      7954      7954      7955      7954      7956
      7954      7957      7957      7958      7957      7959      7957      7960
      7960      7961      7960      7962      7960      7963      7964      7968
      7964      7972      7964      7976      7968      7969      7968      7970
      7968      7971      7972      7973      7972      7974      7972      7975
      7976      7977      7976      7978      7976      7979      7964      7965
      7965      7966      7965      7967      7965      7980      7980      7981
      7980      7982      7980      7986      7987      7988      7986      7983
      7983      7987      7983      7984      7983      7985      7988      7989
      7988      7990      7988      7991      7991      7992      7991      7999
      7991      7993      7999      8000      7999      8001      7999      8002
      7993      7994      7994      7996      7994      7995      7996      7997
      7996      7998      7996      8008      8008      8009      8008      8010
      8008      8011      8011      8012      8011      8013      8011      8014
      8014      8015      8014      8016      8014      8017      8017      8018
      8017      8019      8017      8020      8020      8021      8020      8022
      8020      8023      8023      8024      8023      8025      8023      8026
      8026      8027      8026      8028      8028      8029      8028      8030
      8030      8031      8030      8032      8030      8033      8033      8034
      8033      8035      8033      8036      8036      8037      8036      8038
      8036      8039      8039      8040      8039      8041      8039      8042
      8042      8043      8042      8044      8042      8045      8045      8046
      8045      8047      8045      8048      8048      8049      8048      8050
      8048      8051      8051      8052      8051      8053      8051      8054
      8002      8003      8003      8005      8003      8004      8005      8006
      8005      8007      8005      8055      8055      8056      8055      8057
      8055      8058      8058      8059      8058      8060      8058      8061
      8061      8062      8061      8063      8061      8064      8064      8065
      8064      8066      8064      8067      8067      8068      8067      8069
      8067      8070      8070      8071      8070      8072      8070      8073
      8073      8074      8073      8075      8073      8076      8076      8077
      8076      8078      8076      8079      8079      8080      8079      8081
      8079      8082      8082      8083      8082      8084      8082      8085
      8085      8086      8085      8087      8085      8088      8088      8089
      8088      8090      8088      8091      8091      8092      8091      8093
      8091      8094      8094      8095      8094      8096      8094      8097
      8098      8099      8098      8100      8098      8101      8098      8102
      8106      8104      8104      8102      8104      8105      8102      8103
      8102      8107      8115      8114      8107      8108      8107      8109
      8107      8113      8113      8110      8110      8114      8110      8111
      8110      8112      8115      8116      8115      8117      8115      8118
      8118      8119      8118      8126      8118      8120      8126      8127
      8126      8128      8126      8129      8120      8121      8121      8123
      8121      8122      8123      8124      8123      8125      8123      8135
      8135      8136      8135      8137      8135      8138      8138      8139
      8138      8140      8138      8141      8141      8142      8141      8143
      8141      8144      8144      8145      8144      8146      8144      8147
      8147      8148      8147      8149      8147      8150      8150      8151
      8150      8152      8150      8153      8153      8154      8153      8155
      8155      8156      8155      8157      8157      8158      8157      8159
      8157      8160      8160      8161      8160      8162      8160      8163
      8163      8164      8163      8165      8163      8166      8166      8167
      8166      8168      8166      8169      8169      8170      8169      8171
      8169      8172      8172      8173      8172      8174      8172      8175
      8175      8176      8175      8177      8175      8178      8178      8179
      8178      8180      8178      8181      8129      8130      8130      8132
      8130      8131      8132      8133      8132      8134      8132      8182
      8182      8183      8182      8184      8182      8185      8185      8186
      8185      8187      8185      8188      8188      8189      8188      8190
      8188      8191      8191      8192      8191      8193      8191      8194
      8194      8195      8194      8196      8194      8197      8197      8198
      8197      8199      8197      8200      8200      8201      8200      8202
      8200      8203      8203      8204      8203      8205      8203      8206
      8206      8207      8206      8208      8206      8209      8209      8210
      8209      8211      8209      8212      8212      8213      8212      8214
      8212      8215      8215      8216      8215      8217      8215      8218
      8218      8219      8218      8220      8218      8221      8221      8222
      8221      8223      8221      8224      8225      8229      8225      8233
      8225      8237      8229      8230      8229      8231      8229      8232
      8233      8234      8233      8235      8233      8236      8237      8238
      8237      8239      8237      8240      8225      8226      8226      8227
      8226      8228      8226      8241      8241      8242      8241      8243
      8241      8247      8248      8249      8247      8244      8244      8248
      8244      8245      8244      8246      8249      8250      8249      8251
      8249      8252      8252      8253      8252      8260      8252      8254
      8260      8261      8260      8262      8260      8263      8254      8255
      8255      8257      8255      8256      8257      8258      8257      8259
      8257      8269      8269      8270      8269      8271      8269      8272
      8272      8273      8272      8274      8272      8275      8275      8276
      8275      8277      8275      8278      8278      8279      8278      8280
      8278      8281      8281      8282      8281      8283      8281      8284
      8284      8285      8284      8286      8284      8287      8287      8288
      8287      8289      8289      8290      8289      8291      8291      8292
      8291      8293      8291      8294      8294      8295      8294      8296
      8294      8297      8297      8298      8297      8299      8297      8300
      8300      8301      8300      8302      8300      8303      8303      8304
      8303      8305      8303      8306      8306      8307      8306      8308
      8306      8309      8309      8310      8309      8311      8309      8312
      8312      8313      8312      8314      8312      8315      8263      8264
      8264      8266      8264      8265      8266      8267      8266      8268
      8266      8316      8316      8317      8316      8318      8316      8319
      8319      8320      8319      8321      8319      8322      8322      8323
      8322      8324      8322      8325      8325      8326      8325      8327
      8325      8328      8328      8329      8328      8330      8328      8331
      8331      8332      8331      8333      8331      8334      8334      8335
      8334      8336      8334      8337      8337      8338      8337      8339
      8337      8340      8340      8341      8340      8342      8340      8343
      8343      8344      8343      8345      8343      8346      8346      8347
      8346      8348      8346      8349      8349      8350      8349      8351
      8349      8352      8352      8353      8352      8354      8352      8355
      8355      8356      8355      8357      8355      8358      8359      8363
      8359      8367      8359      8371      8363      8364      8363      8365
      8363      8366      8367      8368      8367      8369      8367      8370
      8371      8372      8371      8373      8371      8374      8359      8360
      8360      8361      8360      8362      8360      8375      8375      8376
      8375      8377      8375      8381      8382      8383      8381      8378
      8378      8382      8378      8379      8378      8380      8383      8384
      8383      8385      8383      8386      8386      8387      8386      8394
      8386      8388      8394      8395      8394      8396      8394      8397
      8388      8389      8389      8391      8389      8390      8391      8392
      8391      8393      8391      8403      8403      8404      8403      8405
      8403      8406      8406      8407      8406      8408      8406      8409
      8409      8410      8409      8411      8409      8412      8412      8413
      8412      8414      8412      8415      8415      8416      8415      8417
      8415      8418      8418      8419      8418      8420      8418      8421
      8421      8422      8421      8423      8423      8424      8423      8425
      8425      8426      8425      8427      8425      8428      8428      8429
      8428      8430      8428      8431      8431      8432      8431      8433
      8431      8434      8434      8435      8434      8436      8434      8437
      8437      8438      8437      8439      8437      8440      8440      8441
      8440      8442      8440      8443      8443      8444      8443      8445
      8443      8446      8446      8447      8446      8448      8446      8449
      8397      8398      8398      8400      8398      8399      8400      8401
      8400      8402      8400      8450      8450      8451      8450      8452
      8450      8453      8453      8454      8453      8455      8453      8456
      8456      8457      8456      8458      8456      8459      8459      8460
      8459      8461      8459      8462      8462      8463      8462      8464
      8462      8465      8465      8466      8465      8467      8465      8468
      8468      8469      8468      8470      8468      8471      8471      8472
      8471      8473      8471      8474      8474      8475      8474      8476
      8474      8477      8477      8478      8477      8479      8477      8480
      8480      8481      8480      8482      8480      8483      8483      8484
      8483      8485      8483      8486      8486      8487      8486      8488
      8486      8489      8489      8490      8489      8491      8489      8492
      8493      8497      8493      8501      8493      8505      8497      8498
      8497      8499      8497      8500      8501      8502      8501      8503
      8501      8504      8505      8506      8505      8507      8505      8508
      8493      8494      8494      8495      8494      8496      8494      8509
      8509      8510      8509      8511      8509      8515      8516      8517
      8515      8512      8512      8516      8512      8513      8512      8514
      8517      8518      8517      8519      8517      8520      8520      8521
      8520      8528      8520      8522      8528      8529      8528      8530
      8528      8531      8522      8523      8523      8525      8523      8524
      8525      8526      8525      8527      8525      8537      8537      8538
      8537      8539      8537      8540      8540      8541      8540      8542
      8540      8543      8543      8544      8543      8545      8543      8546
      8546      8547      8546      8548      8546      8549      8549      8550
      8549      8551      8549      8552      8552      8553      8552      8554
      8552      8555      8555      8556      8555      8557      8557      8558
      8557      8559      8559      8560      8559      8561      8559      8562
      8562      8563      8562      8564      8562      8565      8565      8566
      8565      8567      8565      8568      8568      8569      8568      8570
      8568      8571      8571      8572      8571      8573      8571      8574
      8574      8575      8574      8576      8574      8577      8577      8578
      8577      8579      8577      8580      8580      8581      8580      8582
      8580      8583      8531      8532      8532      8534      8532      8533
      8534      8535      8534      8536      8534      8584      8584      8585
      8584      8586      8584      8587      8587      8588      8587      8589
      8587      8590      8590      8591      8590      8592      8590      8593
      8593      8594      8593      8595      8593      8596      8596      8597
      8596      8598      8596      8599      8599      8600      8599      8601
      8599      8602      8602      8603      8602      8604      8602      8605
      8605      8606      8605      8607      8605      8608      8608      8609
      8608      8610      8608      8611      8611      8612      8611      8613
      8611      8614      8614      8615      8614      8616      8614      8617
      8617      8618      8617      8619      8617      8620      8620      8621
      8620      8622      8620      8623      8623      8624      8623      8625
      8623      8626      8627      8628      8627      8629      8627      8630
      8627      8631      8635      8633      8633      8631      8633      8634
      8631      8632      8631      8636      8644      8643      8636      8637
      8636      8638      8636      8642      8642      8639      8639      8643
      8639      8640      8639      8641      8644      8645      8644      8646
      8644      8647      8647      8648      8647      8655      8647      8649
      8655      8656      8655      8657      8655      8658      8649      8650
      8650      8652      8650      8651      8652      8653      8652      8654
      8652      8664      8664      8665      8664      8666      8664      8667
      8667      8668      8667      8669      8667      8670      8670      8671
      8670      8672      8670      8673      8673      8674      8673      8675
      8673      8676      8676      8677      8676      8678      8676      8679
      8679      8680      8679      8681      8679      8682      8682      8683
      8682      8684      8684      8685      8684      8686      8686      8687
      8686      8688      8686      8689      8689      8690      8689      8691
      8689      8692      8692      8693      8692      8694      8692      8695
      8695      8696      8695      8697      8695      8698      8698      8699
      8698      8700      8698      8701      8701      8702      8701      8703
      8701      8704      8704      8705      8704      8706      8704      8707
      8707      8708      8707      8709      8707      8710      8658      8659
      8659      8661      8659      8660      8661      8662      8661      8663
      8661      8711      8711      8712      8711      8713      8711      8714
      8714      8715      8714      8716      8714      8717      8717      8718
      8717      8719      8717      8720      8720      8721      8720      8722
      8720      8723      8723      8724      8723      8725      8723      8726
      8726      8727      8726      8728      8726      8729      8729      8730
      8729      8731      8729      8732      8732      8733      8732      8734
      8732      8735      8735      8736      8735      8737      8735      8738
      8738      8739      8738      8740      8738      8741      8741      8742
      8741      8743      8741      8744      8744      8745      8744      8746
      8744      8747      8747      8748      8747      8749      8747      8750
      8750      8751      8750      8752      8750      8753      8754      8755
      8754      8756      8754      8757      8754      8758      8762      8760
      8760      8758      8760      8761      8758      8759      8758      8763
      8771      8770      8763      8764      8763      8765      8763      8769
      8769      8766      8766      8770      8766      8767      8766      8768
      8771      8772      8771      8773      8771      8774      8774      8775
      8774      8782      8774      8776      8782      8783      8782      8784
      8782      8785      8776      8777      8777      8779      8777      8778
      8779      8780      8779      8781      8779      8791      8791      8792
      8791      8793      8791      8794      8794      8795      8794      8796
      8794      8797      8797      8798      8797      8799      8797      8800
      8800      8801      8800      8802      8800      8803      8803      8804
      8803      8805      8803      8806      8806      8807      8806      8808
      8806      8809      8809      8810      8809      8811      8811      8812
      8811      8813      8813      8814      8813      8815      8813      8816
      8816      8817      8816      8818      8816      8819      8819      8820
      8819      8821      8819      8822      8822      8823      8822      8824
      8822      8825      8825      8826      8825      8827      8825      8828
      8828      8829      8828      8830      8828      8831      8831      8832
      8831      8833      8831      8834      8834      8835      8834      8836
      8834      8837      8785      8786      8786      8788      8786      8787
      8788      8789      8788      8790      8788      8838      8838      8839
      8838      8840      8838      8841      8841      8842      8841      8843
      8841      8844      8844      8845      8844      8846      8844      8847
      8847      8848      8847      8849      8847      8850      8850      8851
      8850      8852      8850      8853      8853      8854      8853      8855
      8853      8856      8856      8857      8856      8858      8856      8859
      8859      8860      8859      8861      8859      8862      8862      8863
      8862      8864      8862      8865      8865      8866      8865      8867
      8865      8868      8868      8869      8868      8870      8868      8871
      8871      8872      8871      8873      8871      8874      8874      8875
      8874      8876      8874      8877      8877      8878      8877      8879
      8877      8880      8881      8885      8881      8889      8881      8893
      8885      8886      8885      8887      8885      8888      8889      8890
      8889      8891      8889      8892      8893      8894      8893      8895
      8893      8896      8881      8882      8882      8883      8882      8884
      8882      8897      8897      8898      8897      8899      8897      8903
      8904      8905      8903      8900      8900      8904      8900      8901
      8900      8902      8905      8906      8905      8907      8905      8908
      8908      8909      8908      8916      8908      8910      8916      8917
      8916      8918      8916      8919      8910      8911      8911      8913
      8911      8912      8913      8914      8913      8915      8913      8925
      8925      8926      8925      8927      8925      8928      8928      8929
      8928      8930      8928      8931      8931      8932      8931      8933
      8931      8934      8934      8935      8934      8936      8934      8937
      8937      8938      8937      8939      8937      8940      8940      8941
      8940      8942      8940      8943      8943      8944      8943      8945
      8945      8946      8945      8947      8947      8948      8947      8949
      8947      8950      8950      8951      8950      8952      8950      8953
      8953      8954      8953      8955      8953      8956      8956      8957
      8956      8958      8956      8959      8959      8960      8959      8961
      8959      8962      8962      8963      8962      8964      8962      8965
      8965      8966      8965      8967      8965      8968      8968      8969
      8968      8970      8968      8971      8919      8920      8920      8922
      8920      8921      8922      8923      8922      8924      8922      8972
      8972      8973      8972      8974      8972      8975      8975      8976
      8975      8977      8975      8978      8978      8979      8978      8980
      8978      8981      8981      8982      8981      8983      8981      8984
      8984      8985      8984      8986      8984      8987      8987      8988
      8987      8989      8987      8990      8990      8991      8990      8992
      8990      8993      8993      8994      8993      8995      8993      8996
      8996      8997      8996      8998      8996      8999      8999      9000
      8999      9001      8999      9002      9002      9003      9002      9004
      9002      9005      9005      9006      9005      9007      9005      9008
      9008      9009      9008      9010      9008      9011      9011      9012
      9011      9013      9011      9014      9015      9019      9015      9023
      9015      9027      9019      9020      9019      9021      9019      9022
      9023      9024      9023      9025      9023      9026      9027      9028
      9027      9029      9027      9030      9015      9016      9016      9017
      9016      9018      9016      9031      9031      9032      9031      9033
      9031      9037      9038      9039      9037      9034      9034      9038
      9034      9035      9034      9036      9039      9040      9039      9041
      9039      9042      9042      9043      9042      9050      9042      9044
      9050      9051      9050      9052      9050      9053      9044      9045
      9045      9047      9045      9046      9047      9048      9047      9049
      9047      9059      9059      9060      9059      9061      9059      9062
      9062      9063      9062      9064      9062      9065      9065      9066
      9065      9067      9065      9068      9068      9069      9068      9070
      9068      9071      9071      9072      9071      9073      9071      9074
      9074      9075      9074      9076      9074      9077      9077      9078
      9077      9079      9079      9080      9079      9081      9081      9082
      9081      9083      9081      9084      9084      9085      9084      9086
      9084      9087      9087      9088      9087      9089      9087      9090
      9090      9091      9090      9092      9090      9093      9093      9094
      9093      9095      9093      9096      9096      9097      9096      9098
      9096      9099      9099      9100      9099      9101      9099      9102
      9102      9103      9102      9104      9102      9105      9053      9054
      9054      9056      9054      9055      9056      9057      9056      9058
      9056      9106      9106      9107      9106      9108      9106      9109
      9109      9110      9109      9111      9109      9112      9112      9113
      9112      9114      9112      9115      9115      9116      9115      9117
      9115      9118      9118      9119      9118      9120      9118      9121
      9121      9122      9121      9123      9121      9124      9124      9125
      9124      9126      9124      9127      9127      9128      9127      9129
      9127      9130      9130      9131      9130      9132      9130      9133
      9133      9134      9133      9135      9133      9136      9136      9137
      9136      9138      9136      9139      9139      9140      9139      9141
      9139      9142      9142      9143      9142      9144      9142      9145
      9145      9146      9145      9147      9145      9148      9149      9153
      9149      9157      9149      9161      9153      9154      9153      9155
      9153      9156      9157      9158      9157      9159      9157      9160
      9161      9162      9161      9163      9161      9164      9149      9150
      9150      9151      9150      9152      9150      9165      9165      9166
      9165      9167      9165      9171      9172      9173      9171      9168
      9168      9172      9168      9169      9168      9170      9173      9174
      9173      9175      9173      9176      9176      9177      9176      9184
      9176      9178      9184      9185      9184      9186      9184      9187
      9178      9179      9179      9181      9179      9180      9181      9182
      9181      9183      9181      9193      9193      9194      9193      9195
      9193      9196      9196      9197      9196      9198      9196      9199
      9199      9200      9199      9201      9199      9202      9202      9203
      9202      9204      9202      9205      9205      9206      9205      9207
      9205      9208      9208      9209      9208      9210      9208      9211
      9211      9212      9211      9213      9213      9214      9213      9215
      9215      9216      9215      9217      9215      9218      9218      9219
      9218      9220      9218      9221      9221      9222      9221      9223
      9221      9224      9224      9225      9224      9226      9224      9227
      9227      9228      9227      9229      9227      9230      9230      9231
      9230      9232      9230      9233      9233      9234      9233      9235
      9233      9236      9236      9237      9236      9238      9236      9239
      9187      9188      9188      9190      9188      9189      9190      9191
      9190      9192      9190      9240      9240      9241      9240      9242
      9240      9243      9243      9244      9243      9245      9243      9246
      9246      9247      9246      9248      9246      9249      9249      9250
      9249      9251      9249      9252      9252      9253      9252      9254
      9252      9255      9255      9256      9255      9257      9255      9258
      9258      9259      9258      9260      9258      9261      9261      9262
      9261      9263      9261      9264      9264      9265      9264      9266
      9264      9267      9267      9268      9267      9269      9267      9270
      9270      9271      9270      9272      9270      9273      9273      9274
      9273      9275      9273      9276      9276      9277      9276      9278
      9276      9279      9279      9280      9279      9281      9279      9282
      9283      9284      9283      9285      9283      9286      9283      9287
      9291      9289      9289      9287      9289      9290      9287      9288
      9287      9292      9300      9299      9292      9293      9292      9294
      9292      9298      9298      9295      9295      9299      9295      9296
      9295      9297      9300      9301      9300      9302      9300      9303
      9303      9304      9303      9311      9303      9305      9311      9312
      9311      9313      9311      9314      9305      9306      9306      9308
      9306      9307      9308      9309      9308      9310      9308      9320
      9320      9321      9320      9322      9320      9323      9323      9324
      9323      9325      9323      9326      9326      9327      9326      9328
      9326      9329      9329      9330      9329      9331      9329      9332
      9332      9333      9332      9334      9332      9335      9335      9336
      9335      9337      9335      9338      9338      9339      9338      9340
      9340      9341      9340      9342      9342      9343      9342      9344
      9342      9345      9345      9346      9345      9347      9345      9348
      9348      9349      9348      9350      9348      9351      9351      9352
      9351      9353      9351      9354      9354      9355      9354      9356
      9354      9357      9357      9358      9357      9359      9357      9360
      9360      9361      9360      9362      9360      9363      9363      9364
      9363      9365      9363      9366      9314      9315      9315      9317
      9315      9316      9317      9318      9317      9319      9317      9367
      9367      9368      9367      9369      9367      9370      9370      9371
      9370      9372      9370      9373      9373      9374      9373      9375
      9373      9376      9376      9377      9376      9378      9376      9379
      9379      9380      9379      9381      9379      9382      9382      9383
      9382      9384      9382      9385      9385      9386      9385      9387
      9385      9388      9388      9389      9388      9390      9388      9391
      9391      9392      9391      9393      9391      9394      9394      9395
      9394      9396      9394      9397      9397      9398      9397      9399
      9397      9400      9400      9401      9400      9402      9400      9403
      9403      9404      9403      9405      9403      9406      9406      9407
      9406      9408      9406      9409      9410      9414      9410      9418
      9410      9422      9414      9415      9414      9416      9414      9417
      9418      9419      9418      9420      9418      9421      9422      9423
      9422      9424      9422      9425      9410      9411      9411      9412
      9411      9413      9411      9426      9426      9427      9426      9428
      9426      9432      9433      9434      9432      9429      9429      9433
      9429      9430      9429      9431      9434      9435      9434      9436
      9434      9437      9437      9438      9437      9445      9437      9439
      9445      9446      9445      9447      9445      9448      9439      9440
      9440      9442      9440      9441      9442      9443      9442      9444
      9442      9454      9454      9455      9454      9456      9454      9457
      9457      9458      9457      9459      9457      9460      9460      9461
      9460      9462      9460      9463      9463      9464      9463      9465
      9463      9466      9466      9467      9466      9468      9466      9469
      9469      9470      9469      9471      9469      9472      9472      9473
      9472      9474      9474      9475      9474      9476      9476      9477
      9476      9478      9476      9479      9479      9480      9479      9481
      9479      9482      9482      9483      9482      9484      9482      9485
      9485      9486      9485      9487      9485      9488      9488      9489
      9488      9490      9488      9491      9491      9492      9491      9493
      9491      9494      9494      9495      9494      9496      9494      9497
      9497      9498      9497      9499      9497      9500      9448      9449
      9449      9451      9449      9450      9451      9452      9451      9453
      9451      9501      9501      9502      9501      9503      9501      9504
      9504      9505      9504      9506      9504      9507      9507      9508
      9507      9509      9507      9510      9510      9511      9510      9512
      9510      9513      9513      9514      9513      9515      9513      9516
      9516      9517      9516      9518      9516      9519      9519      9520
      9519      9521      9519      9522      9522      9523      9522      9524
      9522      9525      9525      9526      9525      9527      9525      9528
      9528      9529      9528      9530      9528      9531      9531      9532
      9531      9533      9531      9534      9534      9535      9534      9536
      9534      9537      9537      9538      9537      9539      9537      9540
      9540      9541      9540      9542      9540      9543      9544      9548
      9544      9552      9544      9556      9548      9549      9548      9550
      9548      9551      9552      9553      9552      9554      9552      9555
      9556      9557      9556      9558      9556      9559      9544      9545
      9545      9546      9545      9547      9545      9560      9560      9561
      9560      9562      9560      9566      9567      9568      9566      9563
      9563      9567      9563      9564      9563      9565      9568      9569
      9568      9570      9568      9571      9571      9572      9571      9579
      9571      9573      9579      9580      9579      9581      9579      9582
      9573      9574      9574      9576      9574      9575      9576      9577
      9576      9578      9576      9588      9588      9589      9588      9590
      9588      9591      9591      9592      9591      9593      9591      9594
      9594      9595      9594      9596      9594      9597      9597      9598
      9597      9599      9597      9600      9600      9601      9600      9602
      9600      9603      9603      9604      9603      9605      9603      9606
      9606      9607      9606      9608      9608      9609      9608      9610
      9610      9611      9610      9612      9610      9613      9613      9614
      9613      9615      9613      9616      9616      9617      9616      9618
      9616      9619      9619      9620      9619      9621      9619      9622
      9622      9623      9622      9624      9622      9625      9625      9626
      9625      9627      9625      9628      9628      9629      9628      9630
      9628      9631      9631      9632      9631      9633      9631      9634
      9582      9583      9583      9585      9583      9584      9585      9586
      9585      9587      9585      9635      9635      9636      9635      9637
      9635      9638      9638      9639      9638      9640      9638      9641
      9641      9642      9641      9643      9641      9644      9644      9645
      9644      9646      9644      9647      9647      9648      9647      9649
      9647      9650      9650      9651      9650      9652      9650      9653
      9653      9654      9653      9655      9653      9656      9656      9657
      9656      9658      9656      9659      9659      9660      9659      9661
      9659      9662      9662      9663      9662      9664      9662      9665
      9665      9666      9665      9667      9665      9668      9668      9669
      9668      9670      9668      9671      9671      9672      9671      9673
      9671      9674      9674      9675      9674      9676      9674      9677
      9678      9682      9678      9686      9678      9690      9682      9683
      9682      9684      9682      9685      9686      9687      9686      9688
      9686      9689      9690      9691      9690      9692      9690      9693
      9678      9679      9679      9680      9679      9681      9679      9694
      9694      9695      9694      9696      9694      9700      9701      9702
      9700      9697      9697      9701      9697      9698      9697      9699
      9702      9703      9702      9704      9702      9705      9705      9706
      9705      9713      9705      9707      9713      9714      9713      9715
      9713      9716      9707      9708      9708      9710      9708      9709
      9710      9711      9710      9712      9710      9722      9722      9723
      9722      9724      9722      9725      9725      9726      9725      9727
      9725      9728      9728      9729      9728      9730      9728      9731
      9731      9732      9731      9733      9731      9734      9734      9735
      9734      9736      9734      9737      9737      9738      9737      9739
      9737      9740      9740      9741      9740      9742      9742      9743
      9742      9744      9744      9745      9744      9746      9744      9747
      9747      9748      9747      9749      9747      9750      9750      9751
      9750      9752      9750      9753      9753      9754      9753      9755
      9753      9756      9756      9757      9756      9758      9756      9759
      9759      9760      9759      9761      9759      9762      9762      9763
      9762      9764      9762      9765      9765      9766      9765      9767
      9765      9768      9716      9717      9717      9719      9717      9718
      9719      9720      9719      9721      9719      9769      9769      9770
      9769      9771      9769      9772      9772      9773      9772      9774
      9772      9775      9775      9776      9775      9777      9775      9778
      9778      9779      9778      9780      9778      9781      9781      9782
      9781      9783      9781      9784      9784      9785      9784      9786
      9784      9787      9787      9788      9787      9789      9787      9790
      9790      9791      9790      9792      9790      9793      9793      9794
      9793      9795      9793      9796      9796      9797      9796      9798
      9796      9799      9799      9800      9799      9801      9799      9802
      9802      9803      9802      9804      9802      9805      9805      9806
      9805      9807      9805      9808      9808      9809      9808      9810
      9808      9811      9812      9813      9812      9814      9812      9815
      9812      9816      9820      9818      9818      9816      9818      9819
      9816      9817      9816      9821      9829      9828      9821      9822
      9821      9823      9821      9827      9827      9824      9824      9828
      9824      9825      9824      9826      9829      9830      9829      9831
      9829      9832      9832      9833      9832      9840      9832      9834
      9840      9841      9840      9842      9840      9843      9834      9835
      9835      9837      9835      9836      9837      9838      9837      9839
      9837      9849      9849      9850      9849      9851      9849      9852
      9852      9853      9852      9854      9852      9855      9855      9856
      9855      9857      9855      9858      9858      9859      9858      9860
      9858      9861      9861      9862      9861      9863      9861      9864
      9864      9865      9864      9866      9864      9867      9867      9868
      9867      9869      9869      9870      9869      9871      9871      9872
      9871      9873      9871      9874      9874      9875      9874      9876
      9874      9877      9877      9878      9877      9879      9877      9880
      9880      9881      9880      9882      9880      9883      9883      9884
      9883      9885      9883      9886      9886      9887      9886      9888
      9886      9889      9889      9890      9889      9891      9889      9892
      9892      9893      9892      9894      9892      9895      9843      9844
      9844      9846      9844      9845      9846      9847      9846      9848
      9846      9896      9896      9897      9896      9898      9896      9899
      9899      9900      9899      9901      9899      9902      9902      9903
      9902      9904      9902      9905      9905      9906      9905      9907
      9905      9908      9908      9909      9908      9910      9908      9911
      9911      9912      9911      9913      9911      9914      9914      9915
      9914      9916      9914      9917      9917      9918      9917      9919
      9917      9920      9920      9921      9920      9922      9920      9923
      9923      9924      9923      9925      9923      9926      9926      9927
      9926      9928      9926      9929      9929      9930      9929      9931
      9929      9932      9932      9933      9932      9934      9932      9935
      9935      9936      9935      9937      9935      9938      9939      9943
      9939      9947      9939      9951      9943      9944      9943      9945
      9943      9946      9947      9948      9947      9949      9947      9950
      9951      9952      9951      9953      9951      9954      9939      9940
      9940      9941      9940      9942      9940      9955      9955      9956
      9955      9957      9955      9961      9962      9963      9961      9958
      9958      9962      9958      9959      9958      9960      9963      9964
      9963      9965      9963      9966      9966      9967      9966      9974
      9966      9968      9974      9975      9974      9976      9974      9977
      9968      9969      9969      9971      9969      9970      9971      9972
      9971      9973      9971      9983      9983      9984      9983      9985
      9983      9986      9986      9987      9986      9988      9986      9989
      9989      9990      9989      9991      9989      9992      9992      9993
      9992      9994      9992      9995      9995      9996      9995      9997
      9995      9998      9998      9999      9998     10000      9998     10001
     10001     10002     10001     10003     10003     10004     10003     10005
     10005     10006     10005     10007     10005     10008     10008     10009
     10008     10010     10008     10011     10011     10012     10011     10013
     10011     10014     10014     10015     10014     10016     10014     10017
     10017     10018     10017     10019     10017     10020     10020     10021
     10020     10022     10020     10023     10023     10024     10023     10025
     10023     10026     10026     10027     10026     10028     10026     10029
      9977      9978      9978      9980      9978      9979      9980      9981
      9980      9982      9980     10030     10030     10031     10030     10032
     10030     10033     10033     10034     10033     10035     10033     10036
     10036     10037     10036     10038     10036     10039     10039     10040
     10039     10041     10039     10042     10042     10043     10042     10044
     10042     10045     10045     10046     10045     10047     10045     10048
     10048     10049     10048     10050     10048     10051     10051     10052
     10051     10053     10051     10054     10054     10055     10054     10056
     10054     10057     10057     10058     10057     10059     10057     10060
     10060     10061     10060     10062     10060     10063     10063     10064
     10063     10065     10063     10066     10066     10067     10066     10068
     10066     10069     10069     10070     10069     10071     10069     10072
     10073     10077     10073     10081     10073     10085     10077     10078
     10077     10079     10077     10080     10081     10082     10081     10083
     10081     10084     10085     10086     10085     10087     10085     10088
     10073     10074     10074     10075     10074     10076     10074     10089
     10089     10090     10089     10091     10089     10095     10096     10097
     10095     10092     10092     10096     10092     10093     10092     10094
     10097     10098     10097     10099     10097     10100     10100     10101
     10100     10108     10100     10102     10108     10109     10108     10110
     10108     10111     10102     10103     10103     10105     10103     10104
     10105     10106     10105     10107     10105     10117     10117     10118
     10117     10119     10117     10120     10120     10121     10120     10122
     10120     10123     10123     10124     10123     10125     10123     10126
     10126     10127     10126     10128     10126     10129     10129     10130
     10129     10131     10129     10132     10132     10133     10132     10134
     10132     10135     10135     10136     10135     10137     10137     10138
     10137     10139     10139     10140     10139     10141     10139     10142
     10142     10143     10142     10144     10142     10145     10145     10146
     10145     10147     10145     10148     10148     10149     10148     10150
     10148     10151     10151     10152     10151     10153     10151     10154
     10154     10155     10154     10156     10154     10157     10157     10158
     10157     10159     10157     10160     10160     10161     10160     10162
     10160     10163     10111     10112     10112     10114     10112     10113
     10114     10115     10114     10116     10114     10164     10164     10165
     10164     10166     10164     10167     10167     10168     10167     10169
     10167     10170     10170     10171     10170     10172     10170     10173
     10173     10174     10173     10175     10173     10176     10176     10177
     10176     10178     10176     10179     10179     10180     10179     10181
     10179     10182     10182     10183     10182     10184     10182     10185
     10185     10186     10185     10187     10185     10188     10188     10189
     10188     10190     10188     10191     10191     10192     10191     10193
     10191     10194     10194     10195     10194     10196     10194     10197
     10197     10198     10197     10199     10197     10200     10200     10201
     10200     10202     10200     10203     10203     10204     10203     10205
     10203     10206     10207     10211     10207     10215     10207     10219
     10211     10212     10211     10213     10211     10214     10215     10216
     10215     10217     10215     10218     10219     10220     10219     10221
     10219     10222     10207     10208     10208     10209     10208     10210
     10208     10223     10223     10224     10223     10225     10223     10229
     10230     10231     10229     10226     10226     10230     10226     10227
     10226     10228     10231     10232     10231     10233     10231     10234
     10234     10235     10234     10242     10234     10236     10242     10243
     10242     10244     10242     10245     10236     10237     10237     10239
     10237     10238     10239     10240     10239     10241     10239     10251
     10251     10252     10251     10253     10251     10254     10254     10255
     10254     10256     10254     10257     10257     10258     10257     10259
     10257     10260     10260     10261     10260     10262     10260     10263
     10263     10264     10263     10265     10263     10266     10266     10267
     10266     10268     10266     10269     10269     10270     10269     10271
     10271     10272     10271     10273     10273     10274     10273     10275
     10273     10276     10276     10277     10276     10278     10276     10279
     10279     10280     10279     10281     10279     10282     10282     10283
     10282     10284     10282     10285     10285     10286     10285     10287
     10285     10288     10288     10289     10288     10290     10288     10291
     10291     10292     10291     10293     10291     10294     10294     10295
     10294     10296     10294     10297     10245     10246     10246     10248
     10246     10247     10248     10249     10248     10250     10248     10298
     10298     10299     10298     10300     10298     10301     10301     10302
     10301     10303     10301     10304     10304     10305     10304     10306
     10304     10307     10307     10308     10307     10309     10307     10310
     10310     10311     10310     10312     10310     10313     10313     10314
     10313     10315     10313     10316     10316     10317     10316     10318
     10316     10319     10319     10320     10319     10321     10319     10322
     10322     10323     10322     10324     10322     10325     10325     10326
     10325     10327     10325     10328     10328     10329     10328     10330
     10328     10331     10331     10332     10331     10333     10331     10334
     10334     10335     10334     10336     10334     10337     10337     10338
     10337     10339     10337     10340     10341     10345     10341     10349
     10341     10353     10345     10346     10345     10347     10345     10348
     10349     10350     10349     10351     10349     10352     10353     10354
     10353     10355     10353     10356     10341     10342     10342     10343
     10342     10344     10342     10357     10357     10358     10357     10359
     10357     10363     10364     10365     10363     10360     10360     10364
     10360     10361     10360     10362     10365     10366     10365     10367
     10365     10368     10368     10369     10368     10376     10368     10370
     10376     10377     10376     10378     10376     10379     10370     10371
     10371     10373     10371     10372     10373     10374     10373     10375
     10373     10385     10385     10386     10385     10387     10385     10388
     10388     10389     10388     10390     10388     10391     10391     10392
     10391     10393     10391     10394     10394     10395     10394     10396
     10394     10397     10397     10398     10397     10399     10397     10400
     10400     10401     10400     10402     10400     10403     10403     10404
     10403     10405     10405     10406     10405     10407     10407     10408
     10407     10409     10407     10410     10410     10411     10410     10412
     10410     10413     10413     10414     10413     10415     10413     10416
     10416     10417     10416     10418     10416     10419     10419     10420
     10419     10421     10419     10422     10422     10423     10422     10424
     10422     10425     10425     10426     10425     10427     10425     10428
     10428     10429     10428     10430     10428     10431     10379     10380
     10380     10382     10380     10381     10382     10383     10382     10384
     10382     10432     10432     10433     10432     10434     10432     10435
     10435     10436     10435     10437     10435     10438     10438     10439
     10438     10440     10438     10441     10441     10442     10441     10443
     10441     10444     10444     10445     10444     10446     10444     10447
     10447     10448     10447     10449     10447     10450     10450     10451
     10450     10452     10450     10453     10453     10454     10453     10455
     10453     10456     10456     10457     10456     10458     10456     10459
     10459     10460     10459     10461     10459     10462     10462     10463
     10462     10464     10462     10465     10465     10466     10465     10467
     10465     10468     10468     10469     10468     10470     10468     10471
     10471     10472     10471     10473     10471     10474     10475     10476
     10475     10477     10475     10478     10475     10479     10483     10481
     10481     10479     10481     10482     10479     10480     10479     10484
     10492     10491     10484     10485     10484     10486     10484     10490
     10490     10487     10487     10491     10487     10488     10487     10489
     10492     10493     10492     10494     10492     10495     10495     10496
     10495     10503     10495     10497     10503     10504     10503     10505
     10503     10506     10497     10498     10498     10500     10498     10499
     10500     10501     10500     10502     10500     10512     10512     10513
     10512     10514     10512     10515     10515     10516     10515     10517
     10515     10518     10518     10519     10518     10520     10518     10521
     10521     10522     10521     10523     10521     10524     10524     10525
     10524     10526     10524     10527     10527     10528     10527     10529
     10527     10530     10530     10531     10530     10532     10532     10533
     10532     10534     10534     10535     10534     10536     10534     10537
     10537     10538     10537     10539     10537     10540     10540     10541
     10540     10542     10540     10543     10543     10544     10543     10545
     10543     10546     10546     10547     10546     10548     10546     10549
     10549     10550     10549     10551     10549     10552     10552     10553
     10552     10554     10552     10555     10555     10556     10555     10557
     10555     10558     10506     10507     10507     10509     10507     10508
     10509     10510     10509     10511     10509     10559     10559     10560
     10559     10561     10559     10562     10562     10563     10562     10564
     10562     10565     10565     10566     10565     10567     10565     10568
     10568     10569     10568     10570     10568     10571     10571     10572
     10571     10573     10571     10574     10574     10575     10574     10576
     10574     10577     10577     10578     10577     10579     10577     10580
     10580     10581     10580     10582     10580     10583     10583     10584
     10583     10585     10583     10586     10586     10587     10586     10588
     10586     10589     10589     10590     10589     10591     10589     10592
     10592     10593     10592     10594     10592     10595     10595     10596
     10595     10597     10595     10598     10598     10599     10598     10600
     10598     10601     10602     10603     10602     10604     10602     10605
     10602     10606     10610     10608     10608     10606     10608     10609
     10606     10607     10606     10611     10619     10618     10611     10612
     10611     10613     10611     10617     10617     10614     10614     10618
     10614     10615     10614     10616     10619     10620     10619     10621
     10619     10622     10622     10623     10622     10630     10622     10624
     10630     10631     10630     10632     10630     10633     10624     10625
     10625     10627     10625     10626     10627     10628     10627     10629
     10627     10639     10639     10640     10639     10641     10639     10642
     10642     10643     10642     10644     10642     10645     10645     10646
     10645     10647     10645     10648     10648     10649     10648     10650
     10648     10651     10651     10652     10651     10653     10651     10654
     10654     10655     10654     10656     10654     10657     10657     10658
     10657     10659     10659     10660     10659     10661     10661     10662
     10661     10663     10661     10664     10664     10665     10664     10666
     10664     10667     10667     10668     10667     10669     10667     10670
     10670     10671     10670     10672     10670     10673     10673     10674
     10673     10675     10673     10676     10676     10677     10676     10678
     10676     10679     10679     10680     10679     10681     10679     10682
     10682     10683     10682     10684     10682     10685     10633     10634
     10634     10636     10634     10635     10636     10637     10636     10638
     10636     10686     10686     10687     10686     10688     10686     10689
     10689     10690     10689     10691     10689     10692     10692     10693
     10692     10694     10692     10695     10695     10696     10695     10697
     10695     10698     10698     10699     10698     10700     10698     10701
     10701     10702     10701     10703     10701     10704     10704     10705
     10704     10706     10704     10707     10707     10708     10707     10709
     10707     10710     10710     10711     10710     10712     10710     10713
     10713     10714     10713     10715     10713     10716     10716     10717
     10716     10718     10716     10719     10719     10720     10719     10721
     10719     10722     10722     10723     10722     10724     10722     10725
     10725     10726     10725     10727     10725     10728     10729     10730
     10729     10731     10729     10732     10729     10733     10737     10735
     10735     10733     10735     10736     10733     10734     10733     10738
     10746     10745     10738     10739     10738     10740     10738     10744
     10744     10741     10741     10745     10741     10742     10741     10743
     10746     10747     10746     10748     10746     10749     10749     10750
     10749     10757     10749     10751     10757     10758     10757     10759
     10757     10760     10751     10752     10752     10754     10752     10753
     10754     10755     10754     10756     10754     10766     10766     10767
     10766     10768     10766     10769     10769     10770     10769     10771
     10769     10772     10772     10773     10772     10774     10772     10775
     10775     10776     10775     10777     10775     10778     10778     10779
     10778     10780     10778     10781     10781     10782     10781     10783
     10781     10784     10784     10785     10784     10786     10786     10787
     10786     10788     10788     10789     10788     10790     10788     10791
     10791     10792     10791     10793     10791     10794     10794     10795
     10794     10796     10794     10797     10797     10798     10797     10799
     10797     10800     10800     10801     10800     10802     10800     10803
     10803     10804     10803     10805     10803     10806     10806     10807
     10806     10808     10806     10809     10809     10810     10809     10811
     10809     10812     10760     10761     10761     10763     10761     10762
     10763     10764     10763     10765     10763     10813     10813     10814
     10813     10815     10813     10816     10816     10817     10816     10818
     10816     10819     10819     10820     10819     10821     10819     10822
     10822     10823     10822     10824     10822     10825     10825     10826
     10825     10827     10825     10828     10828     10829     10828     10830
     10828     10831     10831     10832     10831     10833     10831     10834
     10834     10835     10834     10836     10834     10837     10837     10838
     10837     10839     10837     10840     10840     10841     10840     10842
     10840     10843     10843     10844     10843     10845     10843     10846
     10846     10847     10846     10848     10846     10849     10849     10850
     10849     10851     10849     10852     10852     10853     10852     10854
     10852     10855     10856     10860     10856     10864     10856     10868
     10860     10861     10860     10862     10860     10863     10864     10865
     10864     10866     10864     10867     10868     10869     10868     10870
     10868     10871     10856     10857     10857     10858     10857     10859
     10857     10872     10872     10873     10872     10874     10872     10878
     10879     10880     10878     10875     10875     10879     10875     10876
     10875     10877     10880     10881     10880     10882     10880     10883
     10883     10884     10883     10891     10883     10885     10891     10892
     10891     10893     10891     10894     10885     10886     10886     10888
     10886     10887     10888     10889     10888     10890     10888     10900
     10900     10901     10900     10902     10900     10903     10903     10904
     10903     10905     10903     10906     10906     10907     10906     10908
     10906     10909     10909     10910     10909     10911     10909     10912
     10912     10913     10912     10914     10912     10915     10915     10916
     10915     10917     10915     10918     10918     10919     10918     10920
     10920     10921     10920     10922     10922     10923     10922     10924
     10922     10925     10925     10926     10925     10927     10925     10928
     10928     10929     10928     10930     10928     10931     10931     10932
     10931     10933     10931     10934     10934     10935     10934     10936
     10934     10937     10937     10938     10937     10939     10937     10940
     10940     10941     10940     10942     10940     10943     10943     10944
     10943     10945     10943     10946     10894     10895     10895     10897
     10895     10896     10897     10898     10897     10899     10897     10947
     10947     10948     10947     10949     10947     10950     10950     10951
     10950     10952     10950     10953     10953     10954     10953     10955
     10953     10956     10956     10957     10956     10958     10956     10959
     10959     10960     10959     10961     10959     10962     10962     10963
     10962     10964     10962     10965     10965     10966     10965     10967
     10965     10968     10968     10969     10968     10970     10968     10971
     10971     10972     10971     10973     10971     10974     10974     10975
     10974     10976     10974     10977     10977     10978     10977     10979
     10977     10980     10980     10981     10980     10982     10980     10983
     10983     10984     10983     10985     10983     10986     10986     10987
     10986     10988     10986     10989     10990     10994     10990     10998
     10990     11002     10994     10995     10994     10996     10994     10997
     10998     10999     10998     11000     10998     11001     11002     11003
     11002     11004     11002     11005     10990     10991     10991     10992
     10991     10993     10991     11006     11006     11007     11006     11008
     11006     11012     11013     11014     11012     11009     11009     11013
     11009     11010     11009     11011     11014     11015     11014     11016
     11014     11017     11017     11018     11017     11025     11017     11019
     11025     11026     11025     11027     11025     11028     11019     11020
     11020     11022     11020     11021     11022     11023     11022     11024
     11022     11034     11034     11035     11034     11036     11034     11037
     11037     11038     11037     11039     11037     11040     11040     11041
     11040     11042     11040     11043     11043     11044     11043     11045
     11043     11046     11046     11047     11046     11048     11046     11049
     11049     11050     11049     11051     11049     11052     11052     11053
     11052     11054     11054     11055     11054     11056     11056     11057
     11056     11058     11056     11059     11059     11060     11059     11061
     11059     11062     11062     11063     11062     11064     11062     11065
     11065     11066     11065     11067     11065     11068     11068     11069
     11068     11070     11068     11071     11071     11072     11071     11073
     11071     11074     11074     11075     11074     11076     11074     11077
     11077     11078     11077     11079     11077     11080     11028     11029
     11029     11031     11029     11030     11031     11032     11031     11033
     11031     11081     11081     11082     11081     11083     11081     11084
     11084     11085     11084     11086     11084     11087     11087     11088
     11087     11089     11087     11090     11090     11091     11090     11092
     11090     11093     11093     11094     11093     11095     11093     11096
     11096     11097     11096     11098     11096     11099     11099     11100
     11099     11101     11099     11102     11102     11103     11102     11104
     11102     11105     11105     11106     11105     11107     11105     11108
     11108     11109     11108     11110     11108     11111     11111     11112
     11111     11113     11111     11114     11114     11115     11114     11116
     11114     11117     11117     11118     11117     11119     11117     11120
     11120     11121     11120     11122     11120     11123     11124     11128
     11124     11132     11124     11136     11128     11129     11128     11130
     11128     11131     11132     11133     11132     11134     11132     11135
     11136     11137     11136     11138     11136     11139     11124     11125
     11125     11126     11125     11127     11125     11140     11140     11141
     11140     11142     11140     11146     11147     11148     11146     11143
     11143     11147     11143     11144     11143     11145     11148     11149
     11148     11150     11148     11151     11151     11152     11151     11159
     11151     11153     11159     11160     11159     11161     11159     11162
     11153     11154     11154     11156     11154     11155     11156     11157
     11156     11158     11156     11168     11168     11169     11168     11170
     11168     11171     11171     11172     11171     11173     11171     11174
     11174     11175     11174     11176     11174     11177     11177     11178
     11177     11179     11177     11180     11180     11181     11180     11182
     11180     11183     11183     11184     11183     11185     11183     11186
     11186     11187     11186     11188     11188     11189     11188     11190
     11190     11191     11190     11192     11190     11193     11193     11194
     11193     11195     11193     11196     11196     11197     11196     11198
     11196     11199     11199     11200     11199     11201     11199     11202
     11202     11203     11202     11204     11202     11205     11205     11206
     11205     11207     11205     11208     11208     11209     11208     11210
     11208     11211     11211     11212     11211     11213     11211     11214
     11162     11163     11163     11165     11163     11164     11165     11166
     11165     11167     11165     11215     11215     11216     11215     11217
     11215     11218     11218     11219     11218     11220     11218     11221
     11221     11222     11221     11223     11221     11224     11224     11225
     11224     11226     11224     11227     11227     11228     11227     11229
     11227     11230     11230     11231     11230     11232     11230     11233
     11233     11234     11233     11235     11233     11236     11236     11237
     11236     11238     11236     11239     11239     11240     11239     11241
     11239     11242     11242     11243     11242     11244     11242     11245
     11245     11246     11245     11247     11245     11248     11248     11249
     11248     11250     11248     11251     11251     11252     11251     11253
     11251     11254     11254     11255     11254     11256     11254     11257
     11258     11262     11258     11266     11258     11270     11262     11263
     11262     11264     11262     11265     11266     11267     11266     11268
     11266     11269     11270     11271     11270     11272     11270     11273
     11258     11259     11259     11260     11259     11261     11259     11274
     11274     11275     11274     11276     11274     11280     11281     11282
     11280     11277     11277     11281     11277     11278     11277     11279
     11282     11283     11282     11284     11282     11285     11285     11286
     11285     11293     11285     11287     11293     11294     11293     11295
     11293     11296     11287     11288     11288     11290     11288     11289
     11290     11291     11290     11292     11290     11302     11302     11303
     11302     11304     11302     11305     11305     11306     11305     11307
     11305     11308     11308     11309     11308     11310     11308     11311
     11311     11312     11311     11313     11311     11314     11314     11315
     11314     11316     11314     11317     11317     11318     11317     11319
     11317     11320     11320     11321     11320     11322     11322     11323
     11322     11324     11324     11325     11324     11326     11324     11327
     11327     11328     11327     11329     11327     11330     11330     11331
     11330     11332     11330     11333     11333     11334     11333     11335
     11333     11336     11336     11337     11336     11338     11336     11339
     11339     11340     11339     11341     11339     11342     11342     11343
     11342     11344     11342     11345     11345     11346     11345     11347
     11345     11348     11296     11297     11297     11299     11297     11298
     11299     11300     11299     11301     11299     11349     11349     11350
     11349     11351     11349     11352     11352     11353     11352     11354
     11352     11355     11355     11356     11355     11357     11355     11358
     11358     11359     11358     11360     11358     11361     11361     11362
     11361     11363     11361     11364     11364     11365     11364     11366
     11364     11367     11367     11368     11367     11369     11367     11370
     11370     11371     11370     11372     11370     11373     11373     11374
     11373     11375     11373     11376     11376     11377     11376     11378
     11376     11379     11379     11380     11379     11381     11379     11382
     11382     11383     11382     11384     11382     11385     11385     11386
     11385     11387     11385     11388     11388     11389     11388     11390
     11388     11391     11392     11396     11392     11400     11392     11404
     11396     11397     11396     11398     11396     11399     11400     11401
     11400     11402     11400     11403     11404     11405     11404     11406
     11404     11407     11392     11393     11393     11394     11393     11395
     11393     11408     11408     11409     11408     11410     11408     11414
     11415     11416     11414     11411     11411     11415     11411     11412
     11411     11413     11416     11417     11416     11418     11416     11419
     11419     11420     11419     11427     11419     11421     11427     11428
     11427     11429     11427     11430     11421     11422     11422     11424
     11422     11423     11424     11425     11424     11426     11424     11436
     11436     11437     11436     11438     11436     11439     11439     11440
     11439     11441     11439     11442     11442     11443     11442     11444
     11442     11445     11445     11446     11445     11447     11445     11448
     11448     11449     11448     11450     11448     11451     11451     11452
     11451     11453     11451     11454     11454     11455     11454     11456
     11456     11457     11456     11458     11458     11459     11458     11460
     11458     11461     11461     11462     11461     11463     11461     11464
     11464     11465     11464     11466     11464     11467     11467     11468
     11467     11469     11467     11470     11470     11471     11470     11472
     11470     11473     11473     11474     11473     11475     11473     11476
     11476     11477     11476     11478     11476     11479     11479     11480
     11479     11481     11479     11482     11430     11431     11431     11433
     11431     11432     11433     11434     11433     11435     11433     11483
     11483     11484     11483     11485     11483     11486     11486     11487
     11486     11488     11486     11489     11489     11490     11489     11491
     11489     11492     11492     11493     11492     11494     11492     11495
     11495     11496     11495     11497     11495     11498     11498     11499
     11498     11500     11498     11501     11501     11502     11501     11503
     11501     11504     11504     11505     11504     11506     11504     11507
     11507     11508     11507     11509     11507     11510     11510     11511
     11510     11512     11510     11513     11513     11514     11513     11515
     11513     11516     11516     11517     11516     11518     11516     11519
     11519     11520     11519     11521     11519     11522     11522     11523
     11522     11524     11522     11525     11526     11530     11526     11534
     11526     11538     11530     11531     11530     11532     11530     11533
     11534     11535     11534     11536     11534     11537     11538     11539
     11538     11540     11538     11541     11526     11527     11527     11528
     11527     11529     11527     11542     11542     11543     11542     11544
     11542     11548     11549     11550     11548     11545     11545     11549
     11545     11546     11545     11547     11550     11551     11550     11552
     11550     11553     11553     11554     11553     11561     11553     11555
     11561     11562     11561     11563     11561     11564     11555     11556
     11556     11558     11556     11557     11558     11559     11558     11560
     11558     11570     11570     11571     11570     11572     11570     11573
     11573     11574     11573     11575     11573     11576     11576     11577
     11576     11578     11576     11579     11579     11580     11579     11581
     11579     11582     11582     11583     11582     11584     11582     11585
     11585     11586     11585     11587     11585     11588     11588     11589
     11588     11590     11590     11591     11590     11592     11592     11593
     11592     11594     11592     11595     11595     11596     11595     11597
     11595     11598     11598     11599     11598     11600     11598     11601
     11601     11602     11601     11603     11601     11604     11604     11605
     11604     11606     11604     11607     11607     11608     11607     11609
     11607     11610     11610     11611     11610     11612     11610     11613
     11613     11614     11613     11615     11613     11616     11564     11565
     11565     11567     11565     11566     11567     11568     11567     11569
     11567     11617     11617     11618     11617     11619     11617     11620
     11620     11621     11620     11622     11620     11623     11623     11624
     11623     11625     11623     11626     11626     11627     11626     11628
     11626     11629     11629     11630     11629     11631     11629     11632
     11632     11633     11632     11634     11632     11635     11635     11636
     11635     11637     11635     11638     11638     11639     11638     11640
     11638     11641     11641     11642     11641     11643     11641     11644
     11644     11645     11644     11646     11644     11647     11647     11648
     11647     11649     11647     11650     11650     11651     11650     11652
     11650     11653     11653     11654     11653     11655     11653     11656
     11656     11657     11656     11658     11656     11659     11660     11664
     11660     11668     11660     11672     11664     11665     11664     11666
     11664     11667     11668     11669     11668     11670     11668     11671
     11672     11673     11672     11674     11672     11675     11660     11661
     11661     11662     11661     11663     11661     11676     11676     11677
     11676     11678     11676     11682     11683     11684     11682     11679
     11679     11683     11679     11680     11679     11681     11684     11685
     11684     11686     11684     11687     11687     11688     11687     11695
     11687     11689     11695     11696     11695     11697     11695     11698
     11689     11690     11690     11692     11690     11691     11692     11693
     11692     11694     11692     11704     11704     11705     11704     11706
     11704     11707     11707     11708     11707     11709     11707     11710
     11710     11711     11710     11712     11710     11713     11713     11714
     11713     11715     11713     11716     11716     11717     11716     11718
     11716     11719     11719     11720     11719     11721     11719     11722
     11722     11723     11722     11724     11724     11725     11724     11726
     11726     11727     11726     11728     11726     11729     11729     11730
     11729     11731     11729     11732     11732     11733     11732     11734
     11732     11735     11735     11736     11735     11737     11735     11738
     11738     11739     11738     11740     11738     11741     11741     11742
     11741     11743     11741     11744     11744     11745     11744     11746
     11744     11747     11747     11748     11747     11749     11747     11750
     11698     11699     11699     11701     11699     11700     11701     11702
     11701     11703     11701     11751     11751     11752     11751     11753
     11751     11754     11754     11755     11754     11756     11754     11757
     11757     11758     11757     11759     11757     11760     11760     11761
     11760     11762     11760     11763     11763     11764     11763     11765
     11763     11766     11766     11767     11766     11768     11766     11769
     11769     11770     11769     11771     11769     11772     11772     11773
     11772     11774     11772     11775     11775     11776     11775     11777
     11775     11778     11778     11779     11778     11780     11778     11781
     11781     11782     11781     11783     11781     11784     11784     11785
     11784     11786     11784     11787     11787     11788     11787     11789
     11787     11790     11790     11791     11790     11792     11790     11793
     11794     11798     11794     11802     11794     11806     11798     11799
     11798     11800     11798     11801     11802     11803     11802     11804
     11802     11805     11806     11807     11806     11808     11806     11809
     11794     11795     11795     11796     11795     11797     11795     11810
     11810     11811     11810     11812     11810     11816     11817     11818
     11816     11813     11813     11817     11813     11814     11813     11815
     11818     11819     11818     11820     11818     11821     11821     11822
     11821     11829     11821     11823     11829     11830     11829     11831
     11829     11832     11823     11824     11824     11826     11824     11825
     11826     11827     11826     11828     11826     11838     11838     11839
     11838     11840     11838     11841     11841     11842     11841     11843
     11841     11844     11844     11845     11844     11846     11844     11847
     11847     11848     11847     11849     11847     11850     11850     11851
     11850     11852     11850     11853     11853     11854     11853     11855
     11853     11856     11856     11857     11856     11858     11858     11859
     11858     11860     11860     11861     11860     11862     11860     11863
     11863     11864     11863     11865     11863     11866     11866     11867
     11866     11868     11866     11869     11869     11870     11869     11871
     11869     11872     11872     11873     11872     11874     11872     11875
     11875     11876     11875     11877     11875     11878     11878     11879
     11878     11880     11878     11881     11881     11882     11881     11883
     11881     11884     11832     11833     11833     11835     11833     11834
     11835     11836     11835     11837     11835     11885     11885     11886
     11885     11887     11885     11888     11888     11889     11888     11890
     11888     11891     11891     11892     11891     11893     11891     11894
     11894     11895     11894     11896     11894     11897     11897     11898
     11897     11899     11897     11900     11900     11901     11900     11902
     11900     11903     11903     11904     11903     11905     11903     11906
     11906     11907     11906     11908     11906     11909     11909     11910
     11909     11911     11909     11912     11912     11913     11912     11914
     11912     11915     11915     11916     11915     11917     11915     11918
     11918     11919     11918     11920     11918     11921     11921     11922
     11921     11923     11921     11924     11924     11925     11924     11926
     11924     11927     11928     11932     11928     11936     11928     11940
     11932     11933     11932     11934     11932     11935     11936     11937
     11936     11938     11936     11939     11940     11941     11940     11942
     11940     11943     11928     11929     11929     11930     11929     11931
     11929     11944     11944     11945     11944     11946     11944     11950
     11951     11952     11950     11947     11947     11951     11947     11948
     11947     11949     11952     11953     11952     11954     11952     11955
     11955     11956     11955     11963     11955     11957     11963     11964
     11963     11965     11963     11966     11957     11958     11958     11960
     11958     11959     11960     11961     11960     11962     11960     11972
     11972     11973     11972     11974     11972     11975     11975     11976
     11975     11977     11975     11978     11978     11979     11978     11980
     11978     11981     11981     11982     11981     11983     11981     11984
     11984     11985     11984     11986     11984     11987     11987     11988
     11987     11989     11987     11990     11990     11991     11990     11992
     11992     11993     11992     11994     11994     11995     11994     11996
     11994     11997     11997     11998     11997     11999     11997     12000
     12000     12001     12000     12002     12000     12003     12003     12004
     12003     12005     12003     12006     12006     12007     12006     12008
     12006     12009     12009     12010     12009     12011     12009     12012
     12012     12013     12012     12014     12012     12015     12015     12016
     12015     12017     12015     12018     11966     11967     11967     11969
     11967     11968     11969     11970     11969     11971     11969     12019
     12019     12020     12019     12021     12019     12022     12022     12023
     12022     12024     12022     12025     12025     12026     12025     12027
     12025     12028     12028     12029     12028     12030     12028     12031
     12031     12032     12031     12033     12031     12034     12034     12035
     12034     12036     12034     12037     12037     12038     12037     12039
     12037     12040     12040     12041     12040     12042     12040     12043
     12043     12044     12043     12045     12043     12046     12046     12047
     12046     12048     12046     12049     12049     12050     12049     12051
     12049     12052     12052     12053     12052     12054     12052     12055
     12055     12056     12055     12057     12055     12058     12058     12059
     12058     12060     12058     12061     12062     12063     12062     12064
     12062     12065     12062     12066     12070     12068     12068     12066
     12068     12069     12066     12067     12066     12071     12079     12078
     12071     12072     12071     12073     12071     12077     12077     12074
     12074     12078     12074     12075     12074     12076     12079     12080
     12079     12081     12079     12082     12082     12083     12082     12090
     12082     12084     12090     12091     12090     12092     12090     12093
     12084     12085     12085     12087     12085     12086     12087     12088
     12087     12089     12087     12099     12099     12100     12099     12101
     12099     12102     12102     12103     12102     12104     12102     12105
     12105     12106     12105     12107     12105     12108     12108     12109
     12108     12110     12108     12111     12111     12112     12111     12113
     12111     12114     12114     12115     12114     12116     12114     12117
     12117     12118     12117     12119     12119     12120     12119     12121
     12121     12122     12121     12123     12121     12124     12124     12125
     12124     12126     12124     12127     12127     12128     12127     12129
     12127     12130     12130     12131     12130     12132     12130     12133
     12133     12134     12133     12135     12133     12136     12136     12137
     12136     12138     12136     12139     12139     12140     12139     12141
     12139     12142     12142     12143     12142     12144     12142     12145
     12093     12094     12094     12096     12094     12095     12096     12097
     12096     12098     12096     12146     12146     12147     12146     12148
     12146     12149     12149     12150     12149     12151     12149     12152
     12152     12153     12152     12154     12152     12155     12155     12156
     12155     12157     12155     12158     12158     12159     12158     12160
     12158     12161     12161     12162     12161     12163     12161     12164
     12164     12165     12164     12166     12164     12167     12167     12168
     12167     12169     12167     12170     12170     12171     12170     12172
     12170     12173     12173     12174     12173     12175     12173     12176
     12176     12177     12176     12178     12176     12179     12179     12180
     12179     12181     12179     12182     12182     12183     12182     12184
     12182     12185     12185     12186     12185     12187     12185     12188
     12189     12193     12189     12197     12189     12201     12193     12194
     12193     12195     12193     12196     12197     12198     12197     12199
     12197     12200     12201     12202     12201     12203     12201     12204
     12189     12190     12190     12191     12190     12192     12190     12205
     12205     12206     12205     12207     12205     12211     12212     12213
     12211     12208     12208     12212     12208     12209     12208     12210
     12213     12214     12213     12215     12213     12216     12216     12217
     12216     12224     12216     12218     12224     12225     12224     12226
     12224     12227     12218     12219     12219     12221     12219     12220
     12221     12222     12221     12223     12221     12233     12233     12234
     12233     12235     12233     12236     12236     12237     12236     12238
     12236     12239     12239     12240     12239     12241     12239     12242
     12242     12243     12242     12244     12242     12245     12245     12246
     12245     12247     12245     12248     12248     12249     12248     12250
     12248     12251     12251     12252     12251     12253     12253     12254
     12253     12255     12255     12256     12255     12257     12255     12258
     12258     12259     12258     12260     12258     12261     12261     12262
     12261     12263     12261     12264     12264     12265     12264     12266
     12264     12267     12267     12268     12267     12269     12267     12270
     12270     12271     12270     12272     12270     12273     12273     12274
     12273     12275     12273     12276     12276     12277     12276     12278
     12276     12279     12227     12228     12228     12230     12228     12229
     12230     12231     12230     12232     12230     12280     12280     12281
     12280     12282     12280     12283     12283     12284     12283     12285
     12283     12286     12286     12287     12286     12288     12286     12289
     12289     12290     12289     12291     12289     12292     12292     12293
     12292     12294     12292     12295     12295     12296     12295     12297
     12295     12298     12298     12299     12298     12300     12298     12301
     12301     12302     12301     12303     12301     12304     12304     12305
     12304     12306     12304     12307     12307     12308     12307     12309
     12307     12310     12310     12311     12310     12312     12310     12313
     12313     12314     12313     12315     12313     12316     12316     12317
     12316     12318     12316     12319     12319     12320     12319     12321
     12319     12322     12323     12327     12323     12331     12323     12335
     12327     12328     12327     12329     12327     12330     12331     12332
     12331     12333     12331     12334     12335     12336     12335     12337
     12335     12338     12323     12324     12324     12325     12324     12326
     12324     12339     12339     12340     12339     12341     12339     12345
     12346     12347     12345     12342     12342     12346     12342     12343
     12342     12344     12347     12348     12347     12349     12347     12350
     12350     12351     12350     12358     12350     12352     12358     12359
     12358     12360     12358     12361     12352     12353     12353     12355
     12353     12354     12355     12356     12355     12357     12355     12367
     12367     12368     12367     12369     12367     12370     12370     12371
     12370     12372     12370     12373     12373     12374     12373     12375
     12373     12376     12376     12377     12376     12378     12376     12379
     12379     12380     12379     12381     12379     12382     12382     12383
     12382     12384     12382     12385     12385     12386     12385     12387
     12387     12388     12387     12389     12389     12390     12389     12391
     12389     12392     12392     12393     12392     12394     12392     12395
     12395     12396     12395     12397     12395     12398     12398     12399
     12398     12400     12398     12401     12401     12402     12401     12403
     12401     12404     12404     12405     12404     12406     12404     12407
     12407     12408     12407     12409     12407     12410     12410     12411
     12410     12412     12410     12413     12361     12362     12362     12364
     12362     12363     12364     12365     12364     12366     12364     12414
     12414     12415     12414     12416     12414     12417     12417     12418
     12417     12419     12417     12420     12420     12421     12420     12422
     12420     12423     12423     12424     12423     12425     12423     12426
     12426     12427     12426     12428     12426     12429     12429     12430
     12429     12431     12429     12432     12432     12433     12432     12434
     12432     12435     12435     12436     12435     12437     12435     12438
     12438     12439     12438     12440     12438     12441     12441     12442
     12441     12443     12441     12444     12444     12445     12444     12446
     12444     12447     12447     12448     12447     12449     12447     12450
     12450     12451     12450     12452     12450     12453     12453     12454
     12453     12455     12453     12456     12457     12461     12457     12465
     12457     12469     12461     12462     12461     12463     12461     12464
     12465     12466     12465     12467     12465     12468     12469     12470
     12469     12471     12469     12472     12457     12458     12458     12459
     12458     12460     12458     12473     12473     12474     12473     12475
     12473     12479     12480     12481     12479     12476     12476     12480
     12476     12477     12476     12478     12481     12482     12481     12483
     12481     12484     12484     12485     12484     12492     12484     12486
     12492     12493     12492     12494     12492     12495     12486     12487
     12487     12489     12487     12488     12489     12490     12489     12491
     12489     12501     12501     12502     12501     12503     12501     12504
     12504     12505     12504     12506     12504     12507     12507     12508
     12507     12509     12507     12510     12510     12511     12510     12512
     12510     12513     12513     12514     12513     12515     12513     12516
     12516     12517     12516     12518     12516     12519     12519     12520
     12519     12521     12521     12522     12521     12523     12523     12524
     12523     12525     12523     12526     12526     12527     12526     12528
     12526     12529     12529     12530     12529     12531     12529     12532
     12532     12533     12532     12534     12532     12535     12535     12536
     12535     12537     12535     12538     12538     12539     12538     12540
     12538     12541     12541     12542     12541     12543     12541     12544
     12544     12545     12544     12546     12544     12547     12495     12496
     12496     12498     12496     12497     12498     12499     12498     12500
     12498     12548     12548     12549     12548     12550     12548     12551
     12551     12552     12551     12553     12551     12554     12554     12555
     12554     12556     12554     12557     12557     12558     12557     12559
     12557     12560     12560     12561     12560     12562     12560     12563
     12563     12564     12563     12565     12563     12566     12566     12567
     12566     12568     12566     12569     12569     12570     12569     12571
     12569     12572     12572     12573     12572     12574     12572     12575
     12575     12576     12575     12577     12575     12578     12578     12579
     12578     12580     12578     12581     12581     12582     12581     12583
     12581     12584     12584     12585     12584     12586     12584     12587
     12587     12588     12587     12589     12587     12590     12591     12595
     12591     12599     12591     12603     12595     12596     12595     12597
     12595     12598     12599     12600     12599     12601     12599     12602
     12603     12604     12603     12605     12603     12606     12591     12592
     12592     12593     12592     12594     12592     12607     12607     12608
     12607     12609     12607     12613     12614     12615     12613     12610
     12610     12614     12610     12611     12610     12612     12615     12616
     12615     12617     12615     12618     12618     12619     12618     12626
     12618     12620     12626     12627     12626     12628     12626     12629
     12620     12621     12621     12623     12621     12622     12623     12624
     12623     12625     12623     12635     12635     12636     12635     12637
     12635     12638     12638     12639     12638     12640     12638     12641
     12641     12642     12641     12643     12641     12644     12644     12645
     12644     12646     12644     12647     12647     12648     12647     12649
     12647     12650     12650     12651     12650     12652     12650     12653
     12653     12654     12653     12655     12655     12656     12655     12657
     12657     12658     12657     12659     12657     12660     12660     12661
     12660     12662     12660     12663     12663     12664     12663     12665
     12663     12666     12666     12667     12666     12668     12666     12669
     12669     12670     12669     12671     12669     12672     12672     12673
     12672     12674     12672     12675     12675     12676     12675     12677
     12675     12678     12678     12679     12678     12680     12678     12681
     12629     12630     12630     12632     12630     12631     12632     12633
     12632     12634     12632     12682     12682     12683     12682     12684
     12682     12685     12685     12686     12685     12687     12685     12688
     12688     12689     12688     12690     12688     12691     12691     12692
     12691     12693     12691     12694     12694     12695     12694     12696
     12694     12697     12697     12698     12697     12699     12697     12700
     12700     12701     12700     12702     12700     12703     12703     12704
     12703     12705     12703     12706     12706     12707     12706     12708
     12706     12709     12709     12710     12709     12711     12709     12712
     12712     12713     12712     12714     12712     12715     12715     12716
     12715     12717     12715     12718     12718     12719     12718     12720
     12718     12721     12721     12722     12721     12723     12721     12724
     12725     12729     12725     12733     12725     12737     12729     12730
     12729     12731     12729     12732     12733     12734     12733     12735
     12733     12736     12737     12738     12737     12739     12737     12740
     12725     12726     12726     12727     12726     12728     12726     12741
     12741     12742     12741     12743     12741     12747     12748     12749
     12747     12744     12744     12748     12744     12745     12744     12746
     12749     12750     12749     12751     12749     12752     12752     12753
     12752     12760     12752     12754     12760     12761     12760     12762
     12760     12763     12754     12755     12755     12757     12755     12756
     12757     12758     12757     12759     12757     12769     12769     12770
     12769     12771     12769     12772     12772     12773     12772     12774
     12772     12775     12775     12776     12775     12777     12775     12778
     12778     12779     12778     12780     12778     12781     12781     12782
     12781     12783     12781     12784     12784     12785     12784     12786
     12784     12787     12787     12788     12787     12789     12789     12790
     12789     12791     12791     12792     12791     12793     12791     12794
     12794     12795     12794     12796     12794     12797     12797     12798
     12797     12799     12797     12800     12800     12801     12800     12802
     12800     12803     12803     12804     12803     12805     12803     12806
     12806     12807     12806     12808     12806     12809     12809     12810
     12809     12811     12809     12812     12812     12813     12812     12814
     12812     12815     12763     12764     12764     12766     12764     12765
     12766     12767     12766     12768     12766     12816     12816     12817
     12816     12818     12816     12819     12819     12820     12819     12821
     12819     12822     12822     12823     12822     12824     12822     12825
     12825     12826     12825     12827     12825     12828     12828     12829
     12828     12830     12828     12831     12831     12832     12831     12833
     12831     12834     12834     12835     12834     12836     12834     12837
     12837     12838     12837     12839     12837     12840     12840     12841
     12840     12842     12840     12843     12843     12844     12843     12845
     12843     12846     12846     12847     12846     12848     12846     12849
     12849     12850     12849     12851     12849     12852     12852     12853
     12852     12854     12852     12855     12855     12856     12855     12857
     12855     12858     12859     12860     12859     12861     12859     12862
     12859     12863     12867     12865     12865     12863     12865     12866
     12863     12864     12863     12868     12876     12875     12868     12869
     12868     12870     12868     12874     12874     12871     12871     12875
     12871     12872     12871     12873     12876     12877     12876     12878
     12876     12879     12879     12880     12879     12887     12879     12881
     12887     12888     12887     12889     12887     12890     12881     12882
     12882     12884     12882     12883     12884     12885     12884     12886
     12884     12896     12896     12897     12896     12898     12896     12899
     12899     12900     12899     12901     12899     12902     12902     12903
     12902     12904     12902     12905     12905     12906     12905     12907
     12905     12908     12908     12909     12908     12910     12908     12911
     12911     12912     12911     12913     12911     12914     12914     12915
     12914     12916     12916     12917     12916     12918     12918     12919
     12918     12920     12918     12921     12921     12922     12921     12923
     12921     12924     12924     12925     12924     12926     12924     12927
     12927     12928     12927     12929     12927     12930     12930     12931
     12930     12932     12930     12933     12933     12934     12933     12935
     12933     12936     12936     12937     12936     12938     12936     12939
     12939     12940     12939     12941     12939     12942     12890     12891
     12891     12893     12891     12892     12893     12894     12893     12895
     12893     12943     12943     12944     12943     12945     12943     12946
     12946     12947     12946     12948     12946     12949     12949     12950
     12949     12951     12949     12952     12952     12953     12952     12954
     12952     12955     12955     12956     12955     12957     12955     12958
     12958     12959     12958     12960     12958     12961     12961     12962
     12961     12963     12961     12964     12964     12965     12964     12966
     12964     12967     12967     12968     12967     12969     12967     12970
     12970     12971     12970     12972     12970     12973     12973     12974
     12973     12975     12973     12976     12976     12977     12976     12978
     12976     12979     12979     12980     12979     12981     12979     12982
     12982     12983     12982     12984     12982     12985     12986     12990
     12986     12994     12986     12998     12990     12991     12990     12992
     12990     12993     12994     12995     12994     12996     12994     12997
     12998     12999     12998     13000     12998     13001     12986     12987
     12987     12988     12987     12989     12987     13002     13002     13003
     13002     13004     13002     13008     13009     13010     13008     13005
     13005     13009     13005     13006     13005     13007     13010     13011
     13010     13012     13010     13013     13013     13014     13013     13021
     13013     13015     13021     13022     13021     13023     13021     13024
     13015     13016     13016     13018     13016     13017     13018     13019
     13018     13020     13018     13030     13030     13031     13030     13032
     13030     13033     13033     13034     13033     13035     13033     13036
     13036     13037     13036     13038     13036     13039     13039     13040
     13039     13041     13039     13042     13042     13043     13042     13044
     13042     13045     13045     13046     13045     13047     13045     13048
     13048     13049     13048     13050     13050     13051     13050     13052
     13052     13053     13052     13054     13052     13055     13055     13056
     13055     13057     13055     13058     13058     13059     13058     13060
     13058     13061     13061     13062     13061     13063     13061     13064
     13064     13065     13064     13066     13064     13067     13067     13068
     13067     13069     13067     13070     13070     13071     13070     13072
     13070     13073     13073     13074     13073     13075     13073     13076
     13024     13025     13025     13027     13025     13026     13027     13028
     13027     13029     13027     13077     13077     13078     13077     13079
     13077     13080     13080     13081     13080     13082     13080     13083
     13083     13084     13083     13085     13083     13086     13086     13087
     13086     13088     13086     13089     13089     13090     13089     13091
     13089     13092     13092     13093     13092     13094     13092     13095
     13095     13096     13095     13097     13095     13098     13098     13099
     13098     13100     13098     13101     13101     13102     13101     13103
     13101     13104     13104     13105     13104     13106     13104     13107
     13107     13108     13107     13109     13107     13110     13110     13111
     13110     13112     13110     13113     13113     13114     13113     13115
     13113     13116     13116     13117     13116     13118     13116     13119
     13120     13124     13120     13128     13120     13132     13124     13125
     13124     13126     13124     13127     13128     13129     13128     13130
     13128     13131     13132     13133     13132     13134     13132     13135
     13120     13121     13121     13122     13121     13123     13121     13136
     13136     13137     13136     13138     13136     13142     13143     13144
     13142     13139     13139     13143     13139     13140     13139     13141
     13144     13145     13144     13146     13144     13147     13147     13148
     13147     13155     13147     13149     13155     13156     13155     13157
     13155     13158     13149     13150     13150     13152     13150     13151
     13152     13153     13152     13154     13152     13164     13164     13165
     13164     13166     13164     13167     13167     13168     13167     13169
     13167     13170     13170     13171     13170     13172     13170     13173
     13173     13174     13173     13175     13173     13176     13176     13177
     13176     13178     13176     13179     13179     13180     13179     13181
     13179     13182     13182     13183     13182     13184     13184     13185
     13184     13186     13186     13187     13186     13188     13186     13189
     13189     13190     13189     13191     13189     13192     13192     13193
     13192     13194     13192     13195     13195     13196     13195     13197
     13195     13198     13198     13199     13198     13200     13198     13201
     13201     13202     13201     13203     13201     13204     13204     13205
     13204     13206     13204     13207     13207     13208     13207     13209
     13207     13210     13158     13159     13159     13161     13159     13160
     13161     13162     13161     13163     13161     13211     13211     13212
     13211     13213     13211     13214     13214     13215     13214     13216
     13214     13217     13217     13218     13217     13219     13217     13220
     13220     13221     13220     13222     13220     13223     13223     13224
     13223     13225     13223     13226     13226     13227     13226     13228
     13226     13229     13229     13230     13229     13231     13229     13232
     13232     13233     13232     13234     13232     13235     13235     13236
     13235     13237     13235     13238     13238     13239     13238     13240
     13238     13241     13241     13242     13241     13243     13241     13244
     13244     13245     13244     13246     13244     13247     13247     13248
     13247     13249     13247     13250     13250     13251     13250     13252
     13250     13253     13254     13258     13254     13262     13254     13266
     13258     13259     13258     13260     13258     13261     13262     13263
     13262     13264     13262     13265     13266     13267     13266     13268
     13266     13269     13254     13255     13255     13256     13255     13257
     13255     13270     13270     13271     13270     13272     13270     13276
     13277     13278     13276     13273     13273     13277     13273     13274
     13273     13275     13278     13279     13278     13280     13278     13281
     13281     13282     13281     13289     13281     13283     13289     13290
     13289     13291     13289     13292     13283     13284     13284     13286
     13284     13285     13286     13287     13286     13288     13286     13298
     13298     13299     13298     13300     13298     13301     13301     13302
     13301     13303     13301     13304     13304     13305     13304     13306
     13304     13307     13307     13308     13307     13309     13307     13310
     13310     13311     13310     13312     13310     13313     13313     13314
     13313     13315     13313     13316     13316     13317     13316     13318
     13318     13319     13318     13320     13320     13321     13320     13322
     13320     13323     13323     13324     13323     13325     13323     13326
     13326     13327     13326     13328     13326     13329     13329     13330
     13329     13331     13329     13332     13332     13333     13332     13334
     13332     13335     13335     13336     13335     13337     13335     13338
     13338     13339     13338     13340     13338     13341     13341     13342
     13341     13343     13341     13344     13292     13293     13293     13295
     13293     13294     13295     13296     13295     13297     13295     13345
     13345     13346     13345     13347     13345     13348     13348     13349
     13348     13350     13348     13351     13351     13352     13351     13353
     13351     13354     13354     13355     13354     13356     13354     13357
     13357     13358     13357     13359     13357     13360     13360     13361
     13360     13362     13360     13363     13363     13364     13363     13365
     13363     13366     13366     13367     13366     13368     13366     13369
     13369     13370     13369     13371     13369     13372     13372     13373
     13372     13374     13372     13375     13375     13376     13375     13377
     13375     13378     13378     13379     13378     13380     13378     13381
     13381     13382     13381     13383     13381     13384     13384     13385
     13384     13386     13384     13387     13388     13392     13388     13396
     13388     13400     13392     13393     13392     13394     13392     13395
     13396     13397     13396     13398     13396     13399     13400     13401
     13400     13402     13400     13403     13388     13389     13389     13390
     13389     13391     13389     13404     13404     13405     13404     13406
     13404     13410     13411     13412     13410     13407     13407     13411
     13407     13408     13407     13409     13412     13413     13412     13414
     13412     13415     13415     13416     13415     13423     13415     13417
     13423     13424     13423     13425     13423     13426     13417     13418
     13418     13420     13418     13419     13420     13421     13420     13422
     13420     13432     13432     13433     13432     13434     13432     13435
     13435     13436     13435     13437     13435     13438     13438     13439
     13438     13440     13438     13441     13441     13442     13441     13443
     13441     13444     13444     13445     13444     13446     13444     13447
     13447     13448     13447     13449     13447     13450     13450     13451
     13450     13452     13452     13453     13452     13454     13454     13455
     13454     13456     13454     13457     13457     13458     13457     13459
     13457     13460     13460     13461     13460     13462     13460     13463
     13463     13464     13463     13465     13463     13466     13466     13467
     13466     13468     13466     13469     13469     13470     13469     13471
     13469     13472     13472     13473     13472     13474     13472     13475
     13475     13476     13475     13477     13475     13478     13426     13427
     13427     13429     13427     13428     13429     13430     13429     13431
     13429     13479     13479     13480     13479     13481     13479     13482
     13482     13483     13482     13484     13482     13485     13485     13486
     13485     13487     13485     13488     13488     13489     13488     13490
     13488     13491     13491     13492     13491     13493     13491     13494
     13494     13495     13494     13496     13494     13497     13497     13498
     13497     13499     13497     13500     13500     13501     13500     13502
     13500     13503     13503     13504     13503     13505     13503     13506
     13506     13507     13506     13508     13506     13509     13509     13510
     13509     13511     13509     13512     13512     13513     13512     13514
     13512     13515     13515     13516     13515     13517     13515     13518
     13518     13519     13518     13520     13518     13521     13522     13523
     13522     13524     13522     13525     13522     13526     13530     13528
     13528     13526     13528     13529     13526     13527     13526     13531
     13539     13538     13531     13532     13531     13533     13531     13537
     13537     13534     13534     13538     13534     13535     13534     13536
     13539     13540     13539     13541     13539     13542     13542     13543
     13542     13550     13542     13544     13550     13551     13550     13552
     13550     13553     13544     13545     13545     13547     13545     13546
     13547     13548     13547     13549     13547     13559     13559     13560
     13559     13561     13559     13562     13562     13563     13562     13564
     13562     13565     13565     13566     13565     13567     13565     13568
     13568     13569     13568     13570     13568     13571     13571     13572
     13571     13573     13571     13574     13574     13575     13574     13576
     13574     13577     13577     13578     13577     13579     13579     13580
     13579     13581     13581     13582     13581     13583     13581     13584
     13584     13585     13584     13586     13584     13587     13587     13588
     13587     13589     13587     13590     13590     13591     13590     13592
     13590     13593     13593     13594     13593     13595     13593     13596
     13596     13597     13596     13598     13596     13599     13599     13600
     13599     13601     13599     13602     13602     13603     13602     13604
     13602     13605     13553     13554     13554     13556     13554     13555
     13556     13557     13556     13558     13556     13606     13606     13607
     13606     13608     13606     13609     13609     13610     13609     13611
     13609     13612     13612     13613     13612     13614     13612     13615
     13615     13616     13615     13617     13615     13618     13618     13619
     13618     13620     13618     13621     13621     13622     13621     13623
     13621     13624     13624     13625     13624     13626     13624     13627
     13627     13628     13627     13629     13627     13630     13630     13631
     13630     13632     13630     13633     13633     13634     13633     13635
     13633     13636     13636     13637     13636     13638     13636     13639
     13639     13640     13639     13641     13639     13642     13642     13643
     13642     13644     13642     13645     13645     13646     13645     13647
     13645     13648     13649     13653     13649     13657     13649     13661
     13653     13654     13653     13655     13653     13656     13657     13658
     13657     13659     13657     13660     13661     13662     13661     13663
     13661     13664     13649     13650     13650     13651     13650     13652
     13650     13665     13665     13666     13665     13667     13665     13671
     13672     13673     13671     13668     13668     13672     13668     13669
     13668     13670     13673     13674     13673     13675     13673     13676
     13676     13677     13676     13684     13676     13678     13684     13685
     13684     13686     13684     13687     13678     13679     13679     13681
     13679     13680     13681     13682     13681     13683     13681     13693
     13693     13694     13693     13695     13693     13696     13696     13697
     13696     13698     13696     13699     13699     13700     13699     13701
     13699     13702     13702     13703     13702     13704     13702     13705
     13705     13706     13705     13707     13705     13708     13708     13709
     13708     13710     13708     13711     13711     13712     13711     13713
     13713     13714     13713     13715     13715     13716     13715     13717
     13715     13718     13718     13719     13718     13720     13718     13721
     13721     13722     13721     13723     13721     13724     13724     13725
     13724     13726     13724     13727     13727     13728     13727     13729
     13727     13730     13730     13731     13730     13732     13730     13733
     13733     13734     13733     13735     13733     13736     13736     13737
     13736     13738     13736     13739     13687     13688     13688     13690
     13688     13689     13690     13691     13690     13692     13690     13740
     13740     13741     13740     13742     13740     13743     13743     13744
     13743     13745     13743     13746     13746     13747     13746     13748
     13746     13749     13749     13750     13749     13751     13749     13752
     13752     13753     13752     13754     13752     13755     13755     13756
     13755     13757     13755     13758     13758     13759     13758     13760
     13758     13761     13761     13762     13761     13763     13761     13764
     13764     13765     13764     13766     13764     13767     13767     13768
     13767     13769     13767     13770     13770     13771     13770     13772
     13770     13773     13773     13774     13773     13775     13773     13776
     13776     13777     13776     13778     13776     13779     13779     13780
     13779     13781     13779     13782     13783     13787     13783     13791
     13783     13795     13787     13788     13787     13789     13787     13790
     13791     13792     13791     13793     13791     13794     13795     13796
     13795     13797     13795     13798     13783     13784     13784     13785
     13784     13786     13784     13799     13799     13800     13799     13801
     13799     13805     13806     13807     13805     13802     13802     13806
     13802     13803     13802     13804     13807     13808     13807     13809
     13807     13810     13810     13811     13810     13818     13810     13812
     13818     13819     13818     13820     13818     13821     13812     13813
     13813     13815     13813     13814     13815     13816     13815     13817
     13815     13827     13827     13828     13827     13829     13827     13830
     13830     13831     13830     13832     13830     13833     13833     13834
     13833     13835     13833     13836     13836     13837     13836     13838
     13836     13839     13839     13840     13839     13841     13839     13842
     13842     13843     13842     13844     13842     13845     13845     13846
     13845     13847     13847     13848     13847     13849     13849     13850
     13849     13851     13849     13852     13852     13853     13852     13854
     13852     13855     13855     13856     13855     13857     13855     13858
     13858     13859     13858     13860     13858     13861     13861     13862
     13861     13863     13861     13864     13864     13865     13864     13866
     13864     13867     13867     13868     13867     13869     13867     13870
     13870     13871     13870     13872     13870     13873     13821     13822
     13822     13824     13822     13823     13824     13825     13824     13826
     13824     13874     13874     13875     13874     13876     13874     13877
     13877     13878     13877     13879     13877     13880     13880     13881
     13880     13882     13880     13883     13883     13884     13883     13885
     13883     13886     13886     13887     13886     13888     13886     13889
     13889     13890     13889     13891     13889     13892     13892     13893
     13892     13894     13892     13895     13895     13896     13895     13897
     13895     13898     13898     13899     13898     13900     13898     13901
     13901     13902     13901     13903     13901     13904     13904     13905
     13904     13906     13904     13907     13907     13908     13907     13909
     13907     13910     13910     13911     13910     13912     13910     13913
     13913     13914     13913     13915     13913     13916     13917     13921
     13917     13925     13917     13929     13921     13922     13921     13923
     13921     13924     13925     13926     13925     13927     13925     13928
     13929     13930     13929     13931     13929     13932     13917     13918
     13918     13919     13918     13920     13918     13933     13933     13934
     13933     13935     13933     13939     13940     13941     13939     13936
     13936     13940     13936     13937     13936     13938     13941     13942
     13941     13943     13941     13944     13944     13945     13944     13952
     13944     13946     13952     13953     13952     13954     13952     13955
     13946     13947     13947     13949     13947     13948     13949     13950
     13949     13951     13949     13961     13961     13962     13961     13963
     13961     13964     13964     13965     13964     13966     13964     13967
     13967     13968     13967     13969     13967     13970     13970     13971
     13970     13972     13970     13973     13973     13974     13973     13975
     13973     13976     13976     13977     13976     13978     13976     13979
     13979     13980     13979     13981     13981     13982     13981     13983
     13983     13984     13983     13985     13983     13986     13986     13987
     13986     13988     13986     13989     13989     13990     13989     13991
     13989     13992     13992     13993     13992     13994     13992     13995
     13995     13996     13995     13997     13995     13998     13998     13999
     13998     14000     13998     14001     14001     14002     14001     14003
     14001     14004     14004     14005     14004     14006     14004     14007
     13955     13956     13956     13958     13956     13957     13958     13959
     13958     13960     13958     14008     14008     14009     14008     14010
     14008     14011     14011     14012     14011     14013     14011     14014
     14014     14015     14014     14016     14014     14017     14017     14018
     14017     14019     14017     14020     14020     14021     14020     14022
     14020     14023     14023     14024     14023     14025     14023     14026
     14026     14027     14026     14028     14026     14029     14029     14030
     14029     14031     14029     14032     14032     14033     14032     14034
     14032     14035     14035     14036     14035     14037     14035     14038
     14038     14039     14038     14040     14038     14041     14041     14042
     14041     14043     14041     14044     14044     14045     14044     14046
     14044     14047     14047     14048     14047     14049     14047     14050
     14051     14055     14051     14059     14051     14063     14055     14056
     14055     14057     14055     14058     14059     14060     14059     14061
     14059     14062     14063     14064     14063     14065     14063     14066
     14051     14052     14052     14053     14052     14054     14052     14067
     14067     14068     14067     14069     14067     14073     14074     14075
     14073     14070     14070     14074     14070     14071     14070     14072
     14075     14076     14075     14077     14075     14078     14078     14079
     14078     14086     14078     14080     14086     14087     14086     14088
     14086     14089     14080     14081     14081     14083     14081     14082
     14083     14084     14083     14085     14083     14095     14095     14096
     14095     14097     14095     14098     14098     14099     14098     14100
     14098     14101     14101     14102     14101     14103     14101     14104
     14104     14105     14104     14106     14104     14107     14107     14108
     14107     14109     14107     14110     14110     14111     14110     14112
     14110     14113     14113     14114     14113     14115     14115     14116
     14115     14117     14117     14118     14117     14119     14117     14120
     14120     14121     14120     14122     14120     14123     14123     14124
     14123     14125     14123     14126     14126     14127     14126     14128
     14126     14129     14129     14130     14129     14131     14129     14132
     14132     14133     14132     14134     14132     14135     14135     14136
     14135     14137     14135     14138     14138     14139     14138     14140
     14138     14141     14089     14090     14090     14092     14090     14091
     14092     14093     14092     14094     14092     14142     14142     14143
     14142     14144     14142     14145     14145     14146     14145     14147
     14145     14148     14148     14149     14148     14150     14148     14151
     14151     14152     14151     14153     14151     14154     14154     14155
     14154     14156     14154     14157     14157     14158     14157     14159
     14157     14160     14160     14161     14160     14162     14160     14163
     14163     14164     14163     14165     14163     14166     14166     14167
     14166     14168     14166     14169     14169     14170     14169     14171
     14169     14172     14172     14173     14172     14174     14172     14175
     14175     14176     14175     14177     14175     14178     14178     14179
     14178     14180     14178     14181     14181     14182     14181     14183
     14181     14184     14185     14189     14185     14193     14185     14197
     14189     14190     14189     14191     14189     14192     14193     14194
     14193     14195     14193     14196     14197     14198     14197     14199
     14197     14200     14185     14186     14186     14187     14186     14188
     14186     14201     14201     14202     14201     14203     14201     14207
     14208     14209     14207     14204     14204     14208     14204     14205
     14204     14206     14209     14210     14209     14211     14209     14212
     14212     14213     14212     14220     14212     14214     14220     14221
     14220     14222     14220     14223     14214     14215     14215     14217
     14215     14216     14217     14218     14217     14219     14217     14229
     14229     14230     14229     14231     14229     14232     14232     14233
     14232     14234     14232     14235     14235     14236     14235     14237
     14235     14238     14238     14239     14238     14240     14238     14241
     14241     14242     14241     14243     14241     14244     14244     14245
     14244     14246     14244     14247     14247     14248     14247     14249
     14249     14250     14249     14251     14251     14252     14251     14253
     14251     14254     14254     14255     14254     14256     14254     14257
     14257     14258     14257     14259     14257     14260     14260     14261
     14260     14262     14260     14263     14263     14264     14263     14265
     14263     14266     14266     14267     14266     14268     14266     14269
     14269     14270     14269     14271     14269     14272     14272     14273
     14272     14274     14272     14275     14223     14224     14224     14226
     14224     14225     14226     14227     14226     14228     14226     14276
     14276     14277     14276     14278     14276     14279     14279     14280
     14279     14281     14279     14282     14282     14283     14282     14284
     14282     14285     14285     14286     14285     14287     14285     14288
     14288     14289     14288     14290     14288     14291     14291     14292
     14291     14293     14291     14294     14294     14295     14294     14296
     14294     14297     14297     14298     14297     14299     14297     14300
     14300     14301     14300     14302     14300     14303     14303     14304
     14303     14305     14303     14306     14306     14307     14306     14308
     14306     14309     14309     14310     14309     14311     14309     14312
     14312     14313     14312     14314     14312     14315     14315     14316
     14315     14317     14315     14318     14319     14323     14319     14327
     14319     14331     14323     14324     14323     14325     14323     14326
     14327     14328     14327     14329     14327     14330     14331     14332
     14331     14333     14331     14334     14319     14320     14320     14321
     14320     14322     14320     14335     14335     14336     14335     14337
     14335     14341     14342     14343     14341     14338     14338     14342
     14338     14339     14338     14340     14343     14344     14343     14345
     14343     14346     14346     14347     14346     14354     14346     14348
     14354     14355     14354     14356     14354     14357     14348     14349
     14349     14351     14349     14350     14351     14352     14351     14353
     14351     14363     14363     14364     14363     14365     14363     14366
     14366     14367     14366     14368     14366     14369     14369     14370
     14369     14371     14369     14372     14372     14373     14372     14374
     14372     14375     14375     14376     14375     14377     14375     14378
     14378     14379     14378     14380     14378     14381     14381     14382
     14381     14383     14383     14384     14383     14385     14385     14386
     14385     14387     14385     14388     14388     14389     14388     14390
     14388     14391     14391     14392     14391     14393     14391     14394
     14394     14395     14394     14396     14394     14397     14397     14398
     14397     14399     14397     14400     14400     14401     14400     14402
     14400     14403     14403     14404     14403     14405     14403     14406
     14406     14407     14406     14408     14406     14409     14357     14358
     14358     14360     14358     14359     14360     14361     14360     14362
     14360     14410     14410     14411     14410     14412     14410     14413
     14413     14414     14413     14415     14413     14416     14416     14417
     14416     14418     14416     14419     14419     14420     14419     14421
     14419     14422     14422     14423     14422     14424     14422     14425
     14425     14426     14425     14427     14425     14428     14428     14429
     14428     14430     14428     14431     14431     14432     14431     14433
     14431     14434     14434     14435     14434     14436     14434     14437
     14437     14438     14437     14439     14437     14440     14440     14441
     14440     14442     14440     14443     14443     14444     14443     14445
     14443     14446     14446     14447     14446     14448     14446     14449
     14449     14450     14449     14451     14449     14452     14453     14457
     14453     14461     14453     14465     14457     14458     14457     14459
     14457     14460     14461     14462     14461     14463     14461     14464
     14465     14466     14465     14467     14465     14468     14453     14454
     14454     14455     14454     14456     14454     14469     14469     14470
     14469     14471     14469     14475     14476     14477     14475     14472
     14472     14476     14472     14473     14472     14474     14477     14478
     14477     14479     14477     14480     14480     14481     14480     14488
     14480     14482     14488     14489     14488     14490     14488     14491
     14482     14483     14483     14485     14483     14484     14485     14486
     14485     14487     14485     14497     14497     14498     14497     14499
     14497     14500     14500     14501     14500     14502     14500     14503
     14503     14504     14503     14505     14503     14506     14506     14507
     14506     14508     14506     14509     14509     14510     14509     14511
     14509     14512     14512     14513     14512     14514     14512     14515
     14515     14516     14515     14517     14517     14518     14517     14519
     14519     14520     14519     14521     14519     14522     14522     14523
     14522     14524     14522     14525     14525     14526     14525     14527
     14525     14528     14528     14529     14528     14530     14528     14531
     14531     14532     14531     14533     14531     14534     14534     14535
     14534     14536     14534     14537     14537     14538     14537     14539
     14537     14540     14540     14541     14540     14542     14540     14543
     14491     14492     14492     14494     14492     14493     14494     14495
     14494     14496     14494     14544     14544     14545     14544     14546
     14544     14547     14547     14548     14547     14549     14547     14550
     14550     14551     14550     14552     14550     14553     14553     14554
     14553     14555     14553     14556     14556     14557     14556     14558
     14556     14559     14559     14560     14559     14561     14559     14562
     14562     14563     14562     14564     14562     14565     14565     14566
     14565     14567     14565     14568     14568     14569     14568     14570
     14568     14571     14571     14572     14571     14573     14571     14574
     14574     14575     14574     14576     14574     14577     14577     14578
     14577     14579     14577     14580     14580     14581     14580     14582
     14580     14583     14583     14584     14583     14585     14583     14586
     14587     14591     14587     14595     14587     14599     14591     14592
     14591     14593     14591     14594     14595     14596     14595     14597
     14595     14598     14599     14600     14599     14601     14599     14602
     14587     14588     14588     14589     14588     14590     14588     14603
     14603     14604     14603     14605     14603     14609     14610     14611
     14609     14606     14606     14610     14606     14607     14606     14608
     14611     14612     14611     14613     14611     14614     14614     14615
     14614     14622     14614     14616     14622     14623     14622     14624
     14622     14625     14616     14617     14617     14619     14617     14618
     14619     14620     14619     14621     14619     14631     14631     14632
     14631     14633     14631     14634     14634     14635     14634     14636
     14634     14637     14637     14638     14637     14639     14637     14640
     14640     14641     14640     14642     14640     14643     14643     14644
     14643     14645     14643     14646     14646     14647     14646     14648
     14646     14649     14649     14650     14649     14651     14651     14652
     14651     14653     14653     14654     14653     14655     14653     14656
     14656     14657     14656     14658     14656     14659     14659     14660
     14659     14661     14659     14662     14662     14663     14662     14664
     14662     14665     14665     14666     14665     14667     14665     14668
     14668     14669     14668     14670     14668     14671     14671     14672
     14671     14673     14671     14674     14674     14675     14674     14676
     14674     14677     14625     14626     14626     14628     14626     14627
     14628     14629     14628     14630     14628     14678     14678     14679
     14678     14680     14678     14681     14681     14682     14681     14683
     14681     14684     14684     14685     14684     14686     14684     14687
     14687     14688     14687     14689     14687     14690     14690     14691
     14690     14692     14690     14693     14693     14694     14693     14695
     14693     14696     14696     14697     14696     14698     14696     14699
     14699     14700     14699     14701     14699     14702     14702     14703
     14702     14704     14702     14705     14705     14706     14705     14707
     14705     14708     14708     14709     14708     14710     14708     14711
     14711     14712     14711     14713     14711     14714     14714     14715
     14714     14716     14714     14717     14717     14718     14717     14719
     14717     14720     14721     14725     14721     14729     14721     14733
     14725     14726     14725     14727     14725     14728     14729     14730
     14729     14731     14729     14732     14733     14734     14733     14735
     14733     14736     14721     14722     14722     14723     14722     14724
     14722     14737     14737     14738     14737     14739     14737     14743
     14744     14745     14743     14740     14740     14744     14740     14741
     14740     14742     14745     14746     14745     14747     14745     14748
     14748     14749     14748     14756     14748     14750     14756     14757
     14756     14758     14756     14759     14750     14751     14751     14753
     14751     14752     14753     14754     14753     14755     14753     14765
     14765     14766     14765     14767     14765     14768     14768     14769
     14768     14770     14768     14771     14771     14772     14771     14773
     14771     14774     14774     14775     14774     14776     14774     14777
     14777     14778     14777     14779     14777     14780     14780     14781
     14780     14782     14780     14783     14783     14784     14783     14785
     14785     14786     14785     14787     14787     14788     14787     14789
     14787     14790     14790     14791     14790     14792     14790     14793
     14793     14794     14793     14795     14793     14796     14796     14797
     14796     14798     14796     14799     14799     14800     14799     14801
     14799     14802     14802     14803     14802     14804     14802     14805
     14805     14806     14805     14807     14805     14808     14808     14809
     14808     14810     14808     14811     14759     14760     14760     14762
     14760     14761     14762     14763     14762     14764     14762     14812
     14812     14813     14812     14814     14812     14815     14815     14816
     14815     14817     14815     14818     14818     14819     14818     14820
     14818     14821     14821     14822     14821     14823     14821     14824
     14824     14825     14824     14826     14824     14827     14827     14828
     14827     14829     14827     14830     14830     14831     14830     14832
     14830     14833     14833     14834     14833     14835     14833     14836
     14836     14837     14836     14838     14836     14839     14839     14840
     14839     14841     14839     14842     14842     14843     14842     14844
     14842     14845     14845     14846     14845     14847     14845     14848
     14848     14849     14848     14850     14848     14851     14851     14852
     14851     14853     14851     14854     14855     14859     14855     14863
     14855     14867     14859     14860     14859     14861     14859     14862
     14863     14864     14863     14865     14863     14866     14867     14868
     14867     14869     14867     14870     14855     14856     14856     14857
     14856     14858     14856     14871     14871     14872     14871     14873
     14871     14877     14878     14879     14877     14874     14874     14878
     14874     14875     14874     14876     14879     14880     14879     14881
     14879     14882     14882     14883     14882     14890     14882     14884
     14890     14891     14890     14892     14890     14893     14884     14885
     14885     14887     14885     14886     14887     14888     14887     14889
     14887     14899     14899     14900     14899     14901     14899     14902
     14902     14903     14902     14904     14902     14905     14905     14906
     14905     14907     14905     14908     14908     14909     14908     14910
     14908     14911     14911     14912     14911     14913     14911     14914
     14914     14915     14914     14916     14914     14917     14917     14918
     14917     14919     14919     14920     14919     14921     14921     14922
     14921     14923     14921     14924     14924     14925     14924     14926
     14924     14927     14927     14928     14927     14929     14927     14930
     14930     14931     14930     14932     14930     14933     14933     14934
     14933     14935     14933     14936     14936     14937     14936     14938
     14936     14939     14939     14940     14939     14941     14939     14942
     14942     14943     14942     14944     14942     14945     14893     14894
     14894     14896     14894     14895     14896     14897     14896     14898
     14896     14946     14946     14947     14946     14948     14946     14949
     14949     14950     14949     14951     14949     14952     14952     14953
     14952     14954     14952     14955     14955     14956     14955     14957
     14955     14958     14958     14959     14958     14960     14958     14961
     14961     14962     14961     14963     14961     14964     14964     14965
     14964     14966     14964     14967     14967     14968     14967     14969
     14967     14970     14970     14971     14970     14972     14970     14973
     14973     14974     14973     14975     14973     14976     14976     14977
     14976     14978     14976     14979     14979     14980     14979     14981
     14979     14982     14982     14983     14982     14984     14982     14985
     14985     14986     14985     14987     14985     14988     14989     14990
     14989     14991     14989     14992     14989     14993     14997     14995
     14995     14993     14995     14996     14993     14994     14993     14998
     15006     15005     14998     14999     14998     15000     14998     15004
     15004     15001     15001     15005     15001     15002     15001     15003
     15006     15007     15006     15008     15006     15009     15009     15010
     15009     15017     15009     15011     15017     15018     15017     15019
     15017     15020     15011     15012     15012     15014     15012     15013
     15014     15015     15014     15016     15014     15026     15026     15027
     15026     15028     15026     15029     15029     15030     15029     15031
     15029     15032     15032     15033     15032     15034     15032     15035
     15035     15036     15035     15037     15035     15038     15038     15039
     15038     15040     15038     15041     15041     15042     15041     15043
     15041     15044     15044     15045     15044     15046     15046     15047
     15046     15048     15048     15049     15048     15050     15048     15051
     15051     15052     15051     15053     15051     15054     15054     15055
     15054     15056     15054     15057     15057     15058     15057     15059
     15057     15060     15060     15061     15060     15062     15060     15063
     15063     15064     15063     15065     15063     15066     15066     15067
     15066     15068     15066     15069     15069     15070     15069     15071
     15069     15072     15020     15021     15021     15023     15021     15022
     15023     15024     15023     15025     15023     15073     15073     15074
     15073     15075     15073     15076     15076     15077     15076     15078
     15076     15079     15079     15080     15079     15081     15079     15082
     15082     15083     15082     15084     15082     15085     15085     15086
     15085     15087     15085     15088     15088     15089     15088     15090
     15088     15091     15091     15092     15091     15093     15091     15094
     15094     15095     15094     15096     15094     15097     15097     15098
     15097     15099     15097     15100     15100     15101     15100     15102
     15100     15103     15103     15104     15103     15105     15103     15106
     15106     15107     15106     15108     15106     15109     15109     15110
     15109     15111     15109     15112     15112     15113     15112     15114
     15112     15115     15116     15120     15116     15124     15116     15128
     15120     15121     15120     15122     15120     15123     15124     15125
     15124     15126     15124     15127     15128     15129     15128     15130
     15128     15131     15116     15117     15117     15118     15117     15119
     15117     15132     15132     15133     15132     15134     15132     15138
     15139     15140     15138     15135     15135     15139     15135     15136
     15135     15137     15140     15141     15140     15142     15140     15143
     15143     15144     15143     15151     15143     15145     15151     15152
     15151     15153     15151     15154     15145     15146     15146     15148
     15146     15147     15148     15149     15148     15150     15148     15160
     15160     15161     15160     15162     15160     15163     15163     15164
     15163     15165     15163     15166     15166     15167     15166     15168
     15166     15169     15169     15170     15169     15171     15169     15172
     15172     15173     15172     15174     15172     15175     15175     15176
     15175     15177     15175     15178     15178     15179     15178     15180
     15180     15181     15180     15182     15182     15183     15182     15184
     15182     15185     15185     15186     15185     15187     15185     15188
     15188     15189     15188     15190     15188     15191     15191     15192
     15191     15193     15191     15194     15194     15195     15194     15196
     15194     15197     15197     15198     15197     15199     15197     15200
     15200     15201     15200     15202     15200     15203     15203     15204
     15203     15205     15203     15206     15154     15155     15155     15157
     15155     15156     15157     15158     15157     15159     15157     15207
     15207     15208     15207     15209     15207     15210     15210     15211
     15210     15212     15210     15213     15213     15214     15213     15215
     15213     15216     15216     15217     15216     15218     15216     15219
     15219     15220     15219     15221     15219     15222     15222     15223
     15222     15224     15222     15225     15225     15226     15225     15227
     15225     15228     15228     15229     15228     15230     15228     15231
     15231     15232     15231     15233     15231     15234     15234     15235
     15234     15236     15234     15237     15237     15238     15237     15239
     15237     15240     15240     15241     15240     15242     15240     15243
     15243     15244     15243     15245     15243     15246     15246     15247
     15246     15248     15246     15249     15250     15251     15250     15252
     15250     15253     15250     15254     15258     15256     15256     15254
     15256     15257     15254     15255     15254     15259     15267     15266
     15259     15260     15259     15261     15259     15265     15265     15262
     15262     15266     15262     15263     15262     15264     15267     15268
     15267     15269     15267     15270     15270     15271     15270     15278
     15270     15272     15278     15279     15278     15280     15278     15281
     15272     15273     15273     15275     15273     15274     15275     15276
     15275     15277     15275     15287     15287     15288     15287     15289
     15287     15290     15290     15291     15290     15292     15290     15293
     15293     15294     15293     15295     15293     15296     15296     15297
     15296     15298     15296     15299     15299     15300     15299     15301
     15299     15302     15302     15303     15302     15304     15302     15305
     15305     15306     15305     15307     15307     15308     15307     15309
     15309     15310     15309     15311     15309     15312     15312     15313
     15312     15314     15312     15315     15315     15316     15315     15317
     15315     15318     15318     15319     15318     15320     15318     15321
     15321     15322     15321     15323     15321     15324     15324     15325
     15324     15326     15324     15327     15327     15328     15327     15329
     15327     15330     15330     15331     15330     15332     15330     15333
     15281     15282     15282     15284     15282     15283     15284     15285
     15284     15286     15284     15334     15334     15335     15334     15336
     15334     15337     15337     15338     15337     15339     15337     15340
     15340     15341     15340     15342     15340     15343     15343     15344
     15343     15345     15343     15346     15346     15347     15346     15348
     15346     15349     15349     15350     15349     15351     15349     15352
     15352     15353     15352     15354     15352     15355     15355     15356
     15355     15357     15355     15358     15358     15359     15358     15360
     15358     15361     15361     15362     15361     15363     15361     15364
     15364     15365     15364     15366     15364     15367     15367     15368
     15367     15369     15367     15370     15370     15371     15370     15372
     15370     15373     15373     15374     15373     15375     15373     15376
     15377     15381     15377     15385     15377     15389     15381     15382
     15381     15383     15381     15384     15385     15386     15385     15387
     15385     15388     15389     15390     15389     15391     15389     15392
     15377     15378     15378     15379     15378     15380     15378     15393
     15393     15394     15393     15395     15393     15399     15400     15401
     15399     15396     15396     15400     15396     15397     15396     15398
     15401     15402     15401     15403     15401     15404     15404     15405
     15404     15412     15404     15406     15412     15413     15412     15414
     15412     15415     15406     15407     15407     15409     15407     15408
     15409     15410     15409     15411     15409     15421     15421     15422
     15421     15423     15421     15424     15424     15425     15424     15426
     15424     15427     15427     15428     15427     15429     15427     15430
     15430     15431     15430     15432     15430     15433     15433     15434
     15433     15435     15433     15436     15436     15437     15436     15438
     15436     15439     15439     15440     15439     15441     15441     15442
     15441     15443     15443     15444     15443     15445     15443     15446
     15446     15447     15446     15448     15446     15449     15449     15450
     15449     15451     15449     15452     15452     15453     15452     15454
     15452     15455     15455     15456     15455     15457     15455     15458
     15458     15459     15458     15460     15458     15461     15461     15462
     15461     15463     15461     15464     15464     15465     15464     15466
     15464     15467     15415     15416     15416     15418     15416     15417
     15418     15419     15418     15420     15418     15468     15468     15469
     15468     15470     15468     15471     15471     15472     15471     15473
     15471     15474     15474     15475     15474     15476     15474     15477
     15477     15478     15477     15479     15477     15480     15480     15481
     15480     15482     15480     15483     15483     15484     15483     15485
     15483     15486     15486     15487     15486     15488     15486     15489
     15489     15490     15489     15491     15489     15492     15492     15493
     15492     15494     15492     15495     15495     15496     15495     15497
     15495     15498     15498     15499     15498     15500     15498     15501
     15501     15502     15501     15503     15501     15504     15504     15505
     15504     15506     15504     15507     15507     15508     15507     15509
     15507     15510     15511     15515     15511     15519     15511     15523
     15515     15516     15515     15517     15515     15518     15519     15520
     15519     15521     15519     15522     15523     15524     15523     15525
     15523     15526     15511     15512     15512     15513     15512     15514
     15512     15527     15527     15528     15527     15529     15527     15533
     15534     15535     15533     15530     15530     15534     15530     15531
     15530     15532     15535     15536     15535     15537     15535     15538
     15538     15539     15538     15546     15538     15540     15546     15547
     15546     15548     15546     15549     15540     15541     15541     15543
     15541     15542     15543     15544     15543     15545     15543     15555
     15555     15556     15555     15557     15555     15558     15558     15559
     15558     15560     15558     15561     15561     15562     15561     15563
     15561     15564     15564     15565     15564     15566     15564     15567
     15567     15568     15567     15569     15567     15570     15570     15571
     15570     15572     15570     15573     15573     15574     15573     15575
     15575     15576     15575     15577     15577     15578     15577     15579
     15577     15580     15580     15581     15580     15582     15580     15583
     15583     15584     15583     15585     15583     15586     15586     15587
     15586     15588     15586     15589     15589     15590     15589     15591
     15589     15592     15592     15593     15592     15594     15592     15595
     15595     15596     15595     15597     15595     15598     15598     15599
     15598     15600     15598     15601     15549     15550     15550     15552
     15550     15551     15552     15553     15552     15554     15552     15602
     15602     15603     15602     15604     15602     15605     15605     15606
     15605     15607     15605     15608     15608     15609     15608     15610
     15608     15611     15611     15612     15611     15613     15611     15614
     15614     15615     15614     15616     15614     15617     15617     15618
     15617     15619     15617     15620     15620     15621     15620     15622
     15620     15623     15623     15624     15623     15625     15623     15626
     15626     15627     15626     15628     15626     15629     15629     15630
     15629     15631     15629     15632     15632     15633     15632     15634
     15632     15635     15635     15636     15635     15637     15635     15638
     15638     15639     15638     15640     15638     15641     15641     15642
     15641     15643     15641     15644     15645     15646     15645     15647
     15645     15648     15645     15649     15653     15651     15651     15649
     15651     15652     15649     15650     15649     15654     15662     15661
     15654     15655     15654     15656     15654     15660     15660     15657
     15657     15661     15657     15658     15657     15659     15662     15663
     15662     15664     15662     15665     15665     15666     15665     15673
     15665     15667     15673     15674     15673     15675     15673     15676
     15667     15668     15668     15670     15668     15669     15670     15671
     15670     15672     15670     15682     15682     15683     15682     15684
     15682     15685     15685     15686     15685     15687     15685     15688
     15688     15689     15688     15690     15688     15691     15691     15692
     15691     15693     15691     15694     15694     15695     15694     15696
     15694     15697     15697     15698     15697     15699     15697     15700
     15700     15701     15700     15702     15702     15703     15702     15704
     15704     15705     15704     15706     15704     15707     15707     15708
     15707     15709     15707     15710     15710     15711     15710     15712
     15710     15713     15713     15714     15713     15715     15713     15716
     15716     15717     15716     15718     15716     15719     15719     15720
     15719     15721     15719     15722     15722     15723     15722     15724
     15722     15725     15725     15726     15725     15727     15725     15728
     15676     15677     15677     15679     15677     15678     15679     15680
     15679     15681     15679     15729     15729     15730     15729     15731
     15729     15732     15732     15733     15732     15734     15732     15735
     15735     15736     15735     15737     15735     15738     15738     15739
     15738     15740     15738     15741     15741     15742     15741     15743
     15741     15744     15744     15745     15744     15746     15744     15747
     15747     15748     15747     15749     15747     15750     15750     15751
     15750     15752     15750     15753     15753     15754     15753     15755
     15753     15756     15756     15757     15756     15758     15756     15759
     15759     15760     15759     15761     15759     15762     15762     15763
     15762     15764     15762     15765     15765     15766     15765     15767
     15765     15768     15768     15769     15768     15770     15768     15771
     15772     15776     15772     15780     15772     15784     15776     15777
     15776     15778     15776     15779     15780     15781     15780     15782
     15780     15783     15784     15785     15784     15786     15784     15787
     15772     15773     15773     15774     15773     15775     15773     15788
     15788     15789     15788     15790     15788     15794     15795     15796
     15794     15791     15791     15795     15791     15792     15791     15793
     15796     15797     15796     15798     15796     15799     15799     15800
     15799     15807     15799     15801     15807     15808     15807     15809
     15807     15810     15801     15802     15802     15804     15802     15803
     15804     15805     15804     15806     15804     15816     15816     15817
     15816     15818     15816     15819     15819     15820     15819     15821
     15819     15822     15822     15823     15822     15824     15822     15825
     15825     15826     15825     15827     15825     15828     15828     15829
     15828     15830     15828     15831     15831     15832     15831     15833
     15831     15834     15834     15835     15834     15836     15836     15837
     15836     15838     15838     15839     15838     15840     15838     15841
     15841     15842     15841     15843     15841     15844     15844     15845
     15844     15846     15844     15847     15847     15848     15847     15849
     15847     15850     15850     15851     15850     15852     15850     15853
     15853     15854     15853     15855     15853     15856     15856     15857
     15856     15858     15856     15859     15859     15860     15859     15861
     15859     15862     15810     15811     15811     15813     15811     15812
     15813     15814     15813     15815     15813     15863     15863     15864
     15863     15865     15863     15866     15866     15867     15866     15868
     15866     15869     15869     15870     15869     15871     15869     15872
     15872     15873     15872     15874     15872     15875     15875     15876
     15875     15877     15875     15878     15878     15879     15878     15880
     15878     15881     15881     15882     15881     15883     15881     15884
     15884     15885     15884     15886     15884     15887     15887     15888
     15887     15889     15887     15890     15890     15891     15890     15892
     15890     15893     15893     15894     15893     15895     15893     15896
     15896     15897     15896     15898     15896     15899     15899     15900
     15899     15901     15899     15902     15902     15903     15902     15904
     15902     15905     15906     15910     15906     15914     15906     15918
     15910     15911     15910     15912     15910     15913     15914     15915
     15914     15916     15914     15917     15918     15919     15918     15920
     15918     15921     15906     15907     15907     15908     15907     15909
     15907     15922     15922     15923     15922     15924     15922     15928
     15929     15930     15928     15925     15925     15929     15925     15926
     15925     15927     15930     15931     15930     15932     15930     15933
     15933     15934     15933     15941     15933     15935     15941     15942
     15941     15943     15941     15944     15935     15936     15936     15938
     15936     15937     15938     15939     15938     15940     15938     15950
     15950     15951     15950     15952     15950     15953     15953     15954
     15953     15955     15953     15956     15956     15957     15956     15958
     15956     15959     15959     15960     15959     15961     15959     15962
     15962     15963     15962     15964     15962     15965     15965     15966
     15965     15967     15965     15968     15968     15969     15968     15970
     15970     15971     15970     15972     15972     15973     15972     15974
     15972     15975     15975     15976     15975     15977     15975     15978
     15978     15979     15978     15980     15978     15981     15981     15982
     15981     15983     15981     15984     15984     15985     15984     15986
     15984     15987     15987     15988     15987     15989     15987     15990
     15990     15991     15990     15992     15990     15993     15993     15994
     15993     15995     15993     15996     15944     15945     15945     15947
     15945     15946     15947     15948     15947     15949     15947     15997
     15997     15998     15997     15999     15997     16000     16000     16001
     16000     16002     16000     16003     16003     16004     16003     16005
     16003     16006     16006     16007     16006     16008     16006     16009
     16009     16010     16009     16011     16009     16012     16012     16013
     16012     16014     16012     16015     16015     16016     16015     16017
     16015     16018     16018     16019     16018     16020     16018     16021
     16021     16022     16021     16023     16021     16024     16024     16025
     16024     16026     16024     16027     16027     16028     16027     16029
     16027     16030     16030     16031     16030     16032     16030     16033
     16033     16034     16033     16035     16033     16036     16036     16037
     16036     16038     16036     16039     16040     16044     16040     16048
     16040     16052     16044     16045     16044     16046     16044     16047
     16048     16049     16048     16050     16048     16051     16052     16053
     16052     16054     16052     16055     16040     16041     16041     16042
     16041     16043     16041     16056     16056     16057     16056     16058
     16056     16062     16063     16064     16062     16059     16059     16063
     16059     16060     16059     16061     16064     16065     16064     16066
     16064     16067     16067     16068     16067     16075     16067     16069
     16075     16076     16075     16077     16075     16078     16069     16070
     16070     16072     16070     16071     16072     16073     16072     16074
     16072     16084     16084     16085     16084     16086     16084     16087
     16087     16088     16087     16089     16087     16090     16090     16091
     16090     16092     16090     16093     16093     16094     16093     16095
     16093     16096     16096     16097     16096     16098     16096     16099
     16099     16100     16099     16101     16099     16102     16102     16103
     16102     16104     16104     16105     16104     16106     16106     16107
     16106     16108     16106     16109     16109     16110     16109     16111
     16109     16112     16112     16113     16112     16114     16112     16115
     16115     16116     16115     16117     16115     16118     16118     16119
     16118     16120     16118     16121     16121     16122     16121     16123
     16121     16124     16124     16125     16124     16126     16124     16127
     16127     16128     16127     16129     16127     16130     16078     16079
     16079     16081     16079     16080     16081     16082     16081     16083
     16081     16131     16131     16132     16131     16133     16131     16134
     16134     16135     16134     16136     16134     16137     16137     16138
     16137     16139     16137     16140     16140     16141     16140     16142
     16140     16143     16143     16144     16143     16145     16143     16146
     16146     16147     16146     16148     16146     16149     16149     16150
     16149     16151     16149     16152     16152     16153     16152     16154
     16152     16155     16155     16156     16155     16157     16155     16158
     16158     16159     16158     16160     16158     16161     16161     16162
     16161     16163     16161     16164     16164     16165     16164     16166
     16164     16167     16167     16168     16167     16169     16167     16170
     16170     16171     16170     16172     16170     16173     16174     16178
     16174     16182     16174     16186     16178     16179     16178     16180
     16178     16181     16182     16183     16182     16184     16182     16185
     16186     16187     16186     16188     16186     16189     16174     16175
     16175     16176     16175     16177     16175     16190     16190     16191
     16190     16192     16190     16196     16197     16198     16196     16193
     16193     16197     16193     16194     16193     16195     16198     16199
     16198     16200     16198     16201     16201     16202     16201     16209
     16201     16203     16209     16210     16209     16211     16209     16212
     16203     16204     16204     16206     16204     16205     16206     16207
     16206     16208     16206     16218     16218     16219     16218     16220
     16218     16221     16221     16222     16221     16223     16221     16224
     16224     16225     16224     16226     16224     16227     16227     16228
     16227     16229     16227     16230     16230     16231     16230     16232
     16230     16233     16233     16234     16233     16235     16233     16236
     16236     16237     16236     16238     16238     16239     16238     16240
     16240     16241     16240     16242     16240     16243     16243     16244
     16243     16245     16243     16246     16246     16247     16246     16248
     16246     16249     16249     16250     16249     16251     16249     16252
     16252     16253     16252     16254     16252     16255     16255     16256
     16255     16257     16255     16258     16258     16259     16258     16260
     16258     16261     16261     16262     16261     16263     16261     16264
     16212     16213     16213     16215     16213     16214     16215     16216
     16215     16217     16215     16265     16265     16266     16265     16267
     16265     16268     16268     16269     16268     16270     16268     16271
     16271     16272     16271     16273     16271     16274     16274     16275
     16274     16276     16274     16277     16277     16278     16277     16279
     16277     16280     16280     16281     16280     16282     16280     16283
     16283     16284     16283     16285     16283     16286     16286     16287
     16286     16288     16286     16289     16289     16290     16289     16291
     16289     16292     16292     16293     16292     16294     16292     16295
     16295     16296     16295     16297     16295     16298     16298     16299
     16298     16300     16298     16301     16301     16302     16301     16303
     16301     16304     16304     16305     16304     16306     16304     16307
     16308     16309     16308     16310     16308     16311     16308     16312
     16316     16314     16314     16312     16314     16315     16312     16313
     16312     16317     16325     16324     16317     16318     16317     16319
     16317     16323     16323     16320     16320     16324     16320     16321
     16320     16322     16325     16326     16325     16327     16325     16328
     16328     16329     16328     16336     16328     16330     16336     16337
     16336     16338     16336     16339     16330     16331     16331     16333
     16331     16332     16333     16334     16333     16335     16333     16345
     16345     16346     16345     16347     16345     16348     16348     16349
     16348     16350     16348     16351     16351     16352     16351     16353
     16351     16354     16354     16355     16354     16356     16354     16357
     16357     16358     16357     16359     16357     16360     16360     16361
     16360     16362     16360     16363     16363     16364     16363     16365
     16365     16366     16365     16367     16367     16368     16367     16369
     16367     16370     16370     16371     16370     16372     16370     16373
     16373     16374     16373     16375     16373     16376     16376     16377
     16376     16378     16376     16379     16379     16380     16379     16381
     16379     16382     16382     16383     16382     16384     16382     16385
     16385     16386     16385     16387     16385     16388     16388     16389
     16388     16390     16388     16391     16339     16340     16340     16342
     16340     16341     16342     16343     16342     16344     16342     16392
     16392     16393     16392     16394     16392     16395     16395     16396
     16395     16397     16395     16398     16398     16399     16398     16400
     16398     16401     16401     16402     16401     16403     16401     16404
     16404     16405     16404     16406     16404     16407     16407     16408
     16407     16409     16407     16410     16410     16411     16410     16412
     16410     16413     16413     16414     16413     16415     16413     16416
     16416     16417     16416     16418     16416     16419     16419     16420
     16419     16421     16419     16422     16422     16423     16422     16424
     16422     16425     16425     16426     16425     16427     16425     16428
     16428     16429     16428     16430     16428     16431     16431     16432
     16431     16433     16431     16434     16435     16439     16435     16443
     16435     16447     16439     16440     16439     16441     16439     16442
     16443     16444     16443     16445     16443     16446     16447     16448
     16447     16449     16447     16450     16435     16436     16436     16437
     16436     16438     16436     16451     16451     16452     16451     16453
     16451     16457     16458     16459     16457     16454     16454     16458
     16454     16455     16454     16456     16459     16460     16459     16461
     16459     16462     16462     16463     16462     16470     16462     16464
     16470     16471     16470     16472     16470     16473     16464     16465
     16465     16467     16465     16466     16467     16468     16467     16469
     16467     16479     16479     16480     16479     16481     16479     16482
     16482     16483     16482     16484     16482     16485     16485     16486
     16485     16487     16485     16488     16488     16489     16488     16490
     16488     16491     16491     16492     16491     16493     16491     16494
     16494     16495     16494     16496     16494     16497     16497     16498
     16497     16499     16499     16500     16499     16501     16501     16502
     16501     16503     16501     16504     16504     16505     16504     16506
     16504     16507     16507     16508     16507     16509     16507     16510
     16510     16511     16510     16512     16510     16513     16513     16514
     16513     16515     16513     16516     16516     16517     16516     16518
     16516     16519     16519     16520     16519     16521     16519     16522
     16522     16523     16522     16524     16522     16525     16473     16474
     16474     16476     16474     16475     16476     16477     16476     16478
     16476     16526     16526     16527     16526     16528     16526     16529
     16529     16530     16529     16531     16529     16532     16532     16533
     16532     16534     16532     16535     16535     16536     16535     16537
     16535     16538     16538     16539     16538     16540     16538     16541
     16541     16542     16541     16543     16541     16544     16544     16545
     16544     16546     16544     16547     16547     16548     16547     16549
     16547     16550     16550     16551     16550     16552     16550     16553
     16553     16554     16553     16555     16553     16556     16556     16557
     16556     16558     16556     16559     16559     16560     16559     16561
     16559     16562     16562     16563     16562     16564     16562     16565
     16565     16566     16565     16567     16565     16568     16569     16573
     16569     16577     16569     16581     16573     16574     16573     16575
     16573     16576     16577     16578     16577     16579     16577     16580
     16581     16582     16581     16583     16581     16584     16569     16570
     16570     16571     16570     16572     16570     16585     16585     16586
     16585     16587     16585     16591     16592     16593     16591     16588
     16588     16592     16588     16589     16588     16590     16593     16594
     16593     16595     16593     16596     16596     16597     16596     16604
     16596     16598     16604     16605     16604     16606     16604     16607
     16598     16599     16599     16601     16599     16600     16601     16602
     16601     16603     16601     16613     16613     16614     16613     16615
     16613     16616     16616     16617     16616     16618     16616     16619
     16619     16620     16619     16621     16619     16622     16622     16623
     16622     16624     16622     16625     16625     16626     16625     16627
     16625     16628     16628     16629     16628     16630     16628     16631
     16631     16632     16631     16633     16633     16634     16633     16635
     16635     16636     16635     16637     16635     16638     16638     16639
     16638     16640     16638     16641     16641     16642     16641     16643
     16641     16644     16644     16645     16644     16646     16644     16647
     16647     16648     16647     16649     16647     16650     16650     16651
     16650     16652     16650     16653     16653     16654     16653     16655
     16653     16656     16656     16657     16656     16658     16656     16659
     16607     16608     16608     16610     16608     16609     16610     16611
     16610     16612     16610     16660     16660     16661     16660     16662
     16660     16663     16663     16664     16663     16665     16663     16666
     16666     16667     16666     16668     16666     16669     16669     16670
     16669     16671     16669     16672     16672     16673     16672     16674
     16672     16675     16675     16676     16675     16677     16675     16678
     16678     16679     16678     16680     16678     16681     16681     16682
     16681     16683     16681     16684     16684     16685     16684     16686
     16684     16687     16687     16688     16687     16689     16687     16690
     16690     16691     16690     16692     16690     16693     16693     16694
     16693     16695     16693     16696     16696     16697     16696     16698
     16696     16699     16699     16700     16699     16701     16699     16702
     16703     16704     16703     16705     16703     16706     16703     16707
     16711     16709     16709     16707     16709     16710     16707     16708
     16707     16712     16720     16719     16712     16713     16712     16714
     16712     16718     16718     16715     16715     16719     16715     16716
     16715     16717     16720     16721     16720     16722     16720     16723
     16723     16724     16723     16731     16723     16725     16731     16732
     16731     16733     16731     16734     16725     16726     16726     16728
     16726     16727     16728     16729     16728     16730     16728     16740
     16740     16741     16740     16742     16740     16743     16743     16744
     16743     16745     16743     16746     16746     16747     16746     16748
     16746     16749     16749     16750     16749     16751     16749     16752
     16752     16753     16752     16754     16752     16755     16755     16756
     16755     16757     16755     16758     16758     16759     16758     16760
     16760     16761     16760     16762     16762     16763     16762     16764
     16762     16765     16765     16766     16765     16767     16765     16768
     16768     16769     16768     16770     16768     16771     16771     16772
     16771     16773     16771     16774     16774     16775     16774     16776
     16774     16777     16777     16778     16777     16779     16777     16780
     16780     16781     16780     16782     16780     16783     16783     16784
     16783     16785     16783     16786     16734     16735     16735     16737
     16735     16736     16737     16738     16737     16739     16737     16787
     16787     16788     16787     16789     16787     16790     16790     16791
     16790     16792     16790     16793     16793     16794     16793     16795
     16793     16796     16796     16797     16796     16798     16796     16799
     16799     16800     16799     16801     16799     16802     16802     16803
     16802     16804     16802     16805     16805     16806     16805     16807
     16805     16808     16808     16809     16808     16810     16808     16811
     16811     16812     16811     16813     16811     16814     16814     16815
     16814     16816     16814     16817     16817     16818     16817     16819
     16817     16820     16820     16821     16820     16822     16820     16823
     16823     16824     16823     16825     16823     16826     16826     16827
     16826     16828     16826     16829     16830     16834     16830     16838
     16830     16842     16834     16835     16834     16836     16834     16837
     16838     16839     16838     16840     16838     16841     16842     16843
     16842     16844     16842     16845     16830     16831     16831     16832
     16831     16833     16831     16846     16846     16847     16846     16848
     16846     16852     16853     16854     16852     16849     16849     16853
     16849     16850     16849     16851     16854     16855     16854     16856
     16854     16857     16857     16858     16857     16865     16857     16859
     16865     16866     16865     16867     16865     16868     16859     16860
     16860     16862     16860     16861     16862     16863     16862     16864
     16862     16874     16874     16875     16874     16876     16874     16877
     16877     16878     16877     16879     16877     16880     16880     16881
     16880     16882     16880     16883     16883     16884     16883     16885
     16883     16886     16886     16887     16886     16888     16886     16889
     16889     16890     16889     16891     16889     16892     16892     16893
     16892     16894     16894     16895     16894     16896     16896     16897
     16896     16898     16896     16899     16899     16900     16899     16901
     16899     16902     16902     16903     16902     16904     16902     16905
     16905     16906     16905     16907     16905     16908     16908     16909
     16908     16910     16908     16911     16911     16912     16911     16913
     16911     16914     16914     16915     16914     16916     16914     16917
     16917     16918     16917     16919     16917     16920     16868     16869
     16869     16871     16869     16870     16871     16872     16871     16873
     16871     16921     16921     16922     16921     16923     16921     16924
     16924     16925     16924     16926     16924     16927     16927     16928
     16927     16929     16927     16930     16930     16931     16930     16932
     16930     16933     16933     16934     16933     16935     16933     16936
     16936     16937     16936     16938     16936     16939     16939     16940
     16939     16941     16939     16942     16942     16943     16942     16944
     16942     16945     16945     16946     16945     16947     16945     16948
     16948     16949     16948     16950     16948     16951     16951     16952
     16951     16953     16951     16954     16954     16955     16954     16956
     16954     16957     16957     16958     16957     16959     16957     16960
     16960     16961     16960     16962     16960     16963     16964     16968
     16964     16972     16964     16976     16968     16969     16968     16970
     16968     16971     16972     16973     16972     16974     16972     16975
     16976     16977     16976     16978     16976     16979     16964     16965
     16965     16966     16965     16967     16965     16980     16980     16981
     16980     16982     16980     16986     16987     16988     16986     16983
     16983     16987     16983     16984     16983     16985     16988     16989
     16988     16990     16988     16991     16991     16992     16991     16999
     16991     16993     16999     17000     16999     17001     16999     17002
     16993     16994     16994     16996     16994     16995     16996     16997
     16996     16998     16996     17008     17008     17009     17008     17010
     17008     17011     17011     17012     17011     17013     17011     17014
     17014     17015     17014     17016     17014     17017     17017     17018
     17017     17019     17017     17020     17020     17021     17020     17022
     17020     17023     17023     17024     17023     17025     17023     17026
     17026     17027     17026     17028     17028     17029     17028     17030
     17030     17031     17030     17032     17030     17033     17033     17034
     17033     17035     17033     17036     17036     17037     17036     17038
     17036     17039     17039     17040     17039     17041     17039     17042
     17042     17043     17042     17044     17042     17045     17045     17046
     17045     17047     17045     17048     17048     17049     17048     17050
     17048     17051     17051     17052     17051     17053     17051     17054
     17002     17003     17003     17005     17003     17004     17005     17006
     17005     17007     17005     17055     17055     17056     17055     17057
     17055     17058     17058     17059     17058     17060     17058     17061
     17061     17062     17061     17063     17061     17064     17064     17065
     17064     17066     17064     17067     17067     17068     17067     17069
     17067     17070     17070     17071     17070     17072     17070     17073
     17073     17074     17073     17075     17073     17076     17076     17077
     17076     17078     17076     17079     17079     17080     17079     17081
     17079     17082     17082     17083     17082     17084     17082     17085
     17085     17086     17085     17087     17085     17088     17088     17089
     17088     17090     17088     17091     17091     17092     17091     17093
     17091     17094     17094     17095     17094     17096     17094     17097
     17098     17102     17098     17106     17098     17110     17102     17103
     17102     17104     17102     17105     17106     17107     17106     17108
     17106     17109     17110     17111     17110     17112     17110     17113
     17098     17099     17099     17100     17099     17101     17099     17114
     17114     17115     17114     17116     17114     17120     17121     17122
     17120     17117     17117     17121     17117     17118     17117     17119
     17122     17123     17122     17124     17122     17125     17125     17126
     17125     17133     17125     17127     17133     17134     17133     17135
     17133     17136     17127     17128     17128     17130     17128     17129
     17130     17131     17130     17132     17130     17142     17142     17143
     17142     17144     17142     17145     17145     17146     17145     17147
     17145     17148     17148     17149     17148     17150     17148     17151
     17151     17152     17151     17153     17151     17154     17154     17155
     17154     17156     17154     17157     17157     17158     17157     17159
     17157     17160     17160     17161     17160     17162     17162     17163
     17162     17164     17164     17165     17164     17166     17164     17167
     17167     17168     17167     17169     17167     17170     17170     17171
     17170     17172     17170     17173     17173     17174     17173     17175
     17173     17176     17176     17177     17176     17178     17176     17179
     17179     17180     17179     17181     17179     17182     17182     17183
     17182     17184     17182     17185     17185     17186     17185     17187
     17185     17188     17136     17137     17137     17139     17137     17138
     17139     17140     17139     17141     17139     17189     17189     17190
     17189     17191     17189     17192     17192     17193     17192     17194
     17192     17195     17195     17196     17195     17197     17195     17198
     17198     17199     17198     17200     17198     17201     17201     17202
     17201     17203     17201     17204     17204     17205     17204     17206
     17204     17207     17207     17208     17207     17209     17207     17210
     17210     17211     17210     17212     17210     17213     17213     17214
     17213     17215     17213     17216     17216     17217     17216     17218
     17216     17219     17219     17220     17219     17221     17219     17222
     17222     17223     17222     17224     17222     17225     17225     17226
     17225     17227     17225     17228     17228     17229     17228     17230
     17228     17231     17232     17233     17232     17234     17232     17235
     17232     17236     17240     17238     17238     17236     17238     17239
     17236     17237     17236     17241     17249     17248     17241     17242
     17241     17243     17241     17247     17247     17244     17244     17248
     17244     17245     17244     17246     17249     17250     17249     17251
     17249     17252     17252     17253     17252     17260     17252     17254
     17260     17261     17260     17262     17260     17263     17254     17255
     17255     17257     17255     17256     17257     17258     17257     17259
     17257     17269     17269     17270     17269     17271     17269     17272
     17272     17273     17272     17274     17272     17275     17275     17276
     17275     17277     17275     17278     17278     17279     17278     17280
     17278     17281     17281     17282     17281     17283     17281     17284
     17284     17285     17284     17286     17284     17287     17287     17288
     17287     17289     17289     17290     17289     17291     17291     17292
     17291     17293     17291     17294     17294     17295     17294     17296
     17294     17297     17297     17298     17297     17299     17297     17300
     17300     17301     17300     17302     17300     17303     17303     17304
     17303     17305     17303     17306     17306     17307     17306     17308
     17306     17309     17309     17310     17309     17311     17309     17312
     17312     17313     17312     17314     17312     17315     17263     17264
     17264     17266     17264     17265     17266     17267     17266     17268
     17266     17316     17316     17317     17316     17318     17316     17319
     17319     17320     17319     17321     17319     17322     17322     17323
     17322     17324     17322     17325     17325     17326     17325     17327
     17325     17328     17328     17329     17328     17330     17328     17331
     17331     17332     17331     17333     17331     17334     17334     17335
     17334     17336     17334     17337     17337     17338     17337     17339
     17337     17340     17340     17341     17340     17342     17340     17343
     17343     17344     17343     17345     17343     17346     17346     17347
     17346     17348     17346     17349     17349     17350     17349     17351
     17349     17352     17352     17353     17352     17354     17352     17355
     17355     17356     17355     17357     17355     17358     17359     17363
     17359     17367     17359     17371     17363     17364     17363     17365
     17363     17366     17367     17368     17367     17369     17367     17370
     17371     17372     17371     17373     17371     17374     17359     17360
     17360     17361     17360     17362     17360     17375     17375     17376
     17375     17377     17375     17381     17382     17383     17381     17378
     17378     17382     17378     17379     17378     17380     17383     17384
     17383     17385     17383     17386     17386     17387     17386     17394
     17386     17388     17394     17395     17394     17396     17394     17397
     17388     17389     17389     17391     17389     17390     17391     17392
     17391     17393     17391     17403     17403     17404     17403     17405
     17403     17406     17406     17407     17406     17408     17406     17409
     17409     17410     17409     17411     17409     17412     17412     17413
     17412     17414     17412     17415     17415     17416     17415     17417
     17415     17418     17418     17419     17418     17420     17418     17421
     17421     17422     17421     17423     17423     17424     17423     17425
     17425     17426     17425     17427     17425     17428     17428     17429
     17428     17430     17428     17431     17431     17432     17431     17433
     17431     17434     17434     17435     17434     17436     17434     17437
     17437     17438     17437     17439     17437     17440     17440     17441
     17440     17442     17440     17443     17443     17444     17443     17445
     17443     17446     17446     17447     17446     17448     17446     17449
     17397     17398     17398     17400     17398     17399     17400     17401
     17400     17402     17400     17450     17450     17451     17450     17452
     17450     17453     17453     17454     17453     17455     17453     17456
     17456     17457     17456     17458     17456     17459     17459     17460
     17459     17461     17459     17462     17462     17463     17462     17464
     17462     17465     17465     17466     17465     17467     17465     17468
     17468     17469     17468     17470     17468     17471     17471     17472
     17471     17473     17471     17474     17474     17475     17474     17476
     17474     17477     17477     17478     17477     17479     17477     17480
     17480     17481     17480     17482     17480     17483     17483     17484
     17483     17485     17483     17486     17486     17487     17486     17488
     17486     17489     17489     17490     17489     17491     17489     17492
     17493     17494     17493     17495     17493     17496     17493     17497
     17501     17499     17499     17497     17499     17500     17497     17498
     17497     17502     17510     17509     17502     17503     17502     17504
     17502     17508     17508     17505     17505     17509     17505     17506
     17505     17507     17510     17511     17510     17512     17510     17513
     17513     17514     17513     17521     17513     17515     17521     17522
     17521     17523     17521     17524     17515     17516     17516     17518
     17516     17517     17518     17519     17518     17520     17518     17530
     17530     17531     17530     17532     17530     17533     17533     17534
     17533     17535     17533     17536     17536     17537     17536     17538
     17536     17539     17539     17540     17539     17541     17539     17542
     17542     17543     17542     17544     17542     17545     17545     17546
     17545     17547     17545     17548     17548     17549     17548     17550
     17550     17551     17550     17552     17552     17553     17552     17554
     17552     17555     17555     17556     17555     17557     17555     17558
     17558     17559     17558     17560     17558     17561     17561     17562
     17561     17563     17561     17564     17564     17565     17564     17566
     17564     17567     17567     17568     17567     17569     17567     17570
     17570     17571     17570     17572     17570     17573     17573     17574
     17573     17575     17573     17576     17524     17525     17525     17527
     17525     17526     17527     17528     17527     17529     17527     17577
     17577     17578     17577     17579     17577     17580     17580     17581
     17580     17582     17580     17583     17583     17584     17583     17585
     17583     17586     17586     17587     17586     17588     17586     17589
     17589     17590     17589     17591     17589     17592     17592     17593
     17592     17594     17592     17595     17595     17596     17595     17597
     17595     17598     17598     17599     17598     17600     17598     17601
     17601     17602     17601     17603     17601     17604     17604     17605
     17604     17606     17604     17607     17607     17608     17607     17609
     17607     17610     17610     17611     17610     17612     17610     17613
     17613     17614     17613     17615     17613     17616     17616     17617
     17616     17618     17616     17619     17620     17624     17620     17628
     17620     17632     17624     17625     17624     17626     17624     17627
     17628     17629     17628     17630     17628     17631     17632     17633
     17632     17634     17632     17635     17620     17621     17621     17622
     17621     17623     17621     17636     17636     17637     17636     17638
     17636     17642     17643     17644     17642     17639     17639     17643
     17639     17640     17639     17641     17644     17645     17644     17646
     17644     17647     17647     17648     17647     17655     17647     17649
     17655     17656     17655     17657     17655     17658     17649     17650
     17650     17652     17650     17651     17652     17653     17652     17654
     17652     17664     17664     17665     17664     17666     17664     17667
     17667     17668     17667     17669     17667     17670     17670     17671
     17670     17672     17670     17673     17673     17674     17673     17675
     17673     17676     17676     17677     17676     17678     17676     17679
     17679     17680     17679     17681     17679     17682     17682     17683
     17682     17684     17684     17685     17684     17686     17686     17687
     17686     17688     17686     17689     17689     17690     17689     17691
     17689     17692     17692     17693     17692     17694     17692     17695
     17695     17696     17695     17697     17695     17698     17698     17699
     17698     17700     17698     17701     17701     17702     17701     17703
     17701     17704     17704     17705     17704     17706     17704     17707
     17707     17708     17707     17709     17707     17710     17658     17659
     17659     17661     17659     17660     17661     17662     17661     17663
     17661     17711     17711     17712     17711     17713     17711     17714
     17714     17715     17714     17716     17714     17717     17717     17718
     17717     17719     17717     17720     17720     17721     17720     17722
     17720     17723     17723     17724     17723     17725     17723     17726
     17726     17727     17726     17728     17726     17729     17729     17730
     17729     17731     17729     17732     17732     17733     17732     17734
     17732     17735     17735     17736     17735     17737     17735     17738
     17738     17739     17738     17740     17738     17741     17741     17742
     17741     17743     17741     17744     17744     17745     17744     17746
     17744     17747     17747     17748     17747     17749     17747     17750
     17750     17751     17750     17752     17750     17753     17754     17758
     17754     17762     17754     17766     17758     17759     17758     17760
     17758     17761     17762     17763     17762     17764     17762     17765
     17766     17767     17766     17768     17766     17769     17754     17755
     17755     17756     17755     17757     17755     17770     17770     17771
     17770     17772     17770     17776     17777     17778     17776     17773
     17773     17777     17773     17774     17773     17775     17778     17779
     17778     17780     17778     17781     17781     17782     17781     17789
     17781     17783     17789     17790     17789     17791     17789     17792
     17783     17784     17784     17786     17784     17785     17786     17787
     17786     17788     17786     17798     17798     17799     17798     17800
     17798     17801     17801     17802     17801     17803     17801     17804
     17804     17805     17804     17806     17804     17807     17807     17808
     17807     17809     17807     17810     17810     17811     17810     17812
     17810     17813     17813     17814     17813     17815     17813     17816
     17816     17817     17816     17818     17818     17819     17818     17820
     17820     17821     17820     17822     17820     17823     17823     17824
     17823     17825     17823     17826     17826     17827     17826     17828
     17826     17829     17829     17830     17829     17831     17829     17832
     17832     17833     17832     17834     17832     17835     17835     17836
     17835     17837     17835     17838     17838     17839     17838     17840
     17838     17841     17841     17842     17841     17843     17841     17844
     17792     17793     17793     17795     17793     17794     17795     17796
     17795     17797     17795     17845     17845     17846     17845     17847
     17845     17848     17848     17849     17848     17850     17848     17851
     17851     17852     17851     17853     17851     17854     17854     17855
     17854     17856     17854     17857     17857     17858     17857     17859
     17857     17860     17860     17861     17860     17862     17860     17863
     17863     17864     17863     17865     17863     17866     17866     17867
     17866     17868     17866     17869     17869     17870     17869     17871
     17869     17872     17872     17873     17872     17874     17872     17875
     17875     17876     17875     17877     17875     17878     17878     17879
     17878     17880     17878     17881     17881     17882     17881     17883
     17881     17884     17884     17885     17884     17886     17884     17887
     17888     17892     17888     17896     17888     17900     17892     17893
     17892     17894     17892     17895     17896     17897     17896     17898
     17896     17899     17900     17901     17900     17902     17900     17903
     17888     17889     17889     17890     17889     17891     17889     17904
     17904     17905     17904     17906     17904     17910     17911     17912
     17910     17907     17907     17911     17907     17908     17907     17909
     17912     17913     17912     17914     17912     17915     17915     17916
     17915     17923     17915     17917     17923     17924     17923     17925
     17923     17926     17917     17918     17918     17920     17918     17919
     17920     17921     17920     17922     17920     17932     17932     17933
     17932     17934     17932     17935     17935     17936     17935     17937
     17935     17938     17938     17939     17938     17940     17938     17941
     17941     17942     17941     17943     17941     17944     17944     17945
     17944     17946     17944     17947     17947     17948     17947     17949
     17947     17950     17950     17951     17950     17952     17952     17953
     17952     17954     17954     17955     17954     17956     17954     17957
     17957     17958     17957     17959     17957     17960     17960     17961
     17960     17962     17960     17963     17963     17964     17963     17965
     17963     17966     17966     17967     17966     17968     17966     17969
     17969     17970     17969     17971     17969     17972     17972     17973
     17972     17974     17972     17975     17975     17976     17975     17977
     17975     17978     17926     17927     17927     17929     17927     17928
     17929     17930     17929     17931     17929     17979     17979     17980
     17979     17981     17979     17982     17982     17983     17982     17984
     17982     17985     17985     17986     17985     17987     17985     17988
     17988     17989     17988     17990     17988     17991     17991     17992
     17991     17993     17991     17994     17994     17995     17994     17996
     17994     17997     17997     17998     17997     17999     17997     18000
     18000     18001     18000     18002     18000     18003     18003     18004
     18003     18005     18003     18006     18006     18007     18006     18008
     18006     18009     18009     18010     18009     18011     18009     18012
     18012     18013     18012     18014     18012     18015     18015     18016
     18015     18017     18015     18018     18018     18019     18018     18020
     18018     18021     18022     18026     18022     18030     18022     18034
     18026     18027     18026     18028     18026     18029     18030     18031
     18030     18032     18030     18033     18034     18035     18034     18036
     18034     18037     18022     18023     18023     18024     18023     18025
     18023     18038     18038     18039     18038     18040     18038     18044
     18045     18046     18044     18041     18041     18045     18041     18042
     18041     18043     18046     18047     18046     18048     18046     18049
     18049     18050     18049     18057     18049     18051     18057     18058
     18057     18059     18057     18060     18051     18052     18052     18054
     18052     18053     18054     18055     18054     18056     18054     18066
     18066     18067     18066     18068     18066     18069     18069     18070
     18069     18071     18069     18072     18072     18073     18072     18074
     18072     18075     18075     18076     18075     18077     18075     18078
     18078     18079     18078     18080     18078     18081     18081     18082
     18081     18083     18081     18084     18084     18085     18084     18086
     18086     18087     18086     18088     18088     18089     18088     18090
     18088     18091     18091     18092     18091     18093     18091     18094
     18094     18095     18094     18096     18094     18097     18097     18098
     18097     18099     18097     18100     18100     18101     18100     18102
     18100     18103     18103     18104     18103     18105     18103     18106
     18106     18107     18106     18108     18106     18109     18109     18110
     18109     18111     18109     18112     18060     18061     18061     18063
     18061     18062     18063     18064     18063     18065     18063     18113
     18113     18114     18113     18115     18113     18116     18116     18117
     18116     18118     18116     18119     18119     18120     18119     18121
     18119     18122     18122     18123     18122     18124     18122     18125
     18125     18126     18125     18127     18125     18128     18128     18129
     18128     18130     18128     18131     18131     18132     18131     18133
     18131     18134     18134     18135     18134     18136     18134     18137
     18137     18138     18137     18139     18137     18140     18140     18141
     18140     18142     18140     18143     18143     18144     18143     18145
     18143     18146     18146     18147     18146     18148     18146     18149
     18149     18150     18149     18151     18149     18152     18152     18153
     18152     18154     18152     18155     18156     18160     18156     18164
     18156     18168     18160     18161     18160     18162     18160     18163
     18164     18165     18164     18166     18164     18167     18168     18169
     18168     18170     18168     18171     18156     18157     18157     18158
     18157     18159     18157     18172     18172     18173     18172     18174
     18172     18178     18179     18180     18178     18175     18175     18179
     18175     18176     18175     18177     18180     18181     18180     18182
     18180     18183     18183     18184     18183     18191     18183     18185
     18191     18192     18191     18193     18191     18194     18185     18186
     18186     18188     18186     18187     18188     18189     18188     18190
     18188     18200     18200     18201     18200     18202     18200     18203
     18203     18204     18203     18205     18203     18206     18206     18207
     18206     18208     18206     18209     18209     18210     18209     18211
     18209     18212     18212     18213     18212     18214     18212     18215
     18215     18216     18215     18217     18215     18218     18218     18219
     18218     18220     18220     18221     18220     18222     18222     18223
     18222     18224     18222     18225     18225     18226     18225     18227
     18225     18228     18228     18229     18228     18230     18228     18231
     18231     18232     18231     18233     18231     18234     18234     18235
     18234     18236     18234     18237     18237     18238     18237     18239
     18237     18240     18240     18241     18240     18242     18240     18243
     18243     18244     18243     18245     18243     18246     18194     18195
     18195     18197     18195     18196     18197     18198     18197     18199
     18197     18247     18247     18248     18247     18249     18247     18250
     18250     18251     18250     18252     18250     18253     18253     18254
     18253     18255     18253     18256     18256     18257     18256     18258
     18256     18259     18259     18260     18259     18261     18259     18262
     18262     18263     18262     18264     18262     18265     18265     18266
     18265     18267     18265     18268     18268     18269     18268     18270
     18268     18271     18271     18272     18271     18273     18271     18274
     18274     18275     18274     18276     18274     18277     18277     18278
     18277     18279     18277     18280     18280     18281     18280     18282
     18280     18283     18283     18284     18283     18285     18283     18286
     18286     18287     18286     18288     18286     18289     18290     18291
     18290     18292     18290     18293     18290     18294     18298     18296
     18296     18294     18296     18297     18294     18295     18294     18299
     18307     18306     18299     18300     18299     18301     18299     18305
     18305     18302     18302     18306     18302     18303     18302     18304
     18307     18308     18307     18309     18307     18310     18310     18311
     18310     18318     18310     18312     18318     18319     18318     18320
     18318     18321     18312     18313     18313     18315     18313     18314
     18315     18316     18315     18317     18315     18327     18327     18328
     18327     18329     18327     18330     18330     18331     18330     18332
     18330     18333     18333     18334     18333     18335     18333     18336
     18336     18337     18336     18338     18336     18339     18339     18340
     18339     18341     18339     18342     18342     18343     18342     18344
     18342     18345     18345     18346     18345     18347     18347     18348
     18347     18349     18349     18350     18349     18351     18349     18352
     18352     18353     18352     18354     18352     18355     18355     18356
     18355     18357     18355     18358     18358     18359     18358     18360
     18358     18361     18361     18362     18361     18363     18361     18364
     18364     18365     18364     18366     18364     18367     18367     18368
     18367     18369     18367     18370     18370     18371     18370     18372
     18370     18373     18321     18322     18322     18324     18322     18323
     18324     18325     18324     18326     18324     18374     18374     18375
     18374     18376     18374     18377     18377     18378     18377     18379
     18377     18380     18380     18381     18380     18382     18380     18383
     18383     18384     18383     18385     18383     18386     18386     18387
     18386     18388     18386     18389     18389     18390     18389     18391
     18389     18392     18392     18393     18392     18394     18392     18395
     18395     18396     18395     18397     18395     18398     18398     18399
     18398     18400     18398     18401     18401     18402     18401     18403
     18401     18404     18404     18405     18404     18406     18404     18407
     18407     18408     18407     18409     18407     18410     18410     18411
     18410     18412     18410     18413     18413     18414     18413     18415
     18413     18416     18417     18418     18417     18419     18417     18420
     18417     18421     18425     18423     18423     18421     18423     18424
     18421     18422     18421     18426     18434     18433     18426     18427
     18426     18428     18426     18432     18432     18429     18429     18433
     18429     18430     18429     18431     18434     18435     18434     18436
     18434     18437     18437     18438     18437     18445     18437     18439
     18445     18446     18445     18447     18445     18448     18439     18440
     18440     18442     18440     18441     18442     18443     18442     18444
     18442     18454     18454     18455     18454     18456     18454     18457
     18457     18458     18457     18459     18457     18460     18460     18461
     18460     18462     18460     18463     18463     18464     18463     18465
     18463     18466     18466     18467     18466     18468     18466     18469
     18469     18470     18469     18471     18469     18472     18472     18473
     18472     18474     18474     18475     18474     18476     18476     18477
     18476     18478     18476     18479     18479     18480     18479     18481
     18479     18482     18482     18483     18482     18484     18482     18485
     18485     18486     18485     18487     18485     18488     18488     18489
     18488     18490     18488     18491     18491     18492     18491     18493
     18491     18494     18494     18495     18494     18496     18494     18497
     18497     18498     18497     18499     18497     18500     18448     18449
     18449     18451     18449     18450     18451     18452     18451     18453
     18451     18501     18501     18502     18501     18503     18501     18504
     18504     18505     18504     18506     18504     18507     18507     18508
     18507     18509     18507     18510     18510     18511     18510     18512
     18510     18513     18513     18514     18513     18515     18513     18516
     18516     18517     18516     18518     18516     18519     18519     18520
     18519     18521     18519     18522     18522     18523     18522     18524
     18522     18525     18525     18526     18525     18527     18525     18528
     18528     18529     18528     18530     18528     18531     18531     18532
     18531     18533     18531     18534     18534     18535     18534     18536
     18534     18537     18537     18538     18537     18539     18537     18540
     18540     18541     18540     18542     18540     18543     18544     18545
     18544     18546     18544     18547     18544     18548     18552     18550
     18550     18548     18550     18551     18548     18549     18548     18553
     18561     18560     18553     18554     18553     18555     18553     18559
     18559     18556     18556     18560     18556     18557     18556     18558
     18561     18562     18561     18563     18561     18564     18564     18565
     18564     18572     18564     18566     18572     18573     18572     18574
     18572     18575     18566     18567     18567     18569     18567     18568
     18569     18570     18569     18571     18569     18581     18581     18582
     18581     18583     18581     18584     18584     18585     18584     18586
     18584     18587     18587     18588     18587     18589     18587     18590
     18590     18591     18590     18592     18590     18593     18593     18594
     18593     18595     18593     18596     18596     18597     18596     18598
     18596     18599     18599     18600     18599     18601     18601     18602
     18601     18603     18603     18604     18603     18605     18603     18606
     18606     18607     18606     18608     18606     18609     18609     18610
     18609     18611     18609     18612     18612     18613     18612     18614
     18612     18615     18615     18616     18615     18617     18615     18618
     18618     18619     18618     18620     18618     18621     18621     18622
     18621     18623     18621     18624     18624     18625     18624     18626
     18624     18627     18575     18576     18576     18578     18576     18577
     18578     18579     18578     18580     18578     18628     18628     18629
     18628     18630     18628     18631     18631     18632     18631     18633
     18631     18634     18634     18635     18634     18636     18634     18637
     18637     18638     18637     18639     18637     18640     18640     18641
     18640     18642     18640     18643     18643     18644     18643     18645
     18643     18646     18646     18647     18646     18648     18646     18649
     18649     18650     18649     18651     18649     18652     18652     18653
     18652     18654     18652     18655     18655     18656     18655     18657
     18655     18658     18658     18659     18658     18660     18658     18661
     18661     18662     18661     18663     18661     18664     18664     18665
     18664     18666     18664     18667     18667     18668     18667     18669
     18667     18670     18671     18675     18671     18679     18671     18683
     18675     18676     18675     18677     18675     18678     18679     18680
     18679     18681     18679     18682     18683     18684     18683     18685
     18683     18686     18671     18672     18672     18673     18672     18674
     18672     18687     18687     18688     18687     18689     18687     18693
     18694     18695     18693     18690     18690     18694     18690     18691
     18690     18692     18695     18696     18695     18697     18695     18698
     18698     18699     18698     18706     18698     18700     18706     18707
     18706     18708     18706     18709     18700     18701     18701     18703
     18701     18702     18703     18704     18703     18705     18703     18715
     18715     18716     18715     18717     18715     18718     18718     18719
     18718     18720     18718     18721     18721     18722     18721     18723
     18721     18724     18724     18725     18724     18726     18724     18727
     18727     18728     18727     18729     18727     18730     18730     18731
     18730     18732     18730     18733     18733     18734     18733     18735
     18735     18736     18735     18737     18737     18738     18737     18739
     18737     18740     18740     18741     18740     18742     18740     18743
     18743     18744     18743     18745     18743     18746     18746     18747
     18746     18748     18746     18749     18749     18750     18749     18751
     18749     18752     18752     18753     18752     18754     18752     18755
     18755     18756     18755     18757     18755     18758     18758     18759
     18758     18760     18758     18761     18709     18710     18710     18712
     18710     18711     18712     18713     18712     18714     18712     18762
     18762     18763     18762     18764     18762     18765     18765     18766
     18765     18767     18765     18768     18768     18769     18768     18770
     18768     18771     18771     18772     18771     18773     18771     18774
     18774     18775     18774     18776     18774     18777     18777     18778
     18777     18779     18777     18780     18780     18781     18780     18782
     18780     18783     18783     18784     18783     18785     18783     18786
     18786     18787     18786     18788     18786     18789     18789     18790
     18789     18791     18789     18792     18792     18793     18792     18794
     18792     18795     18795     18796     18795     18797     18795     18798
     18798     18799     18798     18800     18798     18801     18801     18802
     18801     18803     18801     18804     18805     18809     18805     18813
     18805     18817     18809     18810     18809     18811     18809     18812
     18813     18814     18813     18815     18813     18816     18817     18818
     18817     18819     18817     18820     18805     18806     18806     18807
     18806     18808     18806     18821     18821     18822     18821     18823
     18821     18827     18828     18829     18827     18824     18824     18828
     18824     18825     18824     18826     18829     18830     18829     18831
     18829     18832     18832     18833     18832     18840     18832     18834
     18840     18841     18840     18842     18840     18843     18834     18835
     18835     18837     18835     18836     18837     18838     18837     18839
     18837     18849     18849     18850     18849     18851     18849     18852
     18852     18853     18852     18854     18852     18855     18855     18856
     18855     18857     18855     18858     18858     18859     18858     18860
     18858     18861     18861     18862     18861     18863     18861     18864
     18864     18865     18864     18866     18864     18867     18867     18868
     18867     18869     18869     18870     18869     18871     18871     18872
     18871     18873     18871     18874     18874     18875     18874     18876
     18874     18877     18877     18878     18877     18879     18877     18880
     18880     18881     18880     18882     18880     18883     18883     18884
     18883     18885     18883     18886     18886     18887     18886     18888
     18886     18889     18889     18890     18889     18891     18889     18892
     18892     18893     18892     18894     18892     18895     18843     18844
     18844     18846     18844     18845     18846     18847     18846     18848
     18846     18896     18896     18897     18896     18898     18896     18899
     18899     18900     18899     18901     18899     18902     18902     18903
     18902     18904     18902     18905     18905     18906     18905     18907
     18905     18908     18908     18909     18908     18910     18908     18911
     18911     18912     18911     18913     18911     18914     18914     18915
     18914     18916     18914     18917     18917     18918     18917     18919
     18917     18920     18920     18921     18920     18922     18920     18923
     18923     18924     18923     18925     18923     18926     18926     18927
     18926     18928     18926     18929     18929     18930     18929     18931
     18929     18932     18932     18933     18932     18934     18932     18935
     18935     18936     18935     18937     18935     18938     18939     18943
     18939     18947     18939     18951     18943     18944     18943     18945
     18943     18946     18947     18948     18947     18949     18947     18950
     18951     18952     18951     18953     18951     18954     18939     18940
     18940     18941     18940     18942     18940     18955     18955     18956
     18955     18957     18955     18961     18962     18963     18961     18958
     18958     18962     18958     18959     18958     18960     18963     18964
     18963     18965     18963     18966     18966     18967     18966     18974
     18966     18968     18974     18975     18974     18976     18974     18977
     18968     18969     18969     18971     18969     18970     18971     18972
     18971     18973     18971     18983     18983     18984     18983     18985
     18983     18986     18986     18987     18986     18988     18986     18989
     18989     18990     18989     18991     18989     18992     18992     18993
     18992     18994     18992     18995     18995     18996     18995     18997
     18995     18998     18998     18999     18998     19000     18998     19001
     19001     19002     19001     19003     19003     19004     19003     19005
     19005     19006     19005     19007     19005     19008     19008     19009
     19008     19010     19008     19011     19011     19012     19011     19013
     19011     19014     19014     19015     19014     19016     19014     19017
     19017     19018     19017     19019     19017     19020     19020     19021
     19020     19022     19020     19023     19023     19024     19023     19025
     19023     19026     19026     19027     19026     19028     19026     19029
     18977     18978     18978     18980     18978     18979     18980     18981
     18980     18982     18980     19030     19030     19031     19030     19032
     19030     19033     19033     19034     19033     19035     19033     19036
     19036     19037     19036     19038     19036     19039     19039     19040
     19039     19041     19039     19042     19042     19043     19042     19044
     19042     19045     19045     19046     19045     19047     19045     19048
     19048     19049     19048     19050     19048     19051     19051     19052
     19051     19053     19051     19054     19054     19055     19054     19056
     19054     19057     19057     19058     19057     19059     19057     19060
     19060     19061     19060     19062     19060     19063     19063     19064
     19063     19065     19063     19066     19066     19067     19066     19068
     19066     19069     19069     19070     19069     19071     19069     19072
     19073     19077     19073     19081     19073     19085     19077     19078
     19077     19079     19077     19080     19081     19082     19081     19083
     19081     19084     19085     19086     19085     19087     19085     19088
     19073     19074     19074     19075     19074     19076     19074     19089
     19089     19090     19089     19091     19089     19095     19096     19097
     19095     19092     19092     19096     19092     19093     19092     19094
     19097     19098     19097     19099     19097     19100     19100     19101
     19100     19108     19100     19102     19108     19109     19108     19110
     19108     19111     19102     19103     19103     19105     19103     19104
     19105     19106     19105     19107     19105     19117     19117     19118
     19117     19119     19117     19120     19120     19121     19120     19122
     19120     19123     19123     19124     19123     19125     19123     19126
     19126     19127     19126     19128     19126     19129     19129     19130
     19129     19131     19129     19132     19132     19133     19132     19134
     19132     19135     19135     19136     19135     19137     19137     19138
     19137     19139     19139     19140     19139     19141     19139     19142
     19142     19143     19142     19144     19142     19145     19145     19146
     19145     19147     19145     19148     19148     19149     19148     19150
     19148     19151     19151     19152     19151     19153     19151     19154
     19154     19155     19154     19156     19154     19157     19157     19158
     19157     19159     19157     19160     19160     19161     19160     19162
     19160     19163     19111     19112     19112     19114     19112     19113
     19114     19115     19114     19116     19114     19164     19164     19165
     19164     19166     19164     19167     19167     19168     19167     19169
     19167     19170     19170     19171     19170     19172     19170     19173
     19173     19174     19173     19175     19173     19176     19176     19177
     19176     19178     19176     19179     19179     19180     19179     19181
     19179     19182     19182     19183     19182     19184     19182     19185
     19185     19186     19185     19187     19185     19188     19188     19189
     19188     19190     19188     19191     19191     19192     19191     19193
     19191     19194     19194     19195     19194     19196     19194     19197
     19197     19198     19197     19199     19197     19200     19200     19201
     19200     19202     19200     19203     19203     19204     19203     19205
     19203     19206     19207     19211     19207     19215     19207     19219
     19211     19212     19211     19213     19211     19214     19215     19216
     19215     19217     19215     19218     19219     19220     19219     19221
     19219     19222     19207     19208     19208     19209     19208     19210
     19208     19223     19223     19224     19223     19225     19223     19229
     19230     19231     19229     19226     19226     19230     19226     19227
     19226     19228     19231     19232     19231     19233     19231     19234
     19234     19235     19234     19242     19234     19236     19242     19243
     19242     19244     19242     19245     19236     19237     19237     19239
     19237     19238     19239     19240     19239     19241     19239     19251
     19251     19252     19251     19253     19251     19254     19254     19255
     19254     19256     19254     19257     19257     19258     19257     19259
     19257     19260     19260     19261     19260     19262     19260     19263
     19263     19264     19263     19265     19263     19266     19266     19267
     19266     19268     19266     19269     19269     19270     19269     19271
     19271     19272     19271     19273     19273     19274     19273     19275
     19273     19276     19276     19277     19276     19278     19276     19279
     19279     19280     19279     19281     19279     19282     19282     19283
     19282     19284     19282     19285     19285     19286     19285     19287
     19285     19288     19288     19289     19288     19290     19288     19291
     19291     19292     19291     19293     19291     19294     19294     19295
     19294     19296     19294     19297     19245     19246     19246     19248
     19246     19247     19248     19249     19248     19250     19248     19298
     19298     19299     19298     19300     19298     19301     19301     19302
     19301     19303     19301     19304     19304     19305     19304     19306
     19304     19307     19307     19308     19307     19309     19307     19310
     19310     19311     19310     19312     19310     19313     19313     19314
     19313     19315     19313     19316     19316     19317     19316     19318
     19316     19319     19319     19320     19319     19321     19319     19322
     19322     19323     19322     19324     19322     19325     19325     19326
     19325     19327     19325     19328     19328     19329     19328     19330
     19328     19331     19331     19332     19331     19333     19331     19334
     19334     19335     19334     19336     19334     19337     19337     19338
     19337     19339     19337     19340     19341     19342     19341     19343
     19341     19344     19341     19345     19349     19347     19347     19345
     19347     19348     19345     19346     19345     19350     19358     19357
     19350     19351     19350     19352     19350     19356     19356     19353
     19353     19357     19353     19354     19353     19355     19358     19359
     19358     19360     19358     19361     19361     19362     19361     19369
     19361     19363     19369     19370     19369     19371     19369     19372
     19363     19364     19364     19366     19364     19365     19366     19367
     19366     19368     19366     19378     19378     19379     19378     19380
     19378     19381     19381     19382     19381     19383     19381     19384
     19384     19385     19384     19386     19384     19387     19387     19388
     19387     19389     19387     19390     19390     19391     19390     19392
     19390     19393     19393     19394     19393     19395     19393     19396
     19396     19397     19396     19398     19398     19399     19398     19400
     19400     19401     19400     19402     19400     19403     19403     19404
     19403     19405     19403     19406     19406     19407     19406     19408
     19406     19409     19409     19410     19409     19411     19409     19412
     19412     19413     19412     19414     19412     19415     19415     19416
     19415     19417     19415     19418     19418     19419     19418     19420
     19418     19421     19421     19422     19421     19423     19421     19424
     19372     19373     19373     19375     19373     19374     19375     19376
     19375     19377     19375     19425     19425     19426     19425     19427
     19425     19428     19428     19429     19428     19430     19428     19431
     19431     19432     19431     19433     19431     19434     19434     19435
     19434     19436     19434     19437     19437     19438     19437     19439
     19437     19440     19440     19441     19440     19442     19440     19443
     19443     19444     19443     19445     19443     19446     19446     19447
     19446     19448     19446     19449     19449     19450     19449     19451
     19449     19452     19452     19453     19452     19454     19452     19455
     19455     19456     19455     19457     19455     19458     19458     19459
     19458     19460     19458     19461     19461     19462     19461     19463
     19461     19464     19464     19465     19464     19466     19464     19467
     19468     19472     19468     19476     19468     19480     19472     19473
     19472     19474     19472     19475     19476     19477     19476     19478
     19476     19479     19480     19481     19480     19482     19480     19483
     19468     19469     19469     19470     19469     19471     19469     19484
     19484     19485     19484     19486     19484     19490     19491     19492
     19490     19487     19487     19491     19487     19488     19487     19489
     19492     19493     19492     19494     19492     19495     19495     19496
     19495     19503     19495     19497     19503     19504     19503     19505
     19503     19506     19497     19498     19498     19500     19498     19499
     19500     19501     19500     19502     19500     19512     19512     19513
     19512     19514     19512     19515     19515     19516     19515     19517
     19515     19518     19518     19519     19518     19520     19518     19521
     19521     19522     19521     19523     19521     19524     19524     19525
     19524     19526     19524     19527     19527     19528     19527     19529
     19527     19530     19530     19531     19530     19532     19532     19533
     19532     19534     19534     19535     19534     19536     19534     19537
     19537     19538     19537     19539     19537     19540     19540     19541
     19540     19542     19540     19543     19543     19544     19543     19545
     19543     19546     19546     19547     19546     19548     19546     19549
     19549     19550     19549     19551     19549     19552     19552     19553
     19552     19554     19552     19555     19555     19556     19555     19557
     19555     19558     19506     19507     19507     19509     19507     19508
     19509     19510     19509     19511     19509     19559     19559     19560
     19559     19561     19559     19562     19562     19563     19562     19564
     19562     19565     19565     19566     19565     19567     19565     19568
     19568     19569     19568     19570     19568     19571     19571     19572
     19571     19573     19571     19574     19574     19575     19574     19576
     19574     19577     19577     19578     19577     19579     19577     19580
     19580     19581     19580     19582     19580     19583     19583     19584
     19583     19585     19583     19586     19586     19587     19586     19588
     19586     19589     19589     19590     19589     19591     19589     19592
     19592     19593     19592     19594     19592     19595     19595     19596
     19595     19597     19595     19598     19598     19599     19598     19600
     19598     19601     19602     19606     19602     19610     19602     19614
     19606     19607     19606     19608     19606     19609     19610     19611
     19610     19612     19610     19613     19614     19615     19614     19616
     19614     19617     19602     19603     19603     19604     19603     19605
     19603     19618     19618     19619     19618     19620     19618     19624
     19625     19626     19624     19621     19621     19625     19621     19622
     19621     19623     19626     19627     19626     19628     19626     19629
     19629     19630     19629     19637     19629     19631     19637     19638
     19637     19639     19637     19640     19631     19632     19632     19634
     19632     19633     19634     19635     19634     19636     19634     19646
     19646     19647     19646     19648     19646     19649     19649     19650
     19649     19651     19649     19652     19652     19653     19652     19654
     19652     19655     19655     19656     19655     19657     19655     19658
     19658     19659     19658     19660     19658     19661     19661     19662
     19661     19663     19661     19664     19664     19665     19664     19666
     19666     19667     19666     19668     19668     19669     19668     19670
     19668     19671     19671     19672     19671     19673     19671     19674
     19674     19675     19674     19676     19674     19677     19677     19678
     19677     19679     19677     19680     19680     19681     19680     19682
     19680     19683     19683     19684     19683     19685     19683     19686
     19686     19687     19686     19688     19686     19689     19689     19690
     19689     19691     19689     19692     19640     19641     19641     19643
     19641     19642     19643     19644     19643     19645     19643     19693
     19693     19694     19693     19695     19693     19696     19696     19697
     19696     19698     19696     19699     19699     19700     19699     19701
     19699     19702     19702     19703     19702     19704     19702     19705
     19705     19706     19705     19707     19705     19708     19708     19709
     19708     19710     19708     19711     19711     19712     19711     19713
     19711     19714     19714     19715     19714     19716     19714     19717
     19717     19718     19717     19719     19717     19720     19720     19721
     19720     19722     19720     19723     19723     19724     19723     19725
     19723     19726     19726     19727     19726     19728     19726     19729
     19729     19730     19729     19731     19729     19732     19732     19733
     19732     19734     19732     19735     19736     19740     19736     19744
     19736     19748     19740     19741     19740     19742     19740     19743
     19744     19745     19744     19746     19744     19747     19748     19749
     19748     19750     19748     19751     19736     19737     19737     19738
     19737     19739     19737     19752     19752     19753     19752     19754
     19752     19758     19759     19760     19758     19755     19755     19759
     19755     19756     19755     19757     19760     19761     19760     19762
     19760     19763     19763     19764     19763     19771     19763     19765
     19771     19772     19771     19773     19771     19774     19765     19766
     19766     19768     19766     19767     19768     19769     19768     19770
     19768     19780     19780     19781     19780     19782     19780     19783
     19783     19784     19783     19785     19783     19786     19786     19787
     19786     19788     19786     19789     19789     19790     19789     19791
     19789     19792     19792     19793     19792     19794     19792     19795
     19795     19796     19795     19797     19795     19798     19798     19799
     19798     19800     19800     19801     19800     19802     19802     19803
     19802     19804     19802     19805     19805     19806     19805     19807
     19805     19808     19808     19809     19808     19810     19808     19811
     19811     19812     19811     19813     19811     19814     19814     19815
     19814     19816     19814     19817     19817     19818     19817     19819
     19817     19820     19820     19821     19820     19822     19820     19823
     19823     19824     19823     19825     19823     19826     19774     19775
     19775     19777     19775     19776     19777     19778     19777     19779
     19777     19827     19827     19828     19827     19829     19827     19830
     19830     19831     19830     19832     19830     19833     19833     19834
     19833     19835     19833     19836     19836     19837     19836     19838
     19836     19839     19839     19840     19839     19841     19839     19842
     19842     19843     19842     19844     19842     19845     19845     19846
     19845     19847     19845     19848     19848     19849     19848     19850
     19848     19851     19851     19852     19851     19853     19851     19854
     19854     19855     19854     19856     19854     19857     19857     19858
     19857     19859     19857     19860     19860     19861     19860     19862
     19860     19863     19863     19864     19863     19865     19863     19866
     19866     19867     19866     19868     19866     19869     19870     19874
     19870     19878     19870     19882     19874     19875     19874     19876
     19874     19877     19878     19879     19878     19880     19878     19881
     19882     19883     19882     19884     19882     19885     19870     19871
     19871     19872     19871     19873     19871     19886     19886     19887
     19886     19888     19886     19892     19893     19894     19892     19889
     19889     19893     19889     19890     19889     19891     19894     19895
     19894     19896     19894     19897     19897     19898     19897     19905
     19897     19899     19905     19906     19905     19907     19905     19908
     19899     19900     19900     19902     19900     19901     19902     19903
     19902     19904     19902     19914     19914     19915     19914     19916
     19914     19917     19917     19918     19917     19919     19917     19920
     19920     19921     19920     19922     19920     19923     19923     19924
     19923     19925     19923     19926     19926     19927     19926     19928
     19926     19929     19929     19930     19929     19931     19929     19932
     19932     19933     19932     19934     19934     19935     19934     19936
     19936     19937     19936     19938     19936     19939     19939     19940
     19939     19941     19939     19942     19942     19943     19942     19944
     19942     19945     19945     19946     19945     19947     19945     19948
     19948     19949     19948     19950     19948     19951     19951     19952
     19951     19953     19951     19954     19954     19955     19954     19956
     19954     19957     19957     19958     19957     19959     19957     19960
     19908     19909     19909     19911     19909     19910     19911     19912
     19911     19913     19911     19961     19961     19962     19961     19963
     19961     19964     19964     19965     19964     19966     19964     19967
     19967     19968     19967     19969     19967     19970     19970     19971
     19970     19972     19970     19973     19973     19974     19973     19975
     19973     19976     19976     19977     19976     19978     19976     19979
     19979     19980     19979     19981     19979     19982     19982     19983
     19982     19984     19982     19985     19985     19986     19985     19987
     19985     19988     19988     19989     19988     19990     19988     19991
     19991     19992     19991     19993     19991     19994     19994     19995
     19994     19996     19994     19997     19997     19998     19997     19999
     19997     20000     20000     20001     20000     20002     20000     20003
     20004     20008     20004     20012     20004     20016     20008     20009
     20008     20010     20008     20011     20012     20013     20012     20014
     20012     20015     20016     20017     20016     20018     20016     20019
     20004     20005     20005     20006     20005     20007     20005     20020
     20020     20021     20020     20022     20020     20026     20027     20028
     20026     20023     20023     20027     20023     20024     20023     20025
     20028     20029     20028     20030     20028     20031     20031     20032
     20031     20039     20031     20033     20039     20040     20039     20041
     20039     20042     20033     20034     20034     20036     20034     20035
     20036     20037     20036     20038     20036     20048     20048     20049
     20048     20050     20048     20051     20051     20052     20051     20053
     20051     20054     20054     20055     20054     20056     20054     20057
     20057     20058     20057     20059     20057     20060     20060     20061
     20060     20062     20060     20063     20063     20064     20063     20065
     20063     20066     20066     20067     20066     20068     20068     20069
     20068     20070     20070     20071     20070     20072     20070     20073
     20073     20074     20073     20075     20073     20076     20076     20077
     20076     20078     20076     20079     20079     20080     20079     20081
     20079     20082     20082     20083     20082     20084     20082     20085
     20085     20086     20085     20087     20085     20088     20088     20089
     20088     20090     20088     20091     20091     20092     20091     20093
     20091     20094     20042     20043     20043     20045     20043     20044
     20045     20046     20045     20047     20045     20095     20095     20096
     20095     20097     20095     20098     20098     20099     20098     20100
     20098     20101     20101     20102     20101     20103     20101     20104
     20104     20105     20104     20106     20104     20107     20107     20108
     20107     20109     20107     20110     20110     20111     20110     20112
     20110     20113     20113     20114     20113     20115     20113     20116
     20116     20117     20116     20118     20116     20119     20119     20120
     20119     20121     20119     20122     20122     20123     20122     20124
     20122     20125     20125     20126     20125     20127     20125     20128
     20128     20129     20128     20130     20128     20131     20131     20132
     20131     20133     20131     20134     20134     20135     20134     20136
     20134     20137     20138     20139     20138     20140     20138     20141
     20138     20142     20146     20144     20144     20142     20144     20145
     20142     20143     20142     20147     20155     20154     20147     20148
     20147     20149     20147     20153     20153     20150     20150     20154
     20150     20151     20150     20152     20155     20156     20155     20157
     20155     20158     20158     20159     20158     20166     20158     20160
     20166     20167     20166     20168     20166     20169     20160     20161
     20161     20163     20161     20162     20163     20164     20163     20165
     20163     20175     20175     20176     20175     20177     20175     20178
     20178     20179     20178     20180     20178     20181     20181     20182
     20181     20183     20181     20184     20184     20185     20184     20186
     20184     20187     20187     20188     20187     20189     20187     20190
     20190     20191     20190     20192     20190     20193     20193     20194
     20193     20195     20195     20196     20195     20197     20197     20198
     20197     20199     20197     20200     20200     20201     20200     20202
     20200     20203     20203     20204     20203     20205     20203     20206
     20206     20207     20206     20208     20206     20209     20209     20210
     20209     20211     20209     20212     20212     20213     20212     20214
     20212     20215     20215     20216     20215     20217     20215     20218
     20218     20219     20218     20220     20218     20221     20169     20170
     20170     20172     20170     20171     20172     20173     20172     20174
     20172     20222     20222     20223     20222     20224     20222     20225
     20225     20226     20225     20227     20225     20228     20228     20229
     20228     20230     20228     20231     20231     20232     20231     20233
     20231     20234     20234     20235     20234     20236     20234     20237
     20237     20238     20237     20239     20237     20240     20240     20241
     20240     20242     20240     20243     20243     20244     20243     20245
     20243     20246     20246     20247     20246     20248     20246     20249
     20249     20250     20249     20251     20249     20252     20252     20253
     20252     20254     20252     20255     20255     20256     20255     20257
     20255     20258     20258     20259     20258     20260     20258     20261
     20261     20262     20261     20263     20261     20264     20265     20266
     20265     20267     20265     20268     20265     20269     20273     20271
     20271     20269     20271     20272     20269     20270     20269     20274
     20282     20281     20274     20275     20274     20276     20274     20280
     20280     20277     20277     20281     20277     20278     20277     20279
     20282     20283     20282     20284     20282     20285     20285     20286
     20285     20293     20285     20287     20293     20294     20293     20295
     20293     20296     20287     20288     20288     20290     20288     20289
     20290     20291     20290     20292     20290     20302     20302     20303
     20302     20304     20302     20305     20305     20306     20305     20307
     20305     20308     20308     20309     20308     20310     20308     20311
     20311     20312     20311     20313     20311     20314     20314     20315
     20314     20316     20314     20317     20317     20318     20317     20319
     20317     20320     20320     20321     20320     20322     20322     20323
     20322     20324     20324     20325     20324     20326     20324     20327
     20327     20328     20327     20329     20327     20330     20330     20331
     20330     20332     20330     20333     20333     20334     20333     20335
     20333     20336     20336     20337     20336     20338     20336     20339
     20339     20340     20339     20341     20339     20342     20342     20343
     20342     20344     20342     20345     20345     20346     20345     20347
     20345     20348     20296     20297     20297     20299     20297     20298
     20299     20300     20299     20301     20299     20349     20349     20350
     20349     20351     20349     20352     20352     20353     20352     20354
     20352     20355     20355     20356     20355     20357     20355     20358
     20358     20359     20358     20360     20358     20361     20361     20362
     20361     20363     20361     20364     20364     20365     20364     20366
     20364     20367     20367     20368     20367     20369     20367     20370
     20370     20371     20370     20372     20370     20373     20373     20374
     20373     20375     20373     20376     20376     20377     20376     20378
     20376     20379     20379     20380     20379     20381     20379     20382
     20382     20383     20382     20384     20382     20385     20385     20386
     20385     20387     20385     20388     20388     20389     20388     20390
     20388     20391     20392     20396     20392     20400     20392     20404
     20396     20397     20396     20398     20396     20399     20400     20401
     20400     20402     20400     20403     20404     20405     20404     20406
     20404     20407     20392     20393     20393     20394     20393     20395
     20393     20408     20408     20409     20408     20410     20408     20414
     20415     20416     20414     20411     20411     20415     20411     20412
     20411     20413     20416     20417     20416     20418     20416     20419
     20419     20420     20419     20427     20419     20421     20427     20428
     20427     20429     20427     20430     20421     20422     20422     20424
     20422     20423     20424     20425     20424     20426     20424     20436
     20436     20437     20436     20438     20436     20439     20439     20440
     20439     20441     20439     20442     20442     20443     20442     20444
     20442     20445     20445     20446     20445     20447     20445     20448
     20448     20449     20448     20450     20448     20451     20451     20452
     20451     20453     20451     20454     20454     20455     20454     20456
     20456     20457     20456     20458     20458     20459     20458     20460
     20458     20461     20461     20462     20461     20463     20461     20464
     20464     20465     20464     20466     20464     20467     20467     20468
     20467     20469     20467     20470     20470     20471     20470     20472
     20470     20473     20473     20474     20473     20475     20473     20476
     20476     20477     20476     20478     20476     20479     20479     20480
     20479     20481     20479     20482     20430     20431     20431     20433
     20431     20432     20433     20434     20433     20435     20433     20483
     20483     20484     20483     20485     20483     20486     20486     20487
     20486     20488     20486     20489     20489     20490     20489     20491
     20489     20492     20492     20493     20492     20494     20492     20495
     20495     20496     20495     20497     20495     20498     20498     20499
     20498     20500     20498     20501     20501     20502     20501     20503
     20501     20504     20504     20505     20504     20506     20504     20507
     20507     20508     20507     20509     20507     20510     20510     20511
     20510     20512     20510     20513     20513     20514     20513     20515
     20513     20516     20516     20517     20516     20518     20516     20519
     20519     20520     20519     20521     20519     20522     20522     20523
     20522     20524     20522     20525     20526     20530     20526     20534
     20526     20538     20530     20531     20530     20532     20530     20533
     20534     20535     20534     20536     20534     20537     20538     20539
     20538     20540     20538     20541     20526     20527     20527     20528
     20527     20529     20527     20542     20542     20543     20542     20544
     20542     20548     20549     20550     20548     20545     20545     20549
     20545     20546     20545     20547     20550     20551     20550     20552
     20550     20553     20553     20554     20553     20561     20553     20555
     20561     20562     20561     20563     20561     20564     20555     20556
     20556     20558     20556     20557     20558     20559     20558     20560
     20558     20570     20570     20571     20570     20572     20570     20573
     20573     20574     20573     20575     20573     20576     20576     20577
     20576     20578     20576     20579     20579     20580     20579     20581
     20579     20582     20582     20583     20582     20584     20582     20585
     20585     20586     20585     20587     20585     20588     20588     20589
     20588     20590     20590     20591     20590     20592     20592     20593
     20592     20594     20592     20595     20595     20596     20595     20597
     20595     20598     20598     20599     20598     20600     20598     20601
     20601     20602     20601     20603     20601     20604     20604     20605
     20604     20606     20604     20607     20607     20608     20607     20609
     20607     20610     20610     20611     20610     20612     20610     20613
     20613     20614     20613     20615     20613     20616     20564     20565
     20565     20567     20565     20566     20567     20568     20567     20569
     20567     20617     20617     20618     20617     20619     20617     20620
     20620     20621     20620     20622     20620     20623     20623     20624
     20623     20625     20623     20626     20626     20627     20626     20628
     20626     20629     20629     20630     20629     20631     20629     20632
     20632     20633     20632     20634     20632     20635     20635     20636
     20635     20637     20635     20638     20638     20639     20638     20640
     20638     20641     20641     20642     20641     20643     20641     20644
     20644     20645     20644     20646     20644     20647     20647     20648
     20647     20649     20647     20650     20650     20651     20650     20652
     20650     20653     20653     20654     20653     20655     20653     20656
     20656     20657     20656     20658     20656     20659     20660     20664
     20660     20668     20660     20672     20664     20665     20664     20666
     20664     20667     20668     20669     20668     20670     20668     20671
     20672     20673     20672     20674     20672     20675     20660     20661
     20661     20662     20661     20663     20661     20676     20676     20677
     20676     20678     20676     20682     20683     20684     20682     20679
     20679     20683     20679     20680     20679     20681     20684     20685
     20684     20686     20684     20687     20687     20688     20687     20695
     20687     20689     20695     20696     20695     20697     20695     20698
     20689     20690     20690     20692     20690     20691     20692     20693
     20692     20694     20692     20704     20704     20705     20704     20706
     20704     20707     20707     20708     20707     20709     20707     20710
     20710     20711     20710     20712     20710     20713     20713     20714
     20713     20715     20713     20716     20716     20717     20716     20718
     20716     20719     20719     20720     20719     20721     20719     20722
     20722     20723     20722     20724     20724     20725     20724     20726
     20726     20727     20726     20728     20726     20729     20729     20730
     20729     20731     20729     20732     20732     20733     20732     20734
     20732     20735     20735     20736     20735     20737     20735     20738
     20738     20739     20738     20740     20738     20741     20741     20742
     20741     20743     20741     20744     20744     20745     20744     20746
     20744     20747     20747     20748     20747     20749     20747     20750
     20698     20699     20699     20701     20699     20700     20701     20702
     20701     20703     20701     20751     20751     20752     20751     20753
     20751     20754     20754     20755     20754     20756     20754     20757
     20757     20758     20757     20759     20757     20760     20760     20761
     20760     20762     20760     20763     20763     20764     20763     20765
     20763     20766     20766     20767     20766     20768     20766     20769
     20769     20770     20769     20771     20769     20772     20772     20773
     20772     20774     20772     20775     20775     20776     20775     20777
     20775     20778     20778     20779     20778     20780     20778     20781
     20781     20782     20781     20783     20781     20784     20784     20785
     20784     20786     20784     20787     20787     20788     20787     20789
     20787     20790     20790     20791     20790     20792     20790     20793
     20794     20798     20794     20802     20794     20806     20798     20799
     20798     20800     20798     20801     20802     20803     20802     20804
     20802     20805     20806     20807     20806     20808     20806     20809
     20794     20795     20795     20796     20795     20797     20795     20810
     20810     20811     20810     20812     20810     20816     20817     20818
     20816     20813     20813     20817     20813     20814     20813     20815
     20818     20819     20818     20820     20818     20821     20821     20822
     20821     20829     20821     20823     20829     20830     20829     20831
     20829     20832     20823     20824     20824     20826     20824     20825
     20826     20827     20826     20828     20826     20838     20838     20839
     20838     20840     20838     20841     20841     20842     20841     20843
     20841     20844     20844     20845     20844     20846     20844     20847
     20847     20848     20847     20849     20847     20850     20850     20851
     20850     20852     20850     20853     20853     20854     20853     20855
     20853     20856     20856     20857     20856     20858     20858     20859
     20858     20860     20860     20861     20860     20862     20860     20863
     20863     20864     20863     20865     20863     20866     20866     20867
     20866     20868     20866     20869     20869     20870     20869     20871
     20869     20872     20872     20873     20872     20874     20872     20875
     20875     20876     20875     20877     20875     20878     20878     20879
     20878     20880     20878     20881     20881     20882     20881     20883
     20881     20884     20832     20833     20833     20835     20833     20834
     20835     20836     20835     20837     20835     20885     20885     20886
     20885     20887     20885     20888     20888     20889     20888     20890
     20888     20891     20891     20892     20891     20893     20891     20894
     20894     20895     20894     20896     20894     20897     20897     20898
     20897     20899     20897     20900     20900     20901     20900     20902
     20900     20903     20903     20904     20903     20905     20903     20906
     20906     20907     20906     20908     20906     20909     20909     20910
     20909     20911     20909     20912     20912     20913     20912     20914
     20912     20915     20915     20916     20915     20917     20915     20918
     20918     20919     20918     20920     20918     20921     20921     20922
     20921     20923     20921     20924     20924     20925     20924     20926
     20924     20927     20928     20932     20928     20936     20928     20940
     20932     20933     20932     20934     20932     20935     20936     20937
     20936     20938     20936     20939     20940     20941     20940     20942
     20940     20943     20928     20929     20929     20930     20929     20931
     20929     20944     20944     20945     20944     20946     20944     20950
     20951     20952     20950     20947     20947     20951     20947     20948
     20947     20949     20952     20953     20952     20954     20952     20955
     20955     20956     20955     20963     20955     20957     20963     20964
     20963     20965     20963     20966     20957     20958     20958     20960
     20958     20959     20960     20961     20960     20962     20960     20972
     20972     20973     20972     20974     20972     20975     20975     20976
     20975     20977     20975     20978     20978     20979     20978     20980
     20978     20981     20981     20982     20981     20983     20981     20984
     20984     20985     20984     20986     20984     20987     20987     20988
     20987     20989     20987     20990     20990     20991     20990     20992
     20992     20993     20992     20994     20994     20995     20994     20996
     20994     20997     20997     20998     20997     20999     20997     21000
     21000     21001     21000     21002     21000     21003     21003     21004
     21003     21005     21003     21006     21006     21007     21006     21008
     21006     21009     21009     21010     21009     21011     21009     21012
     21012     21013     21012     21014     21012     21015     21015     21016
     21015     21017     21015     21018     20966     20967     20967     20969
     20967     20968     20969     20970     20969     20971     20969     21019
     21019     21020     21019     21021     21019     21022     21022     21023
     21022     21024     21022     21025     21025     21026     21025     21027
     21025     21028     21028     21029     21028     21030     21028     21031
     21031     21032     21031     21033     21031     21034     21034     21035
     21034     21036     21034     21037     21037     21038     21037     21039
     21037     21040     21040     21041     21040     21042     21040     21043
     21043     21044     21043     21045     21043     21046     21046     21047
     21046     21048     21046     21049     21049     21050     21049     21051
     21049     21052     21052     21053     21052     21054     21052     21055
     21055     21056     21055     21057     21055     21058     21058     21059
     21058     21060     21058     21061     21062     21063     21062     21064
     21062     21065     21062     21066     21070     21068     21068     21066
     21068     21069     21066     21067     21066     21071     21079     21078
     21071     21072     21071     21073     21071     21077     21077     21074
     21074     21078     21074     21075     21074     21076     21079     21080
     21079     21081     21079     21082     21082     21083     21082     21090
     21082     21084     21090     21091     21090     21092     21090     21093
     21084     21085     21085     21087     21085     21086     21087     21088
     21087     21089     21087     21099     21099     21100     21099     21101
     21099     21102     21102     21103     21102     21104     21102     21105
     21105     21106     21105     21107     21105     21108     21108     21109
     21108     21110     21108     21111     21111     21112     21111     21113
     21111     21114     21114     21115     21114     21116     21114     21117
     21117     21118     21117     21119     21119     21120     21119     21121
     21121     21122     21121     21123     21121     21124     21124     21125
     21124     21126     21124     21127     21127     21128     21127     21129
     21127     21130     21130     21131     21130     21132     21130     21133
     21133     21134     21133     21135     21133     21136     21136     21137
     21136     21138     21136     21139     21139     21140     21139     21141
     21139     21142     21142     21143     21142     21144     21142     21145
     21093     21094     21094     21096     21094     21095     21096     21097
     21096     21098     21096     21146     21146     21147     21146     21148
     21146     21149     21149     21150     21149     21151     21149     21152
     21152     21153     21152     21154     21152     21155     21155     21156
     21155     21157     21155     21158     21158     21159     21158     21160
     21158     21161     21161     21162     21161     21163     21161     21164
     21164     21165     21164     21166     21164     21167     21167     21168
     21167     21169     21167     21170     21170     21171     21170     21172
     21170     21173     21173     21174     21173     21175     21173     21176
     21176     21177     21176     21178     21176     21179     21179     21180
     21179     21181     21179     21182     21182     21183     21182     21184
     21182     21185     21185     21186     21185     21187     21185     21188
     21189     21193     21189     21197     21189     21201     21193     21194
     21193     21195     21193     21196     21197     21198     21197     21199
     21197     21200     21201     21202     21201     21203     21201     21204
     21189     21190     21190     21191     21190     21192     21190     21205
     21205     21206     21205     21207     21205     21211     21212     21213
     21211     21208     21208     21212     21208     21209     21208     21210
     21213     21214     21213     21215     21213     21216     21216     21217
     21216     21224     21216     21218     21224     21225     21224     21226
     21224     21227     21218     21219     21219     21221     21219     21220
     21221     21222     21221     21223     21221     21233     21233     21234
     21233     21235     21233     21236     21236     21237     21236     21238
     21236     21239     21239     21240     21239     21241     21239     21242
     21242     21243     21242     21244     21242     21245     21245     21246
     21245     21247     21245     21248     21248     21249     21248     21250
     21248     21251     21251     21252     21251     21253     21253     21254
     21253     21255     21255     21256     21255     21257     21255     21258
     21258     21259     21258     21260     21258     21261     21261     21262
     21261     21263     21261     21264     21264     21265     21264     21266
     21264     21267     21267     21268     21267     21269     21267     21270
     21270     21271     21270     21272     21270     21273     21273     21274
     21273     21275     21273     21276     21276     21277     21276     21278
     21276     21279     21227     21228     21228     21230     21228     21229
     21230     21231     21230     21232     21230     21280     21280     21281
     21280     21282     21280     21283     21283     21284     21283     21285
     21283     21286     21286     21287     21286     21288     21286     21289
     21289     21290     21289     21291     21289     21292     21292     21293
     21292     21294     21292     21295     21295     21296     21295     21297
     21295     21298     21298     21299     21298     21300     21298     21301
     21301     21302     21301     21303     21301     21304     21304     21305
     21304     21306     21304     21307     21307     21308     21307     21309
     21307     21310     21310     21311     21310     21312     21310     21313
     21313     21314     21313     21315     21313     21316     21316     21317
     21316     21318     21316     21319     21319     21320     21319     21321
     21319     21322     21323     21327     21323     21331     21323     21335
     21327     21328     21327     21329     21327     21330     21331     21332
     21331     21333     21331     21334     21335     21336     21335     21337
     21335     21338     21323     21324     21324     21325     21324     21326
     21324     21339     21339     21340     21339     21341     21339     21345
     21346     21347     21345     21342     21342     21346     21342     21343
     21342     21344     21347     21348     21347     21349     21347     21350
     21350     21351     21350     21358     21350     21352     21358     21359
     21358     21360     21358     21361     21352     21353     21353     21355
     21353     21354     21355     21356     21355     21357     21355     21367
     21367     21368     21367     21369     21367     21370     21370     21371
     21370     21372     21370     21373     21373     21374     21373     21375
     21373     21376     21376     21377     21376     21378     21376     21379
     21379     21380     21379     21381     21379     21382     21382     21383
     21382     21384     21382     21385     21385     21386     21385     21387
     21387     21388     21387     21389     21389     21390     21389     21391
     21389     21392     21392     21393     21392     21394     21392     21395
     21395     21396     21395     21397     21395     21398     21398     21399
     21398     21400     21398     21401     21401     21402     21401     21403
     21401     21404     21404     21405     21404     21406     21404     21407
     21407     21408     21407     21409     21407     21410     21410     21411
     21410     21412     21410     21413     21361     21362     21362     21364
     21362     21363     21364     21365     21364     21366     21364     21414
     21414     21415     21414     21416     21414     21417     21417     21418
     21417     21419     21417     21420     21420     21421     21420     21422
     21420     21423     21423     21424     21423     21425     21423     21426
     21426     21427     21426     21428     21426     21429     21429     21430
     21429     21431     21429     21432     21432     21433     21432     21434
     21432     21435     21435     21436     21435     21437     21435     21438
     21438     21439     21438     21440     21438     21441     21441     21442
     21441     21443     21441     21444     21444     21445     21444     21446
     21444     21447     21447     21448     21447     21449     21447     21450
     21450     21451     21450     21452     21450     21453     21453     21454
     21453     21455     21453     21456     21457     21461     21457     21465
     21457     21469     21461     21462     21461     21463     21461     21464
     21465     21466     21465     21467     21465     21468     21469     21470
     21469     21471     21469     21472     21457     21458     21458     21459
     21458     21460     21458     21473     21473     21474     21473     21475
     21473     21479     21480     21481     21479     21476     21476     21480
     21476     21477     21476     21478     21481     21482     21481     21483
     21481     21484     21484     21485     21484     21492     21484     21486
     21492     21493     21492     21494     21492     21495     21486     21487
     21487     21489     21487     21488     21489     21490     21489     21491
     21489     21501     21501     21502     21501     21503     21501     21504
     21504     21505     21504     21506     21504     21507     21507     21508
     21507     21509     21507     21510     21510     21511     21510     21512
     21510     21513     21513     21514     21513     21515     21513     21516
     21516     21517     21516     21518     21516     21519     21519     21520
     21519     21521     21521     21522     21521     21523     21523     21524
     21523     21525     21523     21526     21526     21527     21526     21528
     21526     21529     21529     21530     21529     21531     21529     21532
     21532     21533     21532     21534     21532     21535     21535     21536
     21535     21537     21535     21538     21538     21539     21538     21540
     21538     21541     21541     21542     21541     21543     21541     21544
     21544     21545     21544     21546     21544     21547     21495     21496
     21496     21498     21496     21497     21498     21499     21498     21500
     21498     21548     21548     21549     21548     21550     21548     21551
     21551     21552     21551     21553     21551     21554     21554     21555
     21554     21556     21554     21557     21557     21558     21557     21559
     21557     21560     21560     21561     21560     21562     21560     21563
     21563     21564     21563     21565     21563     21566     21566     21567
     21566     21568     21566     21569     21569     21570     21569     21571
     21569     21572     21572     21573     21572     21574     21572     21575
     21575     21576     21575     21577     21575     21578     21578     21579
     21578     21580     21578     21581     21581     21582     21581     21583
     21581     21584     21584     21585     21584     21586     21584     21587
     21587     21588     21587     21589     21587     21590     21591     21595
     21591     21599     21591     21603     21595     21596     21595     21597
     21595     21598     21599     21600     21599     21601     21599     21602
     21603     21604     21603     21605     21603     21606     21591     21592
     21592     21593     21592     21594     21592     21607     21607     21608
     21607     21609     21607     21613     21614     21615     21613     21610
     21610     21614     21610     21611     21610     21612     21615     21616
     21615     21617     21615     21618     21618     21619     21618     21626
     21618     21620     21626     21627     21626     21628     21626     21629
     21620     21621     21621     21623     21621     21622     21623     21624
     21623     21625     21623     21635     21635     21636     21635     21637
     21635     21638     21638     21639     21638     21640     21638     21641
     21641     21642     21641     21643     21641     21644     21644     21645
     21644     21646     21644     21647     21647     21648     21647     21649
     21647     21650     21650     21651     21650     21652     21650     21653
     21653     21654     21653     21655     21655     21656     21655     21657
     21657     21658     21657     21659     21657     21660     21660     21661
     21660     21662     21660     21663     21663     21664     21663     21665
     21663     21666     21666     21667     21666     21668     21666     21669
     21669     21670     21669     21671     21669     21672     21672     21673
     21672     21674     21672     21675     21675     21676     21675     21677
     21675     21678     21678     21679     21678     21680     21678     21681
     21629     21630     21630     21632     21630     21631     21632     21633
     21632     21634     21632     21682     21682     21683     21682     21684
     21682     21685     21685     21686     21685     21687     21685     21688
     21688     21689     21688     21690     21688     21691     21691     21692
     21691     21693     21691     21694     21694     21695     21694     21696
     21694     21697     21697     21698     21697     21699     21697     21700
     21700     21701     21700     21702     21700     21703     21703     21704
     21703     21705     21703     21706     21706     21707     21706     21708
     21706     21709     21709     21710     21709     21711     21709     21712
     21712     21713     21712     21714     21712     21715     21715     21716
     21715     21717     21715     21718     21718     21719     21718     21720
     21718     21721     21721     21722     21721     21723     21721     21724
     21725     21729     21725     21733     21725     21737     21729     21730
     21729     21731     21729     21732     21733     21734     21733     21735
     21733     21736     21737     21738     21737     21739     21737     21740
     21725     21726     21726     21727     21726     21728     21726     21741
     21741     21742     21741     21743     21741     21747     21748     21749
     21747     21744     21744     21748     21744     21745     21744     21746
     21749     21750     21749     21751     21749     21752     21752     21753
     21752     21760     21752     21754     21760     21761     21760     21762
     21760     21763     21754     21755     21755     21757     21755     21756
     21757     21758     21757     21759     21757     21769     21769     21770
     21769     21771     21769     21772     21772     21773     21772     21774
     21772     21775     21775     21776     21775     21777     21775     21778
     21778     21779     21778     21780     21778     21781     21781     21782
     21781     21783     21781     21784     21784     21785     21784     21786
     21784     21787     21787     21788     21787     21789     21789     21790
     21789     21791     21791     21792     21791     21793     21791     21794
     21794     21795     21794     21796     21794     21797     21797     21798
     21797     21799     21797     21800     21800     21801     21800     21802
     21800     21803     21803     21804     21803     21805     21803     21806
     21806     21807     21806     21808     21806     21809     21809     21810
     21809     21811     21809     21812     21812     21813     21812     21814
     21812     21815     21763     21764     21764     21766     21764     21765
     21766     21767     21766     21768     21766     21816     21816     21817
     21816     21818     21816     21819     21819     21820     21819     21821
     21819     21822     21822     21823     21822     21824     21822     21825
     21825     21826     21825     21827     21825     21828     21828     21829
     21828     21830     21828     21831     21831     21832     21831     21833
     21831     21834     21834     21835     21834     21836     21834     21837
     21837     21838     21837     21839     21837     21840     21840     21841
     21840     21842     21840     21843     21843     21844     21843     21845
     21843     21846     21846     21847     21846     21848     21846     21849
     21849     21850     21849     21851     21849     21852     21852     21853
     21852     21854     21852     21855     21855     21856     21855     21857
     21855     21858     21859     21863     21859     21867     21859     21871
     21863     21864     21863     21865     21863     21866     21867     21868
     21867     21869     21867     21870     21871     21872     21871     21873
     21871     21874     21859     21860     21860     21861     21860     21862
     21860     21875     21875     21876     21875     21877     21875     21881
     21882     21883     21881     21878     21878     21882     21878     21879
     21878     21880     21883     21884     21883     21885     21883     21886
     21886     21887     21886     21894     21886     21888     21894     21895
     21894     21896     21894     21897     21888     21889     21889     21891
     21889     21890     21891     21892     21891     21893     21891     21903
     21903     21904     21903     21905     21903     21906     21906     21907
     21906     21908     21906     21909     21909     21910     21909     21911
     21909     21912     21912     21913     21912     21914     21912     21915
     21915     21916     21915     21917     21915     21918     21918     21919
     21918     21920     21918     21921     21921     21922     21921     21923
     21923     21924     21923     21925     21925     21926     21925     21927
     21925     21928     21928     21929     21928     21930     21928     21931
     21931     21932     21931     21933     21931     21934     21934     21935
     21934     21936     21934     21937     21937     21938     21937     21939
     21937     21940     21940     21941     21940     21942     21940     21943
     21943     21944     21943     21945     21943     21946     21946     21947
     21946     21948     21946     21949     21897     21898     21898     21900
     21898     21899     21900     21901     21900     21902     21900     21950
     21950     21951     21950     21952     21950     21953     21953     21954
     21953     21955     21953     21956     21956     21957     21956     21958
     21956     21959     21959     21960     21959     21961     21959     21962
     21962     21963     21962     21964     21962     21965     21965     21966
     21965     21967     21965     21968     21968     21969     21968     21970
     21968     21971     21971     21972     21971     21973     21971     21974
     21974     21975     21974     21976     21974     21977     21977     21978
     21977     21979     21977     21980     21980     21981     21980     21982
     21980     21983     21983     21984     21983     21985     21983     21986
     21986     21987     21986     21988     21986     21989     21989     21990
     21989     21991     21989     21992     21993     21997     21993     22001
     21993     22005     21997     21998     21997     21999     21997     22000
     22001     22002     22001     22003     22001     22004     22005     22006
     22005     22007     22005     22008     21993     21994     21994     21995
     21994     21996     21994     22009     22009     22010     22009     22011
     22009     22015     22016     22017     22015     22012     22012     22016
     22012     22013     22012     22014     22017     22018     22017     22019
     22017     22020     22020     22021     22020     22028     22020     22022
     22028     22029     22028     22030     22028     22031     22022     22023
     22023     22025     22023     22024     22025     22026     22025     22027
     22025     22037     22037     22038     22037     22039     22037     22040
     22040     22041     22040     22042     22040     22043     22043     22044
     22043     22045     22043     22046     22046     22047     22046     22048
     22046     22049     22049     22050     22049     22051     22049     22052
     22052     22053     22052     22054     22052     22055     22055     22056
     22055     22057     22057     22058     22057     22059     22059     22060
     22059     22061     22059     22062     22062     22063     22062     22064
     22062     22065     22065     22066     22065     22067     22065     22068
     22068     22069     22068     22070     22068     22071     22071     22072
     22071     22073     22071     22074     22074     22075     22074     22076
     22074     22077     22077     22078     22077     22079     22077     22080
     22080     22081     22080     22082     22080     22083     22031     22032
     22032     22034     22032     22033     22034     22035     22034     22036
     22034     22084     22084     22085     22084     22086     22084     22087
     22087     22088     22087     22089     22087     22090     22090     22091
     22090     22092     22090     22093     22093     22094     22093     22095
     22093     22096     22096     22097     22096     22098     22096     22099
     22099     22100     22099     22101     22099     22102     22102     22103
     22102     22104     22102     22105     22105     22106     22105     22107
     22105     22108     22108     22109     22108     22110     22108     22111
     22111     22112     22111     22113     22111     22114     22114     22115
     22114     22116     22114     22117     22117     22118     22117     22119
     22117     22120     22120     22121     22120     22122     22120     22123
     22123     22124     22123     22125     22123     22126     22127     22131
     22127     22135     22127     22139     22131     22132     22131     22133
     22131     22134     22135     22136     22135     22137     22135     22138
     22139     22140     22139     22141     22139     22142     22127     22128
     22128     22129     22128     22130     22128     22143     22143     22144
     22143     22145     22143     22149     22150     22151     22149     22146
     22146     22150     22146     22147     22146     22148     22151     22152
     22151     22153     22151     22154     22154     22155     22154     22162
     22154     22156     22162     22163     22162     22164     22162     22165
     22156     22157     22157     22159     22157     22158     22159     22160
     22159     22161     22159     22171     22171     22172     22171     22173
     22171     22174     22174     22175     22174     22176     22174     22177
     22177     22178     22177     22179     22177     22180     22180     22181
     22180     22182     22180     22183     22183     22184     22183     22185
     22183     22186     22186     22187     22186     22188     22186     22189
     22189     22190     22189     22191     22191     22192     22191     22193
     22193     22194     22193     22195     22193     22196     22196     22197
     22196     22198     22196     22199     22199     22200     22199     22201
     22199     22202     22202     22203     22202     22204     22202     22205
     22205     22206     22205     22207     22205     22208     22208     22209
     22208     22210     22208     22211     22211     22212     22211     22213
     22211     22214     22214     22215     22214     22216     22214     22217
     22165     22166     22166     22168     22166     22167     22168     22169
     22168     22170     22168     22218     22218     22219     22218     22220
     22218     22221     22221     22222     22221     22223     22221     22224
     22224     22225     22224     22226     22224     22227     22227     22228
     22227     22229     22227     22230     22230     22231     22230     22232
     22230     22233     22233     22234     22233     22235     22233     22236
     22236     22237     22236     22238     22236     22239     22239     22240
     22239     22241     22239     22242     22242     22243     22242     22244
     22242     22245     22245     22246     22245     22247     22245     22248
     22248     22249     22248     22250     22248     22251     22251     22252
     22251     22253     22251     22254     22254     22255     22254     22256
     22254     22257     22257     22258     22257     22259     22257     22260
     22261     22265     22261     22269     22261     22273     22265     22266
     22265     22267     22265     22268     22269     22270     22269     22271
     22269     22272     22273     22274     22273     22275     22273     22276
     22261     22262     22262     22263     22262     22264     22262     22277
     22277     22278     22277     22279     22277     22283     22284     22285
     22283     22280     22280     22284     22280     22281     22280     22282
     22285     22286     22285     22287     22285     22288     22288     22289
     22288     22296     22288     22290     22296     22297     22296     22298
     22296     22299     22290     22291     22291     22293     22291     22292
     22293     22294     22293     22295     22293     22305     22305     22306
     22305     22307     22305     22308     22308     22309     22308     22310
     22308     22311     22311     22312     22311     22313     22311     22314
     22314     22315     22314     22316     22314     22317     22317     22318
     22317     22319     22317     22320     22320     22321     22320     22322
     22320     22323     22323     22324     22323     22325     22325     22326
     22325     22327     22327     22328     22327     22329     22327     22330
     22330     22331     22330     22332     22330     22333     22333     22334
     22333     22335     22333     22336     22336     22337     22336     22338
     22336     22339     22339     22340     22339     22341     22339     22342
     22342     22343     22342     22344     22342     22345     22345     22346
     22345     22347     22345     22348     22348     22349     22348     22350
     22348     22351     22299     22300     22300     22302     22300     22301
     22302     22303     22302     22304     22302     22352     22352     22353
     22352     22354     22352     22355     22355     22356     22355     22357
     22355     22358     22358     22359     22358     22360     22358     22361
     22361     22362     22361     22363     22361     22364     22364     22365
     22364     22366     22364     22367     22367     22368     22367     22369
     22367     22370     22370     22371     22370     22372     22370     22373
     22373     22374     22373     22375     22373     22376     22376     22377
     22376     22378     22376     22379     22379     22380     22379     22381
     22379     22382     22382     22383     22382     22384     22382     22385
     22385     22386     22385     22387     22385     22388     22388     22389
     22388     22390     22388     22391     22391     22392     22391     22393
     22391     22394     22395     22396     22395     22397     22395     22398
     22395     22399     22403     22401     22401     22399     22401     22402
     22399     22400     22399     22404     22412     22411     22404     22405
     22404     22406     22404     22410     22410     22407     22407     22411
     22407     22408     22407     22409     22412     22413     22412     22414
     22412     22415     22415     22416     22415     22423     22415     22417
     22423     22424     22423     22425     22423     22426     22417     22418
     22418     22420     22418     22419     22420     22421     22420     22422
     22420     22432     22432     22433     22432     22434     22432     22435
     22435     22436     22435     22437     22435     22438     22438     22439
     22438     22440     22438     22441     22441     22442     22441     22443
     22441     22444     22444     22445     22444     22446     22444     22447
     22447     22448     22447     22449     22447     22450     22450     22451
     22450     22452     22452     22453     22452     22454     22454     22455
     22454     22456     22454     22457     22457     22458     22457     22459
     22457     22460     22460     22461     22460     22462     22460     22463
     22463     22464     22463     22465     22463     22466     22466     22467
     22466     22468     22466     22469     22469     22470     22469     22471
     22469     22472     22472     22473     22472     22474     22472     22475
     22475     22476     22475     22477     22475     22478     22426     22427
     22427     22429     22427     22428     22429     22430     22429     22431
     22429     22479     22479     22480     22479     22481     22479     22482
     22482     22483     22482     22484     22482     22485     22485     22486
     22485     22487     22485     22488     22488     22489     22488     22490
     22488     22491     22491     22492     22491     22493     22491     22494
     22494     22495     22494     22496     22494     22497     22497     22498
     22497     22499     22497     22500     22500     22501     22500     22502
     22500     22503     22503     22504     22503     22505     22503     22506
     22506     22507     22506     22508     22506     22509     22509     22510
     22509     22511     22509     22512     22512     22513     22512     22514
     22512     22515     22515     22516     22515     22517     22515     22518
     22518     22519     22518     22520     22518     22521     22522     22526
     22522     22530     22522     22534     22526     22527     22526     22528
     22526     22529     22530     22531     22530     22532     22530     22533
     22534     22535     22534     22536     22534     22537     22522     22523
     22523     22524     22523     22525     22523     22538     22538     22539
     22538     22540     22538     22544     22545     22546     22544     22541
     22541     22545     22541     22542     22541     22543     22546     22547
     22546     22548     22546     22549     22549     22550     22549     22557
     22549     22551     22557     22558     22557     22559     22557     22560
     22551     22552     22552     22554     22552     22553     22554     22555
     22554     22556     22554     22566     22566     22567     22566     22568
     22566     22569     22569     22570     22569     22571     22569     22572
     22572     22573     22572     22574     22572     22575     22575     22576
     22575     22577     22575     22578     22578     22579     22578     22580
     22578     22581     22581     22582     22581     22583     22581     22584
     22584     22585     22584     22586     22586     22587     22586     22588
     22588     22589     22588     22590     22588     22591     22591     22592
     22591     22593     22591     22594     22594     22595     22594     22596
     22594     22597     22597     22598     22597     22599     22597     22600
     22600     22601     22600     22602     22600     22603     22603     22604
     22603     22605     22603     22606     22606     22607     22606     22608
     22606     22609     22609     22610     22609     22611     22609     22612
     22560     22561     22561     22563     22561     22562     22563     22564
     22563     22565     22563     22613     22613     22614     22613     22615
     22613     22616     22616     22617     22616     22618     22616     22619
     22619     22620     22619     22621     22619     22622     22622     22623
     22622     22624     22622     22625     22625     22626     22625     22627
     22625     22628     22628     22629     22628     22630     22628     22631
     22631     22632     22631     22633     22631     22634     22634     22635
     22634     22636     22634     22637     22637     22638     22637     22639
     22637     22640     22640     22641     22640     22642     22640     22643
     22643     22644     22643     22645     22643     22646     22646     22647
     22646     22648     22646     22649     22649     22650     22649     22651
     22649     22652     22652     22653     22652     22654     22652     22655
     22656     22660     22656     22664     22656     22668     22660     22661
     22660     22662     22660     22663     22664     22665     22664     22666
     22664     22667     22668     22669     22668     22670     22668     22671
     22656     22657     22657     22658     22657     22659     22657     22672
     22672     22673     22672     22674     22672     22678     22679     22680
     22678     22675     22675     22679     22675     22676     22675     22677
     22680     22681     22680     22682     22680     22683     22683     22684
     22683     22691     22683     22685     22691     22692     22691     22693
     22691     22694     22685     22686     22686     22688     22686     22687
     22688     22689     22688     22690     22688     22700     22700     22701
     22700     22702     22700     22703     22703     22704     22703     22705
     22703     22706     22706     22707     22706     22708     22706     22709
     22709     22710     22709     22711     22709     22712     22712     22713
     22712     22714     22712     22715     22715     22716     22715     22717
     22715     22718     22718     22719     22718     22720     22720     22721
     22720     22722     22722     22723     22722     22724     22722     22725
     22725     22726     22725     22727     22725     22728     22728     22729
     22728     22730     22728     22731     22731     22732     22731     22733
     22731     22734     22734     22735     22734     22736     22734     22737
     22737     22738     22737     22739     22737     22740     22740     22741
     22740     22742     22740     22743     22743     22744     22743     22745
     22743     22746     22694     22695     22695     22697     22695     22696
     22697     22698     22697     22699     22697     22747     22747     22748
     22747     22749     22747     22750     22750     22751     22750     22752
     22750     22753     22753     22754     22753     22755     22753     22756
     22756     22757     22756     22758     22756     22759     22759     22760
     22759     22761     22759     22762     22762     22763     22762     22764
     22762     22765     22765     22766     22765     22767     22765     22768
     22768     22769     22768     22770     22768     22771     22771     22772
     22771     22773     22771     22774     22774     22775     22774     22776
     22774     22777     22777     22778     22777     22779     22777     22780
     22780     22781     22780     22782     22780     22783     22783     22784
     22783     22785     22783     22786     22786     22787     22786     22788
     22786     22789     22790     22794     22790     22798     22790     22802
     22794     22795     22794     22796     22794     22797     22798     22799
     22798     22800     22798     22801     22802     22803     22802     22804
     22802     22805     22790     22791     22791     22792     22791     22793
     22791     22806     22806     22807     22806     22808     22806     22812
     22813     22814     22812     22809     22809     22813     22809     22810
     22809     22811     22814     22815     22814     22816     22814     22817
     22817     22818     22817     22825     22817     22819     22825     22826
     22825     22827     22825     22828     22819     22820     22820     22822
     22820     22821     22822     22823     22822     22824     22822     22834
     22834     22835     22834     22836     22834     22837     22837     22838
     22837     22839     22837     22840     22840     22841     22840     22842
     22840     22843     22843     22844     22843     22845     22843     22846
     22846     22847     22846     22848     22846     22849     22849     22850
     22849     22851     22849     22852     22852     22853     22852     22854
     22854     22855     22854     22856     22856     22857     22856     22858
     22856     22859     22859     22860     22859     22861     22859     22862
     22862     22863     22862     22864     22862     22865     22865     22866
     22865     22867     22865     22868     22868     22869     22868     22870
     22868     22871     22871     22872     22871     22873     22871     22874
     22874     22875     22874     22876     22874     22877     22877     22878
     22877     22879     22877     22880     22828     22829     22829     22831
     22829     22830     22831     22832     22831     22833     22831     22881
     22881     22882     22881     22883     22881     22884     22884     22885
     22884     22886     22884     22887     22887     22888     22887     22889
     22887     22890     22890     22891     22890     22892     22890     22893
     22893     22894     22893     22895     22893     22896     22896     22897
     22896     22898     22896     22899     22899     22900     22899     22901
     22899     22902     22902     22903     22902     22904     22902     22905
     22905     22906     22905     22907     22905     22908     22908     22909
     22908     22910     22908     22911     22911     22912     22911     22913
     22911     22914     22914     22915     22914     22916     22914     22917
     22917     22918     22917     22919     22917     22920     22920     22921
     22920     22922     22920     22923     22924     22928     22924     22932
     22924     22936     22928     22929     22928     22930     22928     22931
     22932     22933     22932     22934     22932     22935     22936     22937
     22936     22938     22936     22939     22924     22925     22925     22926
     22925     22927     22925     22940     22940     22941     22940     22942
     22940     22946     22947     22948     22946     22943     22943     22947
     22943     22944     22943     22945     22948     22949     22948     22950
     22948     22951     22951     22952     22951     22959     22951     22953
     22959     22960     22959     22961     22959     22962     22953     22954
     22954     22956     22954     22955     22956     22957     22956     22958
     22956     22968     22968     22969     22968     22970     22968     22971
     22971     22972     22971     22973     22971     22974     22974     22975
     22974     22976     22974     22977     22977     22978     22977     22979
     22977     22980     22980     22981     22980     22982     22980     22983
     22983     22984     22983     22985     22983     22986     22986     22987
     22986     22988     22988     22989     22988     22990     22990     22991
     22990     22992     22990     22993     22993     22994     22993     22995
     22993     22996     22996     22997     22996     22998     22996     22999
     22999     23000     22999     23001     22999     23002     23002     23003
     23002     23004     23002     23005     23005     23006     23005     23007
     23005     23008     23008     23009     23008     23010     23008     23011
     23011     23012     23011     23013     23011     23014     22962     22963
     22963     22965     22963     22964     22965     22966     22965     22967
     22965     23015     23015     23016     23015     23017     23015     23018
     23018     23019     23018     23020     23018     23021     23021     23022
     23021     23023     23021     23024     23024     23025     23024     23026
     23024     23027     23027     23028     23027     23029     23027     23030
     23030     23031     23030     23032     23030     23033     23033     23034
     23033     23035     23033     23036     23036     23037     23036     23038
     23036     23039     23039     23040     23039     23041     23039     23042
     23042     23043     23042     23044     23042     23045     23045     23046
     23045     23047     23045     23048     23048     23049     23048     23050
     23048     23051     23051     23052     23051     23053     23051     23054
     23054     23055     23054     23056     23054     23057     23058     23062
     23058     23066     23058     23070     23062     23063     23062     23064
     23062     23065     23066     23067     23066     23068     23066     23069
     23070     23071     23070     23072     23070     23073     23058     23059
     23059     23060     23059     23061     23059     23074     23074     23075
     23074     23076     23074     23080     23081     23082     23080     23077
     23077     23081     23077     23078     23077     23079     23082     23083
     23082     23084     23082     23085     23085     23086     23085     23093
     23085     23087     23093     23094     23093     23095     23093     23096
     23087     23088     23088     23090     23088     23089     23090     23091
     23090     23092     23090     23102     23102     23103     23102     23104
     23102     23105     23105     23106     23105     23107     23105     23108
     23108     23109     23108     23110     23108     23111     23111     23112
     23111     23113     23111     23114     23114     23115     23114     23116
     23114     23117     23117     23118     23117     23119     23117     23120
     23120     23121     23120     23122     23122     23123     23122     23124
     23124     23125     23124     23126     23124     23127     23127     23128
     23127     23129     23127     23130     23130     23131     23130     23132
     23130     23133     23133     23134     23133     23135     23133     23136
     23136     23137     23136     23138     23136     23139     23139     23140
     23139     23141     23139     23142     23142     23143     23142     23144
     23142     23145     23145     23146     23145     23147     23145     23148
     23096     23097     23097     23099     23097     23098     23099     23100
     23099     23101     23099     23149     23149     23150     23149     23151
     23149     23152     23152     23153     23152     23154     23152     23155
     23155     23156     23155     23157     23155     23158     23158     23159
     23158     23160     23158     23161     23161     23162     23161     23163
     23161     23164     23164     23165     23164     23166     23164     23167
     23167     23168     23167     23169     23167     23170     23170     23171
     23170     23172     23170     23173     23173     23174     23173     23175
     23173     23176     23176     23177     23176     23178     23176     23179
     23179     23180     23179     23181     23179     23182     23182     23183
     23182     23184     23182     23185     23185     23186     23185     23187
     23185     23188     23188     23189     23188     23190     23188     23191
     23192     23196     23192     23200     23192     23204     23196     23197
     23196     23198     23196     23199     23200     23201     23200     23202
     23200     23203     23204     23205     23204     23206     23204     23207
     23192     23193     23193     23194     23193     23195     23193     23208
     23208     23209     23208     23210     23208     23214     23215     23216
     23214     23211     23211     23215     23211     23212     23211     23213
     23216     23217     23216     23218     23216     23219     23219     23220
     23219     23227     23219     23221     23227     23228     23227     23229
     23227     23230     23221     23222     23222     23224     23222     23223
     23224     23225     23224     23226     23224     23236     23236     23237
     23236     23238     23236     23239     23239     23240     23239     23241
     23239     23242     23242     23243     23242     23244     23242     23245
     23245     23246     23245     23247     23245     23248     23248     23249
     23248     23250     23248     23251     23251     23252     23251     23253
     23251     23254     23254     23255     23254     23256     23256     23257
     23256     23258     23258     23259     23258     23260     23258     23261
     23261     23262     23261     23263     23261     23264     23264     23265
     23264     23266     23264     23267     23267     23268     23267     23269
     23267     23270     23270     23271     23270     23272     23270     23273
     23273     23274     23273     23275     23273     23276     23276     23277
     23276     23278     23276     23279     23279     23280     23279     23281
     23279     23282     23230     23231     23231     23233     23231     23232
     23233     23234     23233     23235     23233     23283     23283     23284
     23283     23285     23283     23286     23286     23287     23286     23288
     23286     23289     23289     23290     23289     23291     23289     23292
     23292     23293     23292     23294     23292     23295     23295     23296
     23295     23297     23295     23298     23298     23299     23298     23300
     23298     23301     23301     23302     23301     23303     23301     23304
     23304     23305     23304     23306     23304     23307     23307     23308
     23307     23309     23307     23310     23310     23311     23310     23312
     23310     23313     23313     23314     23313     23315     23313     23316
     23316     23317     23316     23318     23316     23319     23319     23320
     23319     23321     23319     23322     23322     23323     23322     23324
     23322     23325     23326     23327     23326     23328     23326     23329
     23326     23330     23334     23332     23332     23330     23332     23333
     23330     23331     23330     23335     23343     23342     23335     23336
     23335     23337     23335     23341     23341     23338     23338     23342
     23338     23339     23338     23340     23343     23344     23343     23345
     23343     23346     23346     23347     23346     23354     23346     23348
     23354     23355     23354     23356     23354     23357     23348     23349
     23349     23351     23349     23350     23351     23352     23351     23353
     23351     23363     23363     23364     23363     23365     23363     23366
     23366     23367     23366     23368     23366     23369     23369     23370
     23369     23371     23369     23372     23372     23373     23372     23374
     23372     23375     23375     23376     23375     23377     23375     23378
     23378     23379     23378     23380     23378     23381     23381     23382
     23381     23383     23383     23384     23383     23385     23385     23386
     23385     23387     23385     23388     23388     23389     23388     23390
     23388     23391     23391     23392     23391     23393     23391     23394
     23394     23395     23394     23396     23394     23397     23397     23398
     23397     23399     23397     23400     23400     23401     23400     23402
     23400     23403     23403     23404     23403     23405     23403     23406
     23406     23407     23406     23408     23406     23409     23357     23358
     23358     23360     23358     23359     23360     23361     23360     23362
     23360     23410     23410     23411     23410     23412     23410     23413
     23413     23414     23413     23415     23413     23416     23416     23417
     23416     23418     23416     23419     23419     23420     23419     23421
     23419     23422     23422     23423     23422     23424     23422     23425
     23425     23426     23425     23427     23425     23428     23428     23429
     23428     23430     23428     23431     23431     23432     23431     23433
     23431     23434     23434     23435     23434     23436     23434     23437
     23437     23438     23437     23439     23437     23440     23440     23441
     23440     23442     23440     23443     23443     23444     23443     23445
     23443     23446     23446     23447     23446     23448     23446     23449
     23449     23450     23449     23451     23449     23452     23453     23457
     23453     23461     23453     23465     23457     23458     23457     23459
     23457     23460     23461     23462     23461     23463     23461     23464
     23465     23466     23465     23467     23465     23468     23453     23454
     23454     23455     23454     23456     23454     23469     23469     23470
     23469     23471     23469     23475     23476     23477     23475     23472
     23472     23476     23472     23473     23472     23474     23477     23478
     23477     23479     23477     23480     23480     23481     23480     23488
     23480     23482     23488     23489     23488     23490     23488     23491
     23482     23483     23483     23485     23483     23484     23485     23486
     23485     23487     23485     23497     23497     23498     23497     23499
     23497     23500     23500     23501     23500     23502     23500     23503
     23503     23504     23503     23505     23503     23506     23506     23507
     23506     23508     23506     23509     23509     23510     23509     23511
     23509     23512     23512     23513     23512     23514     23512     23515
     23515     23516     23515     23517     23517     23518     23517     23519
     23519     23520     23519     23521     23519     23522     23522     23523
     23522     23524     23522     23525     23525     23526     23525     23527
     23525     23528     23528     23529     23528     23530     23528     23531
     23531     23532     23531     23533     23531     23534     23534     23535
     23534     23536     23534     23537     23537     23538     23537     23539
     23537     23540     23540     23541     23540     23542     23540     23543
     23491     23492     23492     23494     23492     23493     23494     23495
     23494     23496     23494     23544     23544     23545     23544     23546
     23544     23547     23547     23548     23547     23549     23547     23550
     23550     23551     23550     23552     23550     23553     23553     23554
     23553     23555     23553     23556     23556     23557     23556     23558
     23556     23559     23559     23560     23559     23561     23559     23562
     23562     23563     23562     23564     23562     23565     23565     23566
     23565     23567     23565     23568     23568     23569     23568     23570
     23568     23571     23571     23572     23571     23573     23571     23574
     23574     23575     23574     23576     23574     23577     23577     23578
     23577     23579     23577     23580     23580     23581     23580     23582
     23580     23583     23583     23584     23583     23585     23583     23586
     23587     23591     23587     23595     23587     23599     23591     23592
     23591     23593     23591     23594     23595     23596     23595     23597
     23595     23598     23599     23600     23599     23601     23599     23602
     23587     23588     23588     23589     23588     23590     23588     23603
     23603     23604     23603     23605     23603     23609     23610     23611
     23609     23606     23606     23610     23606     23607     23606     23608
     23611     23612     23611     23613     23611     23614     23614     23615
     23614     23622     23614     23616     23622     23623     23622     23624
     23622     23625     23616     23617     23617     23619     23617     23618
     23619     23620     23619     23621     23619     23631     23631     23632
     23631     23633     23631     23634     23634     23635     23634     23636
     23634     23637     23637     23638     23637     23639     23637     23640
     23640     23641     23640     23642     23640     23643     23643     23644
     23643     23645     23643     23646     23646     23647     23646     23648
     23646     23649     23649     23650     23649     23651     23651     23652
     23651     23653     23653     23654     23653     23655     23653     23656
     23656     23657     23656     23658     23656     23659     23659     23660
     23659     23661     23659     23662     23662     23663     23662     23664
     23662     23665     23665     23666     23665     23667     23665     23668
     23668     23669     23668     23670     23668     23671     23671     23672
     23671     23673     23671     23674     23674     23675     23674     23676
     23674     23677     23625     23626     23626     23628     23626     23627
     23628     23629     23628     23630     23628     23678     23678     23679
     23678     23680     23678     23681     23681     23682     23681     23683
     23681     23684     23684     23685     23684     23686     23684     23687
     23687     23688     23687     23689     23687     23690     23690     23691
     23690     23692     23690     23693     23693     23694     23693     23695
     23693     23696     23696     23697     23696     23698     23696     23699
     23699     23700     23699     23701     23699     23702     23702     23703
     23702     23704     23702     23705     23705     23706     23705     23707
     23705     23708     23708     23709     23708     23710     23708     23711
     23711     23712     23711     23713     23711     23714     23714     23715
     23714     23716     23714     23717     23717     23718     23717     23719
     23717     23720     23721     23725     23721     23729     23721     23733
     23725     23726     23725     23727     23725     23728     23729     23730
     23729     23731     23729     23732     23733     23734     23733     23735
     23733     23736     23721     23722     23722     23723     23722     23724
     23722     23737     23737     23738     23737     23739     23737     23743
     23744     23745     23743     23740     23740     23744     23740     23741
     23740     23742     23745     23746     23745     23747     23745     23748
     23748     23749     23748     23756     23748     23750     23756     23757
     23756     23758     23756     23759     23750     23751     23751     23753
     23751     23752     23753     23754     23753     23755     23753     23765
     23765     23766     23765     23767     23765     23768     23768     23769
     23768     23770     23768     23771     23771     23772     23771     23773
     23771     23774     23774     23775     23774     23776     23774     23777
     23777     23778     23777     23779     23777     23780     23780     23781
     23780     23782     23780     23783     23783     23784     23783     23785
     23785     23786     23785     23787     23787     23788     23787     23789
     23787     23790     23790     23791     23790     23792     23790     23793
     23793     23794     23793     23795     23793     23796     23796     23797
     23796     23798     23796     23799     23799     23800     23799     23801
     23799     23802     23802     23803     23802     23804     23802     23805
     23805     23806     23805     23807     23805     23808     23808     23809
     23808     23810     23808     23811     23759     23760     23760     23762
     23760     23761     23762     23763     23762     23764     23762     23812
     23812     23813     23812     23814     23812     23815     23815     23816
     23815     23817     23815     23818     23818     23819     23818     23820
     23818     23821     23821     23822     23821     23823     23821     23824
     23824     23825     23824     23826     23824     23827     23827     23828
     23827     23829     23827     23830     23830     23831     23830     23832
     23830     23833     23833     23834     23833     23835     23833     23836
     23836     23837     23836     23838     23836     23839     23839     23840
     23839     23841     23839     23842     23842     23843     23842     23844
     23842     23845     23845     23846     23845     23847     23845     23848
     23848     23849     23848     23850     23848     23851     23851     23852
     23851     23853     23851     23854     23855     23859     23855     23863
     23855     23867     23859     23860     23859     23861     23859     23862
     23863     23864     23863     23865     23863     23866     23867     23868
     23867     23869     23867     23870     23855     23856     23856     23857
     23856     23858     23856     23871     23871     23872     23871     23873
     23871     23877     23878     23879     23877     23874     23874     23878
     23874     23875     23874     23876     23879     23880     23879     23881
     23879     23882     23882     23883     23882     23890     23882     23884
     23890     23891     23890     23892     23890     23893     23884     23885
     23885     23887     23885     23886     23887     23888     23887     23889
     23887     23899     23899     23900     23899     23901     23899     23902
     23902     23903     23902     23904     23902     23905     23905     23906
     23905     23907     23905     23908     23908     23909     23908     23910
     23908     23911     23911     23912     23911     23913     23911     23914
     23914     23915     23914     23916     23914     23917     23917     23918
     23917     23919     23919     23920     23919     23921     23921     23922
     23921     23923     23921     23924     23924     23925     23924     23926
     23924     23927     23927     23928     23927     23929     23927     23930
     23930     23931     23930     23932     23930     23933     23933     23934
     23933     23935     23933     23936     23936     23937     23936     23938
     23936     23939     23939     23940     23939     23941     23939     23942
     23942     23943     23942     23944     23942     23945     23893     23894
     23894     23896     23894     23895     23896     23897     23896     23898
     23896     23946     23946     23947     23946     23948     23946     23949
     23949     23950     23949     23951     23949     23952     23952     23953
     23952     23954     23952     23955     23955     23956     23955     23957
     23955     23958     23958     23959     23958     23960     23958     23961
     23961     23962     23961     23963     23961     23964     23964     23965
     23964     23966     23964     23967     23967     23968     23967     23969
     23967     23970     23970     23971     23970     23972     23970     23973
     23973     23974     23973     23975     23973     23976     23976     23977
     23976     23978     23976     23979     23979     23980     23979     23981
     23979     23982     23982     23983     23982     23984     23982     23985
     23985     23986     23985     23987     23985     23988     23989     23993
     23989     23997     23989     24001     23993     23994     23993     23995
     23993     23996     23997     23998     23997     23999     23997     24000
     24001     24002     24001     24003     24001     24004     23989     23990
     23990     23991     23990     23992     23990     24005     24005     24006
     24005     24007     24005     24011     24012     24013     24011     24008
     24008     24012     24008     24009     24008     24010     24013     24014
     24013     24015     24013     24016     24016     24017     24016     24024
     24016     24018     24024     24025     24024     24026     24024     24027
     24018     24019     24019     24021     24019     24020     24021     24022
     24021     24023     24021     24033     24033     24034     24033     24035
     24033     24036     24036     24037     24036     24038     24036     24039
     24039     24040     24039     24041     24039     24042     24042     24043
     24042     24044     24042     24045     24045     24046     24045     24047
     24045     24048     24048     24049     24048     24050     24048     24051
     24051     24052     24051     24053     24053     24054     24053     24055
     24055     24056     24055     24057     24055     24058     24058     24059
     24058     24060     24058     24061     24061     24062     24061     24063
     24061     24064     24064     24065     24064     24066     24064     24067
     24067     24068     24067     24069     24067     24070     24070     24071
     24070     24072     24070     24073     24073     24074     24073     24075
     24073     24076     24076     24077     24076     24078     24076     24079
     24027     24028     24028     24030     24028     24029     24030     24031
     24030     24032     24030     24080     24080     24081     24080     24082
     24080     24083     24083     24084     24083     24085     24083     24086
     24086     24087     24086     24088     24086     24089     24089     24090
     24089     24091     24089     24092     24092     24093     24092     24094
     24092     24095     24095     24096     24095     24097     24095     24098
     24098     24099     24098     24100     24098     24101     24101     24102
     24101     24103     24101     24104     24104     24105     24104     24106
     24104     24107     24107     24108     24107     24109     24107     24110
     24110     24111     24110     24112     24110     24113     24113     24114
     24113     24115     24113     24116     24116     24117     24116     24118
     24116     24119     24119     24120     24119     24121     24119     24122
     24123     24127     24123     24131     24123     24135     24127     24128
     24127     24129     24127     24130     24131     24132     24131     24133
     24131     24134     24135     24136     24135     24137     24135     24138
     24123     24124     24124     24125     24124     24126     24124     24139
     24139     24140     24139     24141     24139     24145     24146     24147
     24145     24142     24142     24146     24142     24143     24142     24144
     24147     24148     24147     24149     24147     24150     24150     24151
     24150     24158     24150     24152     24158     24159     24158     24160
     24158     24161     24152     24153     24153     24155     24153     24154
     24155     24156     24155     24157     24155     24167     24167     24168
     24167     24169     24167     24170     24170     24171     24170     24172
     24170     24173     24173     24174     24173     24175     24173     24176
     24176     24177     24176     24178     24176     24179     24179     24180
     24179     24181     24179     24182     24182     24183     24182     24184
     24182     24185     24185     24186     24185     24187     24187     24188
     24187     24189     24189     24190     24189     24191     24189     24192
     24192     24193     24192     24194     24192     24195     24195     24196
     24195     24197     24195     24198     24198     24199     24198     24200
     24198     24201     24201     24202     24201     24203     24201     24204
     24204     24205     24204     24206     24204     24207     24207     24208
     24207     24209     24207     24210     24210     24211     24210     24212
     24210     24213     24161     24162     24162     24164     24162     24163
     24164     24165     24164     24166     24164     24214     24214     24215
     24214     24216     24214     24217     24217     24218     24217     24219
     24217     24220     24220     24221     24220     24222     24220     24223
     24223     24224     24223     24225     24223     24226     24226     24227
     24226     24228     24226     24229     24229     24230     24229     24231
     24229     24232     24232     24233     24232     24234     24232     24235
     24235     24236     24235     24237     24235     24238     24238     24239
     24238     24240     24238     24241     24241     24242     24241     24243
     24241     24244     24244     24245     24244     24246     24244     24247
     24247     24248     24247     24249     24247     24250     24250     24251
     24250     24252     24250     24253     24253     24254     24253     24255
     24253     24256     24257     24261     24257     24265     24257     24269
     24261     24262     24261     24263     24261     24264     24265     24266
     24265     24267     24265     24268     24269     24270     24269     24271
     24269     24272     24257     24258     24258     24259     24258     24260
     24258     24273     24273     24274     24273     24275     24273     24279
     24280     24281     24279     24276     24276     24280     24276     24277
     24276     24278     24281     24282     24281     24283     24281     24284
     24284     24285     24284     24292     24284     24286     24292     24293
     24292     24294     24292     24295     24286     24287     24287     24289
     24287     24288     24289     24290     24289     24291     24289     24301
     24301     24302     24301     24303     24301     24304     24304     24305
     24304     24306     24304     24307     24307     24308     24307     24309
     24307     24310     24310     24311     24310     24312     24310     24313
     24313     24314     24313     24315     24313     24316     24316     24317
     24316     24318     24316     24319     24319     24320     24319     24321
     24321     24322     24321     24323     24323     24324     24323     24325
     24323     24326     24326     24327     24326     24328     24326     24329
     24329     24330     24329     24331     24329     24332     24332     24333
     24332     24334     24332     24335     24335     24336     24335     24337
     24335     24338     24338     24339     24338     24340     24338     24341
     24341     24342     24341     24343     24341     24344     24344     24345
     24344     24346     24344     24347     24295     24296     24296     24298
     24296     24297     24298     24299     24298     24300     24298     24348
     24348     24349     24348     24350     24348     24351     24351     24352
     24351     24353     24351     24354     24354     24355     24354     24356
     24354     24357     24357     24358     24357     24359     24357     24360
     24360     24361     24360     24362     24360     24363     24363     24364
     24363     24365     24363     24366     24366     24367     24366     24368
     24366     24369     24369     24370     24369     24371     24369     24372
     24372     24373     24372     24374     24372     24375     24375     24376
     24375     24377     24375     24378     24378     24379     24378     24380
     24378     24381     24381     24382     24381     24383     24381     24384
     24384     24385     24384     24386     24384     24387     24387     24388
     24387     24389     24387     24390     24391     24395     24391     24399
     24391     24403     24395     24396     24395     24397     24395     24398
     24399     24400     24399     24401     24399     24402     24403     24404
     24403     24405     24403     24406     24391     24392     24392     24393
     24392     24394     24392     24407     24407     24408     24407     24409
     24407     24413     24414     24415     24413     24410     24410     24414
     24410     24411     24410     24412     24415     24416     24415     24417
     24415     24418     24418     24419     24418     24426     24418     24420
     24426     24427     24426     24428     24426     24429     24420     24421
     24421     24423     24421     24422     24423     24424     24423     24425
     24423     24435     24435     24436     24435     24437     24435     24438
     24438     24439     24438     24440     24438     24441     24441     24442
     24441     24443     24441     24444     24444     24445     24444     24446
     24444     24447     24447     24448     24447     24449     24447     24450
     24450     24451     24450     24452     24450     24453     24453     24454
     24453     24455     24455     24456     24455     24457     24457     24458
     24457     24459     24457     24460     24460     24461     24460     24462
     24460     24463     24463     24464     24463     24465     24463     24466
     24466     24467     24466     24468     24466     24469     24469     24470
     24469     24471     24469     24472     24472     24473     24472     24474
     24472     24475     24475     24476     24475     24477     24475     24478
     24478     24479     24478     24480     24478     24481     24429     24430
     24430     24432     24430     24431     24432     24433     24432     24434
     24432     24482     24482     24483     24482     24484     24482     24485
     24485     24486     24485     24487     24485     24488     24488     24489
     24488     24490     24488     24491     24491     24492     24491     24493
     24491     24494     24494     24495     24494     24496     24494     24497
     24497     24498     24497     24499     24497     24500     24500     24501
     24500     24502     24500     24503     24503     24504     24503     24505
     24503     24506     24506     24507     24506     24508     24506     24509
     24509     24510     24509     24511     24509     24512     24512     24513
     24512     24514     24512     24515     24515     24516     24515     24517
     24515     24518     24518     24519     24518     24520     24518     24521
     24521     24522     24521     24523     24521     24524     24525     24529
     24525     24533     24525     24537     24529     24530     24529     24531
     24529     24532     24533     24534     24533     24535     24533     24536
     24537     24538     24537     24539     24537     24540     24525     24526
     24526     24527     24526     24528     24526     24541     24541     24542
     24541     24543     24541     24547     24548     24549     24547     24544
     24544     24548     24544     24545     24544     24546     24549     24550
     24549     24551     24549     24552     24552     24553     24552     24560
     24552     24554     24560     24561     24560     24562     24560     24563
     24554     24555     24555     24557     24555     24556     24557     24558
     24557     24559     24557     24569     24569     24570     24569     24571
     24569     24572     24572     24573     24572     24574     24572     24575
     24575     24576     24575     24577     24575     24578     24578     24579
     24578     24580     24578     24581     24581     24582     24581     24583
     24581     24584     24584     24585     24584     24586     24584     24587
     24587     24588     24587     24589     24589     24590     24589     24591
     24591     24592     24591     24593     24591     24594     24594     24595
     24594     24596     24594     24597     24597     24598     24597     24599
     24597     24600     24600     24601     24600     24602     24600     24603
     24603     24604     24603     24605     24603     24606     24606     24607
     24606     24608     24606     24609     24609     24610     24609     24611
     24609     24612     24612     24613     24612     24614     24612     24615
     24563     24564     24564     24566     24564     24565     24566     24567
     24566     24568     24566     24616     24616     24617     24616     24618
     24616     24619     24619     24620     24619     24621     24619     24622
     24622     24623     24622     24624     24622     24625     24625     24626
     24625     24627     24625     24628     24628     24629     24628     24630
     24628     24631     24631     24632     24631     24633     24631     24634
     24634     24635     24634     24636     24634     24637     24637     24638
     24637     24639     24637     24640     24640     24641     24640     24642
     24640     24643     24643     24644     24643     24645     24643     24646
     24646     24647     24646     24648     24646     24649     24649     24650
     24649     24651     24649     24652     24652     24653     24652     24654
     24652     24655     24655     24656     24655     24657     24655     24658
     24659     24663     24659     24667     24659     24671     24663     24664
     24663     24665     24663     24666     24667     24668     24667     24669
     24667     24670     24671     24672     24671     24673     24671     24674
     24659     24660     24660     24661     24660     24662     24660     24675
     24675     24676     24675     24677     24675     24681     24682     24683
     24681     24678     24678     24682     24678     24679     24678     24680
     24683     24684     24683     24685     24683     24686     24686     24687
     24686     24694     24686     24688     24694     24695     24694     24696
     24694     24697     24688     24689     24689     24691     24689     24690
     24691     24692     24691     24693     24691     24703     24703     24704
     24703     24705     24703     24706     24706     24707     24706     24708
     24706     24709     24709     24710     24709     24711     24709     24712
     24712     24713     24712     24714     24712     24715     24715     24716
     24715     24717     24715     24718     24718     24719     24718     24720
     24718     24721     24721     24722     24721     24723     24723     24724
     24723     24725     24725     24726     24725     24727     24725     24728
     24728     24729     24728     24730     24728     24731     24731     24732
     24731     24733     24731     24734     24734     24735     24734     24736
     24734     24737     24737     24738     24737     24739     24737     24740
     24740     24741     24740     24742     24740     24743     24743     24744
     24743     24745     24743     24746     24746     24747     24746     24748
     24746     24749     24697     24698     24698     24700     24698     24699
     24700     24701     24700     24702     24700     24750     24750     24751
     24750     24752     24750     24753     24753     24754     24753     24755
     24753     24756     24756     24757     24756     24758     24756     24759
     24759     24760     24759     24761     24759     24762     24762     24763
     24762     24764     24762     24765     24765     24766     24765     24767
     24765     24768     24768     24769     24768     24770     24768     24771
     24771     24772     24771     24773     24771     24774     24774     24775
     24774     24776     24774     24777     24777     24778     24777     24779
     24777     24780     24780     24781     24780     24782     24780     24783
     24783     24784     24783     24785     24783     24786     24786     24787
     24786     24788     24786     24789     24789     24790     24789     24791
     24789     24792     24793     24797     24793     24801     24793     24805
     24797     24798     24797     24799     24797     24800     24801     24802
     24801     24803     24801     24804     24805     24806     24805     24807
     24805     24808     24793     24794     24794     24795     24794     24796
     24794     24809     24809     24810     24809     24811     24809     24815
     24816     24817     24815     24812     24812     24816     24812     24813
     24812     24814     24817     24818     24817     24819     24817     24820
     24820     24821     24820     24828     24820     24822     24828     24829
     24828     24830     24828     24831     24822     24823     24823     24825
     24823     24824     24825     24826     24825     24827     24825     24837
     24837     24838     24837     24839     24837     24840     24840     24841
     24840     24842     24840     24843     24843     24844     24843     24845
     24843     24846     24846     24847     24846     24848     24846     24849
     24849     24850     24849     24851     24849     24852     24852     24853
     24852     24854     24852     24855     24855     24856     24855     24857
     24857     24858     24857     24859     24859     24860     24859     24861
     24859     24862     24862     24863     24862     24864     24862     24865
     24865     24866     24865     24867     24865     24868     24868     24869
     24868     24870     24868     24871     24871     24872     24871     24873
     24871     24874     24874     24875     24874     24876     24874     24877
     24877     24878     24877     24879     24877     24880     24880     24881
     24880     24882     24880     24883     24831     24832     24832     24834
     24832     24833     24834     24835     24834     24836     24834     24884
     24884     24885     24884     24886     24884     24887     24887     24888
     24887     24889     24887     24890     24890     24891     24890     24892
     24890     24893     24893     24894     24893     24895     24893     24896
     24896     24897     24896     24898     24896     24899     24899     24900
     24899     24901     24899     24902     24902     24903     24902     24904
     24902     24905     24905     24906     24905     24907     24905     24908
     24908     24909     24908     24910     24908     24911     24911     24912
     24911     24913     24911     24914     24914     24915     24914     24916
     24914     24917     24917     24918     24917     24919     24917     24920
     24920     24921     24920     24922     24920     24923     24923     24924
     24923     24925     24923     24926     24927     24931     24927     24935
     24927     24939     24931     24932     24931     24933     24931     24934
     24935     24936     24935     24937     24935     24938     24939     24940
     24939     24941     24939     24942     24927     24928     24928     24929
     24928     24930     24928     24943     24943     24944     24943     24945
     24943     24949     24950     24951     24949     24946     24946     24950
     24946     24947     24946     24948     24951     24952     24951     24953
     24951     24954     24954     24955     24954     24962     24954     24956
     24962     24963     24962     24964     24962     24965     24956     24957
     24957     24959     24957     24958     24959     24960     24959     24961
     24959     24971     24971     24972     24971     24973     24971     24974
     24974     24975     24974     24976     24974     24977     24977     24978
     24977     24979     24977     24980     24980     24981     24980     24982
     24980     24983     24983     24984     24983     24985     24983     24986
     24986     24987     24986     24988     24986     24989     24989     24990
     24989     24991     24991     24992     24991     24993     24993     24994
     24993     24995     24993     24996     24996     24997     24996     24998
     24996     24999     24999     25000     24999     25001     24999     25002
     25002     25003     25002     25004     25002     25005     25005     25006
     25005     25007     25005     25008     25008     25009     25008     25010
     25008     25011     25011     25012     25011     25013     25011     25014
     25014     25015     25014     25016     25014     25017     24965     24966
     24966     24968     24966     24967     24968     24969     24968     24970
     24968     25018     25018     25019     25018     25020     25018     25021
     25021     25022     25021     25023     25021     25024     25024     25025
     25024     25026     25024     25027     25027     25028     25027     25029
     25027     25030     25030     25031     25030     25032     25030     25033
     25033     25034     25033     25035     25033     25036     25036     25037
     25036     25038     25036     25039     25039     25040     25039     25041
     25039     25042     25042     25043     25042     25044     25042     25045
     25045     25046     25045     25047     25045     25048     25048     25049
     25048     25050     25048     25051     25051     25052     25051     25053
     25051     25054     25054     25055     25054     25056     25054     25057
     25057     25058     25057     25059     25057     25060     25061     25065
     25061     25069     25061     25073     25065     25066     25065     25067
     25065     25068     25069     25070     25069     25071     25069     25072
     25073     25074     25073     25075     25073     25076     25061     25062
     25062     25063     25062     25064     25062     25077     25077     25078
     25077     25079     25077     25083     25084     25085     25083     25080
     25080     25084     25080     25081     25080     25082     25085     25086
     25085     25087     25085     25088     25088     25089     25088     25096
     25088     25090     25096     25097     25096     25098     25096     25099
     25090     25091     25091     25093     25091     25092     25093     25094
     25093     25095     25093     25105     25105     25106     25105     25107
     25105     25108     25108     25109     25108     25110     25108     25111
     25111     25112     25111     25113     25111     25114     25114     25115
     25114     25116     25114     25117     25117     25118     25117     25119
     25117     25120     25120     25121     25120     25122     25120     25123
     25123     25124     25123     25125     25125     25126     25125     25127
     25127     25128     25127     25129     25127     25130     25130     25131
     25130     25132     25130     25133     25133     25134     25133     25135
     25133     25136     25136     25137     25136     25138     25136     25139
     25139     25140     25139     25141     25139     25142     25142     25143
     25142     25144     25142     25145     25145     25146     25145     25147
     25145     25148     25148     25149     25148     25150     25148     25151
     25099     25100     25100     25102     25100     25101     25102     25103
     25102     25104     25102     25152     25152     25153     25152     25154
     25152     25155     25155     25156     25155     25157     25155     25158
     25158     25159     25158     25160     25158     25161     25161     25162
     25161     25163     25161     25164     25164     25165     25164     25166
     25164     25167     25167     25168     25167     25169     25167     25170
     25170     25171     25170     25172     25170     25173     25173     25174
     25173     25175     25173     25176     25176     25177     25176     25178
     25176     25179     25179     25180     25179     25181     25179     25182
     25182     25183     25182     25184     25182     25185     25185     25186
     25185     25187     25185     25188     25188     25189     25188     25190
     25188     25191     25191     25192     25191     25193     25191     25194
     25195     25199     25195     25203     25195     25207     25199     25200
     25199     25201     25199     25202     25203     25204     25203     25205
     25203     25206     25207     25208     25207     25209     25207     25210
     25195     25196     25196     25197     25196     25198     25196     25211
     25211     25212     25211     25213     25211     25217     25218     25219
     25217     25214     25214     25218     25214     25215     25214     25216
     25219     25220     25219     25221     25219     25222     25222     25223
     25222     25230     25222     25224     25230     25231     25230     25232
     25230     25233     25224     25225     25225     25227     25225     25226
     25227     25228     25227     25229     25227     25239     25239     25240
     25239     25241     25239     25242     25242     25243     25242     25244
     25242     25245     25245     25246     25245     25247     25245     25248
     25248     25249     25248     25250     25248     25251     25251     25252
     25251     25253     25251     25254     25254     25255     25254     25256
     25254     25257     25257     25258     25257     25259     25259     25260
     25259     25261     25261     25262     25261     25263     25261     25264
     25264     25265     25264     25266     25264     25267     25267     25268
     25267     25269     25267     25270     25270     25271     25270     25272
     25270     25273     25273     25274     25273     25275     25273     25276
     25276     25277     25276     25278     25276     25279     25279     25280
     25279     25281     25279     25282     25282     25283     25282     25284
     25282     25285     25233     25234     25234     25236     25234     25235
     25236     25237     25236     25238     25236     25286     25286     25287
     25286     25288     25286     25289     25289     25290     25289     25291
     25289     25292     25292     25293     25292     25294     25292     25295
     25295     25296     25295     25297     25295     25298     25298     25299
     25298     25300     25298     25301     25301     25302     25301     25303
     25301     25304     25304     25305     25304     25306     25304     25307
     25307     25308     25307     25309     25307     25310     25310     25311
     25310     25312     25310     25313     25313     25314     25313     25315
     25313     25316     25316     25317     25316     25318     25316     25319
     25319     25320     25319     25321     25319     25322     25322     25323
     25322     25324     25322     25325     25325     25326     25325     25327
     25325     25328     25329     25333     25329     25337     25329     25341
     25333     25334     25333     25335     25333     25336     25337     25338
     25337     25339     25337     25340     25341     25342     25341     25343
     25341     25344     25329     25330     25330     25331     25330     25332
     25330     25345     25345     25346     25345     25347     25345     25351
     25352     25353     25351     25348     25348     25352     25348     25349
     25348     25350     25353     25354     25353     25355     25353     25356
     25356     25357     25356     25364     25356     25358     25364     25365
     25364     25366     25364     25367     25358     25359     25359     25361
     25359     25360     25361     25362     25361     25363     25361     25373
     25373     25374     25373     25375     25373     25376     25376     25377
     25376     25378     25376     25379     25379     25380     25379     25381
     25379     25382     25382     25383     25382     25384     25382     25385
     25385     25386     25385     25387     25385     25388     25388     25389
     25388     25390     25388     25391     25391     25392     25391     25393
     25393     25394     25393     25395     25395     25396     25395     25397
     25395     25398     25398     25399     25398     25400     25398     25401
     25401     25402     25401     25403     25401     25404     25404     25405
     25404     25406     25404     25407     25407     25408     25407     25409
     25407     25410     25410     25411     25410     25412     25410     25413
     25413     25414     25413     25415     25413     25416     25416     25417
     25416     25418     25416     25419     25367     25368     25368     25370
     25368     25369     25370     25371     25370     25372     25370     25420
     25420     25421     25420     25422     25420     25423     25423     25424
     25423     25425     25423     25426     25426     25427     25426     25428
     25426     25429     25429     25430     25429     25431     25429     25432
     25432     25433     25432     25434     25432     25435     25435     25436
     25435     25437     25435     25438     25438     25439     25438     25440
     25438     25441     25441     25442     25441     25443     25441     25444
     25444     25445     25444     25446     25444     25447     25447     25448
     25447     25449     25447     25450     25450     25451     25450     25452
     25450     25453     25453     25454     25453     25455     25453     25456
     25456     25457     25456     25458     25456     25459     25459     25460
     25459     25461     25459     25462     25463     25467     25463     25471
     25463     25475     25467     25468     25467     25469     25467     25470
     25471     25472     25471     25473     25471     25474     25475     25476
     25475     25477     25475     25478     25463     25464     25464     25465
     25464     25466     25464     25479     25479     25480     25479     25481
     25479     25485     25486     25487     25485     25482     25482     25486
     25482     25483     25482     25484     25487     25488     25487     25489
     25487     25490     25490     25491     25490     25498     25490     25492
     25498     25499     25498     25500     25498     25501     25492     25493
     25493     25495     25493     25494     25495     25496     25495     25497
     25495     25507     25507     25508     25507     25509     25507     25510
     25510     25511     25510     25512     25510     25513     25513     25514
     25513     25515     25513     25516     25516     25517     25516     25518
     25516     25519     25519     25520     25519     25521     25519     25522
     25522     25523     25522     25524     25522     25525     25525     25526
     25525     25527     25527     25528     25527     25529     25529     25530
     25529     25531     25529     25532     25532     25533     25532     25534
     25532     25535     25535     25536     25535     25537     25535     25538
     25538     25539     25538     25540     25538     25541     25541     25542
     25541     25543     25541     25544     25544     25545     25544     25546
     25544     25547     25547     25548     25547     25549     25547     25550
     25550     25551     25550     25552     25550     25553     25501     25502
     25502     25504     25502     25503     25504     25505     25504     25506
     25504     25554     25554     25555     25554     25556     25554     25557
     25557     25558     25557     25559     25557     25560     25560     25561
     25560     25562     25560     25563     25563     25564     25563     25565
     25563     25566     25566     25567     25566     25568     25566     25569
     25569     25570     25569     25571     25569     25572     25572     25573
     25572     25574     25572     25575     25575     25576     25575     25577
     25575     25578     25578     25579     25578     25580     25578     25581
     25581     25582     25581     25583     25581     25584     25584     25585
     25584     25586     25584     25587     25587     25588     25587     25589
     25587     25590     25590     25591     25590     25592     25590     25593
     25593     25594     25593     25595     25593     25596     25597     25601
     25597     25605     25597     25609     25601     25602     25601     25603
     25601     25604     25605     25606     25605     25607     25605     25608
     25609     25610     25609     25611     25609     25612     25597     25598
     25598     25599     25598     25600     25598     25613     25613     25614
     25613     25615     25613     25619     25620     25621     25619     25616
     25616     25620     25616     25617     25616     25618     25621     25622
     25621     25623     25621     25624     25624     25625     25624     25632
     25624     25626     25632     25633     25632     25634     25632     25635
     25626     25627     25627     25629     25627     25628     25629     25630
     25629     25631     25629     25641     25641     25642     25641     25643
     25641     25644     25644     25645     25644     25646     25644     25647
     25647     25648     25647     25649     25647     25650     25650     25651
     25650     25652     25650     25653     25653     25654     25653     25655
     25653     25656     25656     25657     25656     25658     25656     25659
     25659     25660     25659     25661     25661     25662     25661     25663
     25663     25664     25663     25665     25663     25666     25666     25667
     25666     25668     25666     25669     25669     25670     25669     25671
     25669     25672     25672     25673     25672     25674     25672     25675
     25675     25676     25675     25677     25675     25678     25678     25679
     25678     25680     25678     25681     25681     25682     25681     25683
     25681     25684     25684     25685     25684     25686     25684     25687
     25635     25636     25636     25638     25636     25637     25638     25639
     25638     25640     25638     25688     25688     25689     25688     25690
     25688     25691     25691     25692     25691     25693     25691     25694
     25694     25695     25694     25696     25694     25697     25697     25698
     25697     25699     25697     25700     25700     25701     25700     25702
     25700     25703     25703     25704     25703     25705     25703     25706
     25706     25707     25706     25708     25706     25709     25709     25710
     25709     25711     25709     25712     25712     25713     25712     25714
     25712     25715     25715     25716     25715     25717     25715     25718
     25718     25719     25718     25720     25718     25721     25721     25722
     25721     25723     25721     25724     25724     25725     25724     25726
     25724     25727     25727     25728     25727     25729     25727     25730
     25731     25735     25731     25739     25731     25743     25735     25736
     25735     25737     25735     25738     25739     25740     25739     25741
     25739     25742     25743     25744     25743     25745     25743     25746
     25731     25732     25732     25733     25732     25734     25732     25747
     25747     25748     25747     25749     25747     25753     25754     25755
     25753     25750     25750     25754     25750     25751     25750     25752
     25755     25756     25755     25757     25755     25758     25758     25759
     25758     25766     25758     25760     25766     25767     25766     25768
     25766     25769     25760     25761     25761     25763     25761     25762
     25763     25764     25763     25765     25763     25775     25775     25776
     25775     25777     25775     25778     25778     25779     25778     25780
     25778     25781     25781     25782     25781     25783     25781     25784
     25784     25785     25784     25786     25784     25787     25787     25788
     25787     25789     25787     25790     25790     25791     25790     25792
     25790     25793     25793     25794     25793     25795     25795     25796
     25795     25797     25797     25798     25797     25799     25797     25800
     25800     25801     25800     25802     25800     25803     25803     25804
     25803     25805     25803     25806     25806     25807     25806     25808
     25806     25809     25809     25810     25809     25811     25809     25812
     25812     25813     25812     25814     25812     25815     25815     25816
     25815     25817     25815     25818     25818     25819     25818     25820
     25818     25821     25769     25770     25770     25772     25770     25771
     25772     25773     25772     25774     25772     25822     25822     25823
     25822     25824     25822     25825     25825     25826     25825     25827
     25825     25828     25828     25829     25828     25830     25828     25831
     25831     25832     25831     25833     25831     25834     25834     25835
     25834     25836     25834     25837     25837     25838     25837     25839
     25837     25840     25840     25841     25840     25842     25840     25843
     25843     25844     25843     25845     25843     25846     25846     25847
     25846     25848     25846     25849     25849     25850     25849     25851
     25849     25852     25852     25853     25852     25854     25852     25855
     25855     25856     25855     25857     25855     25858     25858     25859
     25858     25860     25858     25861     25861     25862     25861     25863
     25861     25864     25865     25869     25865     25873     25865     25877
     25869     25870     25869     25871     25869     25872     25873     25874
     25873     25875     25873     25876     25877     25878     25877     25879
     25877     25880     25865     25866     25866     25867     25866     25868
     25866     25881     25881     25882     25881     25883     25881     25887
     25888     25889     25887     25884     25884     25888     25884     25885
     25884     25886     25889     25890     25889     25891     25889     25892
     25892     25893     25892     25900     25892     25894     25900     25901
     25900     25902     25900     25903     25894     25895     25895     25897
     25895     25896     25897     25898     25897     25899     25897     25909
     25909     25910     25909     25911     25909     25912     25912     25913
     25912     25914     25912     25915     25915     25916     25915     25917
     25915     25918     25918     25919     25918     25920     25918     25921
     25921     25922     25921     25923     25921     25924     25924     25925
     25924     25926     25924     25927     25927     25928     25927     25929
     25929     25930     25929     25931     25931     25932     25931     25933
     25931     25934     25934     25935     25934     25936     25934     25937
     25937     25938     25937     25939     25937     25940     25940     25941
     25940     25942     25940     25943     25943     25944     25943     25945
     25943     25946     25946     25947     25946     25948     25946     25949
     25949     25950     25949     25951     25949     25952     25952     25953
     25952     25954     25952     25955     25903     25904     25904     25906
     25904     25905     25906     25907     25906     25908     25906     25956
     25956     25957     25956     25958     25956     25959     25959     25960
     25959     25961     25959     25962     25962     25963     25962     25964
     25962     25965     25965     25966     25965     25967     25965     25968
     25968     25969     25968     25970     25968     25971     25971     25972
     25971     25973     25971     25974     25974     25975     25974     25976
     25974     25977     25977     25978     25977     25979     25977     25980
     25980     25981     25980     25982     25980     25983     25983     25984
     25983     25985     25983     25986     25986     25987     25986     25988
     25986     25989     25989     25990     25989     25991     25989     25992
     25992     25993     25992     25994     25992     25995     25995     25996
     25995     25997     25995     25998     25999     26000     25999     26001
     25999     26002     25999     26003     26007     26005     26005     26003
     26005     26006     26003     26004     26003     26008     26016     26015
     26008     26009     26008     26010     26008     26014     26014     26011
     26011     26015     26011     26012     26011     26013     26016     26017
     26016     26018     26016     26019     26019     26020     26019     26027
     26019     26021     26027     26028     26027     26029     26027     26030
     26021     26022     26022     26024     26022     26023     26024     26025
     26024     26026     26024     26036     26036     26037     26036     26038
     26036     26039     26039     26040     26039     26041     26039     26042
     26042     26043     26042     26044     26042     26045     26045     26046
     26045     26047     26045     26048     26048     26049     26048     26050
     26048     26051     26051     26052     26051     26053     26051     26054
     26054     26055     26054     26056     26056     26057     26056     26058
     26058     26059     26058     26060     26058     26061     26061     26062
     26061     26063     26061     26064     26064     26065     26064     26066
     26064     26067     26067     26068     26067     26069     26067     26070
     26070     26071     26070     26072     26070     26073     26073     26074
     26073     26075     26073     26076     26076     26077     26076     26078
     26076     26079     26079     26080     26079     26081     26079     26082
     26030     26031     26031     26033     26031     26032     26033     26034
     26033     26035     26033     26083     26083     26084     26083     26085
     26083     26086     26086     26087     26086     26088     26086     26089
     26089     26090     26089     26091     26089     26092     26092     26093
     26092     26094     26092     26095     26095     26096     26095     26097
     26095     26098     26098     26099     26098     26100     26098     26101
     26101     26102     26101     26103     26101     26104     26104     26105
     26104     26106     26104     26107     26107     26108     26107     26109
     26107     26110     26110     26111     26110     26112     26110     26113
     26113     26114     26113     26115     26113     26116     26116     26117
     26116     26118     26116     26119     26119     26120     26119     26121
     26119     26122     26122     26123     26122     26124     26122     26125
     26126     26130     26126     26134     26126     26138     26130     26131
     26130     26132     26130     26133     26134     26135     26134     26136
     26134     26137     26138     26139     26138     26140     26138     26141
     26126     26127     26127     26128     26127     26129     26127     26142
     26142     26143     26142     26144     26142     26148     26149     26150
     26148     26145     26145     26149     26145     26146     26145     26147
     26150     26151     26150     26152     26150     26153     26153     26154
     26153     26161     26153     26155     26161     26162     26161     26163
     26161     26164     26155     26156     26156     26158     26156     26157
     26158     26159     26158     26160     26158     26170     26170     26171
     26170     26172     26170     26173     26173     26174     26173     26175
     26173     26176     26176     26177     26176     26178     26176     26179
     26179     26180     26179     26181     26179     26182     26182     26183
     26182     26184     26182     26185     26185     26186     26185     26187
     26185     26188     26188     26189     26188     26190     26190     26191
     26190     26192     26192     26193     26192     26194     26192     26195
     26195     26196     26195     26197     26195     26198     26198     26199
     26198     26200     26198     26201     26201     26202     26201     26203
     26201     26204     26204     26205     26204     26206     26204     26207
     26207     26208     26207     26209     26207     26210     26210     26211
     26210     26212     26210     26213     26213     26214     26213     26215
     26213     26216     26164     26165     26165     26167     26165     26166
     26167     26168     26167     26169     26167     26217     26217     26218
     26217     26219     26217     26220     26220     26221     26220     26222
     26220     26223     26223     26224     26223     26225     26223     26226
     26226     26227     26226     26228     26226     26229     26229     26230
     26229     26231     26229     26232     26232     26233     26232     26234
     26232     26235     26235     26236     26235     26237     26235     26238
     26238     26239     26238     26240     26238     26241     26241     26242
     26241     26243     26241     26244     26244     26245     26244     26246
     26244     26247     26247     26248     26247     26249     26247     26250
     26250     26251     26250     26252     26250     26253     26253     26254
     26253     26255     26253     26256     26256     26257     26256     26258
     26256     26259     26260     26261     26260     26262     26260     26263
     26260     26264     26268     26266     26266     26264     26266     26267
     26264     26265     26264     26269     26277     26276     26269     26270
     26269     26271     26269     26275     26275     26272     26272     26276
     26272     26273     26272     26274     26277     26278     26277     26279
     26277     26280     26280     26281     26280     26288     26280     26282
     26288     26289     26288     26290     26288     26291     26282     26283
     26283     26285     26283     26284     26285     26286     26285     26287
     26285     26297     26297     26298     26297     26299     26297     26300
     26300     26301     26300     26302     26300     26303     26303     26304
     26303     26305     26303     26306     26306     26307     26306     26308
     26306     26309     26309     26310     26309     26311     26309     26312
     26312     26313     26312     26314     26312     26315     26315     26316
     26315     26317     26317     26318     26317     26319     26319     26320
     26319     26321     26319     26322     26322     26323     26322     26324
     26322     26325     26325     26326     26325     26327     26325     26328
     26328     26329     26328     26330     26328     26331     26331     26332
     26331     26333     26331     26334     26334     26335     26334     26336
     26334     26337     26337     26338     26337     26339     26337     26340
     26340     26341     26340     26342     26340     26343     26291     26292
     26292     26294     26292     26293     26294     26295     26294     26296
     26294     26344     26344     26345     26344     26346     26344     26347
     26347     26348     26347     26349     26347     26350     26350     26351
     26350     26352     26350     26353     26353     26354     26353     26355
     26353     26356     26356     26357     26356     26358     26356     26359
     26359     26360     26359     26361     26359     26362     26362     26363
     26362     26364     26362     26365     26365     26366     26365     26367
     26365     26368     26368     26369     26368     26370     26368     26371
     26371     26372     26371     26373     26371     26374     26374     26375
     26374     26376     26374     26377     26377     26378     26377     26379
     26377     26380     26380     26381     26380     26382     26380     26383
     26383     26384     26383     26385     26383     26386     26387     26388
     26387     26389     26387     26390     26387     26391     26395     26393
     26393     26391     26393     26394     26391     26392     26391     26396
     26404     26403     26396     26397     26396     26398     26396     26402
     26402     26399     26399     26403     26399     26400     26399     26401
     26404     26405     26404     26406     26404     26407     26407     26408
     26407     26415     26407     26409     26415     26416     26415     26417
     26415     26418     26409     26410     26410     26412     26410     26411
     26412     26413     26412     26414     26412     26424     26424     26425
     26424     26426     26424     26427     26427     26428     26427     26429
     26427     26430     26430     26431     26430     26432     26430     26433
     26433     26434     26433     26435     26433     26436     26436     26437
     26436     26438     26436     26439     26439     26440     26439     26441
     26439     26442     26442     26443     26442     26444     26444     26445
     26444     26446     26446     26447     26446     26448     26446     26449
     26449     26450     26449     26451     26449     26452     26452     26453
     26452     26454     26452     26455     26455     26456     26455     26457
     26455     26458     26458     26459     26458     26460     26458     26461
     26461     26462     26461     26463     26461     26464     26464     26465
     26464     26466     26464     26467     26467     26468     26467     26469
     26467     26470     26418     26419     26419     26421     26419     26420
     26421     26422     26421     26423     26421     26471     26471     26472
     26471     26473     26471     26474     26474     26475     26474     26476
     26474     26477     26477     26478     26477     26479     26477     26480
     26480     26481     26480     26482     26480     26483     26483     26484
     26483     26485     26483     26486     26486     26487     26486     26488
     26486     26489     26489     26490     26489     26491     26489     26492
     26492     26493     26492     26494     26492     26495     26495     26496
     26495     26497     26495     26498     26498     26499     26498     26500
     26498     26501     26501     26502     26501     26503     26501     26504
     26504     26505     26504     26506     26504     26507     26507     26508
     26507     26509     26507     26510     26510     26511     26510     26512
     26510     26513     26514     26518     26514     26522     26514     26526
     26518     26519     26518     26520     26518     26521     26522     26523
     26522     26524     26522     26525     26526     26527     26526     26528
     26526     26529     26514     26515     26515     26516     26515     26517
     26515     26530     26530     26531     26530     26532     26530     26536
     26537     26538     26536     26533     26533     26537     26533     26534
     26533     26535     26538     26539     26538     26540     26538     26541
     26541     26542     26541     26549     26541     26543     26549     26550
     26549     26551     26549     26552     26543     26544     26544     26546
     26544     26545     26546     26547     26546     26548     26546     26558
     26558     26559     26558     26560     26558     26561     26561     26562
     26561     26563     26561     26564     26564     26565     26564     26566
     26564     26567     26567     26568     26567     26569     26567     26570
     26570     26571     26570     26572     26570     26573     26573     26574
     26573     26575     26573     26576     26576     26577     26576     26578
     26578     26579     26578     26580     26580     26581     26580     26582
     26580     26583     26583     26584     26583     26585     26583     26586
     26586     26587     26586     26588     26586     26589     26589     26590
     26589     26591     26589     26592     26592     26593     26592     26594
     26592     26595     26595     26596     26595     26597     26595     26598
     26598     26599     26598     26600     26598     26601     26601     26602
     26601     26603     26601     26604     26552     26553     26553     26555
     26553     26554     26555     26556     26555     26557     26555     26605
     26605     26606     26605     26607     26605     26608     26608     26609
     26608     26610     26608     26611     26611     26612     26611     26613
     26611     26614     26614     26615     26614     26616     26614     26617
     26617     26618     26617     26619     26617     26620     26620     26621
     26620     26622     26620     26623     26623     26624     26623     26625
     26623     26626     26626     26627     26626     26628     26626     26629
     26629     26630     26629     26631     26629     26632     26632     26633
     26632     26634     26632     26635     26635     26636     26635     26637
     26635     26638     26638     26639     26638     26640     26638     26641
     26641     26642     26641     26643     26641     26644     26644     26645
     26644     26646     26644     26647     26648     26652     26648     26656
     26648     26660     26652     26653     26652     26654     26652     26655
     26656     26657     26656     26658     26656     26659     26660     26661
     26660     26662     26660     26663     26648     26649     26649     26650
     26649     26651     26649     26664     26664     26665     26664     26666
     26664     26670     26671     26672     26670     26667     26667     26671
     26667     26668     26667     26669     26672     26673     26672     26674
     26672     26675     26675     26676     26675     26683     26675     26677
     26683     26684     26683     26685     26683     26686     26677     26678
     26678     26680     26678     26679     26680     26681     26680     26682
     26680     26692     26692     26693     26692     26694     26692     26695
     26695     26696     26695     26697     26695     26698     26698     26699
     26698     26700     26698     26701     26701     26702     26701     26703
     26701     26704     26704     26705     26704     26706     26704     26707
     26707     26708     26707     26709     26707     26710     26710     26711
     26710     26712     26712     26713     26712     26714     26714     26715
     26714     26716     26714     26717     26717     26718     26717     26719
     26717     26720     26720     26721     26720     26722     26720     26723
     26723     26724     26723     26725     26723     26726     26726     26727
     26726     26728     26726     26729     26729     26730     26729     26731
     26729     26732     26732     26733     26732     26734     26732     26735
     26735     26736     26735     26737     26735     26738     26686     26687
     26687     26689     26687     26688     26689     26690     26689     26691
     26689     26739     26739     26740     26739     26741     26739     26742
     26742     26743     26742     26744     26742     26745     26745     26746
     26745     26747     26745     26748     26748     26749     26748     26750
     26748     26751     26751     26752     26751     26753     26751     26754
     26754     26755     26754     26756     26754     26757     26757     26758
     26757     26759     26757     26760     26760     26761     26760     26762
     26760     26763     26763     26764     26763     26765     26763     26766
     26766     26767     26766     26768     26766     26769     26769     26770
     26769     26771     26769     26772     26772     26773     26772     26774
     26772     26775     26775     26776     26775     26777     26775     26778
     26778     26779     26778     26780     26778     26781     26782     26786
     26782     26790     26782     26794     26786     26787     26786     26788
     26786     26789     26790     26791     26790     26792     26790     26793
     26794     26795     26794     26796     26794     26797     26782     26783
     26783     26784     26783     26785     26783     26798     26798     26799
     26798     26800     26798     26804     26805     26806     26804     26801
     26801     26805     26801     26802     26801     26803     26806     26807
     26806     26808     26806     26809     26809     26810     26809     26817
     26809     26811     26817     26818     26817     26819     26817     26820
     26811     26812     26812     26814     26812     26813     26814     26815
     26814     26816     26814     26826     26826     26827     26826     26828
     26826     26829     26829     26830     26829     26831     26829     26832
     26832     26833     26832     26834     26832     26835     26835     26836
     26835     26837     26835     26838     26838     26839     26838     26840
     26838     26841     26841     26842     26841     26843     26841     26844
     26844     26845     26844     26846     26846     26847     26846     26848
     26848     26849     26848     26850     26848     26851     26851     26852
     26851     26853     26851     26854     26854     26855     26854     26856
     26854     26857     26857     26858     26857     26859     26857     26860
     26860     26861     26860     26862     26860     26863     26863     26864
     26863     26865     26863     26866     26866     26867     26866     26868
     26866     26869     26869     26870     26869     26871     26869     26872
     26820     26821     26821     26823     26821     26822     26823     26824
     26823     26825     26823     26873     26873     26874     26873     26875
     26873     26876     26876     26877     26876     26878     26876     26879
     26879     26880     26879     26881     26879     26882     26882     26883
     26882     26884     26882     26885     26885     26886     26885     26887
     26885     26888     26888     26889     26888     26890     26888     26891
     26891     26892     26891     26893     26891     26894     26894     26895
     26894     26896     26894     26897     26897     26898     26897     26899
     26897     26900     26900     26901     26900     26902     26900     26903
     26903     26904     26903     26905     26903     26906     26906     26907
     26906     26908     26906     26909     26909     26910     26909     26911
     26909     26912     26912     26913     26912     26914     26912     26915
     26916     26920     26916     26924     26916     26928     26920     26921
     26920     26922     26920     26923     26924     26925     26924     26926
     26924     26927     26928     26929     26928     26930     26928     26931
     26916     26917     26917     26918     26917     26919     26917     26932
     26932     26933     26932     26934     26932     26938     26939     26940
     26938     26935     26935     26939     26935     26936     26935     26937
     26940     26941     26940     26942     26940     26943     26943     26944
     26943     26951     26943     26945     26951     26952     26951     26953
     26951     26954     26945     26946     26946     26948     26946     26947
     26948     26949     26948     26950     26948     26960     26960     26961
     26960     26962     26960     26963     26963     26964     26963     26965
     26963     26966     26966     26967     26966     26968     26966     26969
     26969     26970     26969     26971     26969     26972     26972     26973
     26972     26974     26972     26975     26975     26976     26975     26977
     26975     26978     26978     26979     26978     26980     26980     26981
     26980     26982     26982     26983     26982     26984     26982     26985
     26985     26986     26985     26987     26985     26988     26988     26989
     26988     26990     26988     26991     26991     26992     26991     26993
     26991     26994     26994     26995     26994     26996     26994     26997
     26997     26998     26997     26999     26997     27000     27000     27001
     27000     27002     27000     27003     27003     27004     27003     27005
     27003     27006     26954     26955     26955     26957     26955     26956
     26957     26958     26957     26959     26957     27007     27007     27008
     27007     27009     27007     27010     27010     27011     27010     27012
     27010     27013     27013     27014     27013     27015     27013     27016
     27016     27017     27016     27018     27016     27019     27019     27020
     27019     27021     27019     27022     27022     27023     27022     27024
     27022     27025     27025     27026     27025     27027     27025     27028
     27028     27029     27028     27030     27028     27031     27031     27032
     27031     27033     27031     27034     27034     27035     27034     27036
     27034     27037     27037     27038     27037     27039     27037     27040
     27040     27041     27040     27042     27040     27043     27043     27044
     27043     27045     27043     27046     27046     27047     27046     27048
     27046     27049     27050     27051     27050     27052     27050     27053
     27050     27054     27058     27056     27056     27054     27056     27057
     27054     27055     27054     27059     27067     27066     27059     27060
     27059     27061     27059     27065     27065     27062     27062     27066
     27062     27063     27062     27064     27067     27068     27067     27069
     27067     27070     27070     27071     27070     27078     27070     27072
     27078     27079     27078     27080     27078     27081     27072     27073
     27073     27075     27073     27074     27075     27076     27075     27077
     27075     27087     27087     27088     27087     27089     27087     27090
     27090     27091     27090     27092     27090     27093     27093     27094
     27093     27095     27093     27096     27096     27097     27096     27098
     27096     27099     27099     27100     27099     27101     27099     27102
     27102     27103     27102     27104     27102     27105     27105     27106
     27105     27107     27107     27108     27107     27109     27109     27110
     27109     27111     27109     27112     27112     27113     27112     27114
     27112     27115     27115     27116     27115     27117     27115     27118
     27118     27119     27118     27120     27118     27121     27121     27122
     27121     27123     27121     27124     27124     27125     27124     27126
     27124     27127     27127     27128     27127     27129     27127     27130
     27130     27131     27130     27132     27130     27133     27081     27082
     27082     27084     27082     27083     27084     27085     27084     27086
     27084     27134     27134     27135     27134     27136     27134     27137
     27137     27138     27137     27139     27137     27140     27140     27141
     27140     27142     27140     27143     27143     27144     27143     27145
     27143     27146     27146     27147     27146     27148     27146     27149
     27149     27150     27149     27151     27149     27152     27152     27153
     27152     27154     27152     27155     27155     27156     27155     27157
     27155     27158     27158     27159     27158     27160     27158     27161
     27161     27162     27161     27163     27161     27164     27164     27165
     27164     27166     27164     27167     27167     27168     27167     27169
     27167     27170     27170     27171     27170     27172     27170     27173
     27173     27174     27173     27175     27173     27176     27177     27181
     27177     27185     27177     27189     27181     27182     27181     27183
     27181     27184     27185     27186     27185     27187     27185     27188
     27189     27190     27189     27191     27189     27192     27177     27178
     27178     27179     27178     27180     27178     27193     27193     27194
     27193     27195     27193     27199     27200     27201     27199     27196
     27196     27200     27196     27197     27196     27198     27201     27202
     27201     27203     27201     27204     27204     27205     27204     27212
     27204     27206     27212     27213     27212     27214     27212     27215
     27206     27207     27207     27209     27207     27208     27209     27210
     27209     27211     27209     27221     27221     27222     27221     27223
     27221     27224     27224     27225     27224     27226     27224     27227
     27227     27228     27227     27229     27227     27230     27230     27231
     27230     27232     27230     27233     27233     27234     27233     27235
     27233     27236     27236     27237     27236     27238     27236     27239
     27239     27240     27239     27241     27241     27242     27241     27243
     27243     27244     27243     27245     27243     27246     27246     27247
     27246     27248     27246     27249     27249     27250     27249     27251
     27249     27252     27252     27253     27252     27254     27252     27255
     27255     27256     27255     27257     27255     27258     27258     27259
     27258     27260     27258     27261     27261     27262     27261     27263
     27261     27264     27264     27265     27264     27266     27264     27267
     27215     27216     27216     27218     27216     27217     27218     27219
     27218     27220     27218     27268     27268     27269     27268     27270
     27268     27271     27271     27272     27271     27273     27271     27274
     27274     27275     27274     27276     27274     27277     27277     27278
     27277     27279     27277     27280     27280     27281     27280     27282
     27280     27283     27283     27284     27283     27285     27283     27286
     27286     27287     27286     27288     27286     27289     27289     27290
     27289     27291     27289     27292     27292     27293     27292     27294
     27292     27295     27295     27296     27295     27297     27295     27298
     27298     27299     27298     27300     27298     27301     27301     27302
     27301     27303     27301     27304     27304     27305     27304     27306
     27304     27307     27307     27308     27307     27309     27307     27310
     27311     27315     27311     27319     27311     27323     27315     27316
     27315     27317     27315     27318     27319     27320     27319     27321
     27319     27322     27323     27324     27323     27325     27323     27326
     27311     27312     27312     27313     27312     27314     27312     27327
     27327     27328     27327     27329     27327     27333     27334     27335
     27333     27330     27330     27334     27330     27331     27330     27332
     27335     27336     27335     27337     27335     27338     27338     27339
     27338     27346     27338     27340     27346     27347     27346     27348
     27346     27349     27340     27341     27341     27343     27341     27342
     27343     27344     27343     27345     27343     27355     27355     27356
     27355     27357     27355     27358     27358     27359     27358     27360
     27358     27361     27361     27362     27361     27363     27361     27364
     27364     27365     27364     27366     27364     27367     27367     27368
     27367     27369     27367     27370     27370     27371     27370     27372
     27370     27373     27373     27374     27373     27375     27375     27376
     27375     27377     27377     27378     27377     27379     27377     27380
     27380     27381     27380     27382     27380     27383     27383     27384
     27383     27385     27383     27386     27386     27387     27386     27388
     27386     27389     27389     27390     27389     27391     27389     27392
     27392     27393     27392     27394     27392     27395     27395     27396
     27395     27397     27395     27398     27398     27399     27398     27400
     27398     27401     27349     27350     27350     27352     27350     27351
     27352     27353     27352     27354     27352     27402     27402     27403
     27402     27404     27402     27405     27405     27406     27405     27407
     27405     27408     27408     27409     27408     27410     27408     27411
     27411     27412     27411     27413     27411     27414     27414     27415
     27414     27416     27414     27417     27417     27418     27417     27419
     27417     27420     27420     27421     27420     27422     27420     27423
     27423     27424     27423     27425     27423     27426     27426     27427
     27426     27428     27426     27429     27429     27430     27429     27431
     27429     27432     27432     27433     27432     27434     27432     27435
     27435     27436     27435     27437     27435     27438     27438     27439
     27438     27440     27438     27441     27441     27442     27441     27443
     27441     27444     27445     27449     27445     27453     27445     27457
     27449     27450     27449     27451     27449     27452     27453     27454
     27453     27455     27453     27456     27457     27458     27457     27459
     27457     27460     27445     27446     27446     27447     27446     27448
     27446     27461     27461     27462     27461     27463     27461     27467
     27468     27469     27467     27464     27464     27468     27464     27465
     27464     27466     27469     27470     27469     27471     27469     27472
     27472     27473     27472     27480     27472     27474     27480     27481
     27480     27482     27480     27483     27474     27475     27475     27477
     27475     27476     27477     27478     27477     27479     27477     27489
     27489     27490     27489     27491     27489     27492     27492     27493
     27492     27494     27492     27495     27495     27496     27495     27497
     27495     27498     27498     27499     27498     27500     27498     27501
     27501     27502     27501     27503     27501     27504     27504     27505
     27504     27506     27504     27507     27507     27508     27507     27509
     27509     27510     27509     27511     27511     27512     27511     27513
     27511     27514     27514     27515     27514     27516     27514     27517
     27517     27518     27517     27519     27517     27520     27520     27521
     27520     27522     27520     27523     27523     27524     27523     27525
     27523     27526     27526     27527     27526     27528     27526     27529
     27529     27530     27529     27531     27529     27532     27532     27533
     27532     27534     27532     27535     27483     27484     27484     27486
     27484     27485     27486     27487     27486     27488     27486     27536
     27536     27537     27536     27538     27536     27539     27539     27540
     27539     27541     27539     27542     27542     27543     27542     27544
     27542     27545     27545     27546     27545     27547     27545     27548
     27548     27549     27548     27550     27548     27551     27551     27552
     27551     27553     27551     27554     27554     27555     27554     27556
     27554     27557     27557     27558     27557     27559     27557     27560
     27560     27561     27560     27562     27560     27563     27563     27564
     27563     27565     27563     27566     27566     27567     27566     27568
     27566     27569     27569     27570     27569     27571     27569     27572
     27572     27573     27572     27574     27572     27575     27575     27576
     27575     27577     27575     27578     27579     27583     27579     27587
     27579     27591     27583     27584     27583     27585     27583     27586
     27587     27588     27587     27589     27587     27590     27591     27592
     27591     27593     27591     27594     27579     27580     27580     27581
     27580     27582     27580     27595     27595     27596     27595     27597
     27595     27601     27602     27603     27601     27598     27598     27602
     27598     27599     27598     27600     27603     27604     27603     27605
     27603     27606     27606     27607     27606     27614     27606     27608
     27614     27615     27614     27616     27614     27617     27608     27609
     27609     27611     27609     27610     27611     27612     27611     27613
     27611     27623     27623     27624     27623     27625     27623     27626
     27626     27627     27626     27628     27626     27629     27629     27630
     27629     27631     27629     27632     27632     27633     27632     27634
     27632     27635     27635     27636     27635     27637     27635     27638
     27638     27639     27638     27640     27638     27641     27641     27642
     27641     27643     27643     27644     27643     27645     27645     27646
     27645     27647     27645     27648     27648     27649     27648     27650
     27648     27651     27651     27652     27651     27653     27651     27654
     27654     27655     27654     27656     27654     27657     27657     27658
     27657     27659     27657     27660     27660     27661     27660     27662
     27660     27663     27663     27664     27663     27665     27663     27666
     27666     27667     27666     27668     27666     27669     27617     27618
     27618     27620     27618     27619     27620     27621     27620     27622
     27620     27670     27670     27671     27670     27672     27670     27673
     27673     27674     27673     27675     27673     27676     27676     27677
     27676     27678     27676     27679     27679     27680     27679     27681
     27679     27682     27682     27683     27682     27684     27682     27685
     27685     27686     27685     27687     27685     27688     27688     27689
     27688     27690     27688     27691     27691     27692     27691     27693
     27691     27694     27694     27695     27694     27696     27694     27697
     27697     27698     27697     27699     27697     27700     27700     27701
     27700     27702     27700     27703     27703     27704     27703     27705
     27703     27706     27706     27707     27706     27708     27706     27709
     27709     27710     27709     27711     27709     27712     27713     27714
     27713     27715     27713     27716     27713     27717     27721     27719
     27719     27717     27719     27720     27717     27718     27717     27722
     27730     27729     27722     27723     27722     27724     27722     27728
     27728     27725     27725     27729     27725     27726     27725     27727
     27730     27731     27730     27732     27730     27733     27733     27734
     27733     27741     27733     27735     27741     27742     27741     27743
     27741     27744     27735     27736     27736     27738     27736     27737
     27738     27739     27738     27740     27738     27750     27750     27751
     27750     27752     27750     27753     27753     27754     27753     27755
     27753     27756     27756     27757     27756     27758     27756     27759
     27759     27760     27759     27761     27759     27762     27762     27763
     27762     27764     27762     27765     27765     27766     27765     27767
     27765     27768     27768     27769     27768     27770     27770     27771
     27770     27772     27772     27773     27772     27774     27772     27775
     27775     27776     27775     27777     27775     27778     27778     27779
     27778     27780     27778     27781     27781     27782     27781     27783
     27781     27784     27784     27785     27784     27786     27784     27787
     27787     27788     27787     27789     27787     27790     27790     27791
     27790     27792     27790     27793     27793     27794     27793     27795
     27793     27796     27744     27745     27745     27747     27745     27746
     27747     27748     27747     27749     27747     27797     27797     27798
     27797     27799     27797     27800     27800     27801     27800     27802
     27800     27803     27803     27804     27803     27805     27803     27806
     27806     27807     27806     27808     27806     27809     27809     27810
     27809     27811     27809     27812     27812     27813     27812     27814
     27812     27815     27815     27816     27815     27817     27815     27818
     27818     27819     27818     27820     27818     27821     27821     27822
     27821     27823     27821     27824     27824     27825     27824     27826
     27824     27827     27827     27828     27827     27829     27827     27830
     27830     27831     27830     27832     27830     27833     27833     27834
     27833     27835     27833     27836     27836     27837     27836     27838
     27836     27839     27840     27844     27840     27848     27840     27852
     27844     27845     27844     27846     27844     27847     27848     27849
     27848     27850     27848     27851     27852     27853     27852     27854
     27852     27855     27840     27841     27841     27842     27841     27843
     27841     27856     27856     27857     27856     27858     27856     27862
     27863     27864     27862     27859     27859     27863     27859     27860
     27859     27861     27864     27865     27864     27866     27864     27867
     27867     27868     27867     27875     27867     27869     27875     27876
     27875     27877     27875     27878     27869     27870     27870     27872
     27870     27871     27872     27873     27872     27874     27872     27884
     27884     27885     27884     27886     27884     27887     27887     27888
     27887     27889     27887     27890     27890     27891     27890     27892
     27890     27893     27893     27894     27893     27895     27893     27896
     27896     27897     27896     27898     27896     27899     27899     27900
     27899     27901     27899     27902     27902     27903     27902     27904
     27904     27905     27904     27906     27906     27907     27906     27908
     27906     27909     27909     27910     27909     27911     27909     27912
     27912     27913     27912     27914     27912     27915     27915     27916
     27915     27917     27915     27918     27918     27919     27918     27920
     27918     27921     27921     27922     27921     27923     27921     27924
     27924     27925     27924     27926     27924     27927     27927     27928
     27927     27929     27927     27930     27878     27879     27879     27881
     27879     27880     27881     27882     27881     27883     27881     27931
     27931     27932     27931     27933     27931     27934     27934     27935
     27934     27936     27934     27937     27937     27938     27937     27939
     27937     27940     27940     27941     27940     27942     27940     27943
     27943     27944     27943     27945     27943     27946     27946     27947
     27946     27948     27946     27949     27949     27950     27949     27951
     27949     27952     27952     27953     27952     27954     27952     27955
     27955     27956     27955     27957     27955     27958     27958     27959
     27958     27960     27958     27961     27961     27962     27961     27963
     27961     27964     27964     27965     27964     27966     27964     27967
     27967     27968     27967     27969     27967     27970     27970     27971
     27970     27972     27970     27973     27974     27975     27974     27976
     27974     27977     27974     27978     27982     27980     27980     27978
     27980     27981     27978     27979     27978     27983     27991     27990
     27983     27984     27983     27985     27983     27989     27989     27986
     27986     27990     27986     27987     27986     27988     27991     27992
     27991     27993     27991     27994     27994     27995     27994     28002
     27994     27996     28002     28003     28002     28004     28002     28005
     27996     27997     27997     27999     27997     27998     27999     28000
     27999     28001     27999     28011     28011     28012     28011     28013
     28011     28014     28014     28015     28014     28016     28014     28017
     28017     28018     28017     28019     28017     28020     28020     28021
     28020     28022     28020     28023     28023     28024     28023     28025
     28023     28026     28026     28027     28026     28028     28026     28029
     28029     28030     28029     28031     28031     28032     28031     28033
     28033     28034     28033     28035     28033     28036     28036     28037
     28036     28038     28036     28039     28039     28040     28039     28041
     28039     28042     28042     28043     28042     28044     28042     28045
     28045     28046     28045     28047     28045     28048     28048     28049
     28048     28050     28048     28051     28051     28052     28051     28053
     28051     28054     28054     28055     28054     28056     28054     28057
     28005     28006     28006     28008     28006     28007     28008     28009
     28008     28010     28008     28058     28058     28059     28058     28060
     28058     28061     28061     28062     28061     28063     28061     28064
     28064     28065     28064     28066     28064     28067     28067     28068
     28067     28069     28067     28070     28070     28071     28070     28072
     28070     28073     28073     28074     28073     28075     28073     28076
     28076     28077     28076     28078     28076     28079     28079     28080
     28079     28081     28079     28082     28082     28083     28082     28084
     28082     28085     28085     28086     28085     28087     28085     28088
     28088     28089     28088     28090     28088     28091     28091     28092
     28091     28093     28091     28094     28094     28095     28094     28096
     28094     28097     28097     28098     28097     28099     28097     28100
     28101     28105     28101     28109     28101     28113     28105     28106
     28105     28107     28105     28108     28109     28110     28109     28111
     28109     28112     28113     28114     28113     28115     28113     28116
     28101     28102     28102     28103     28102     28104     28102     28117
     28117     28118     28117     28119     28117     28123     28124     28125
     28123     28120     28120     28124     28120     28121     28120     28122
     28125     28126     28125     28127     28125     28128     28128     28129
     28128     28136     28128     28130     28136     28137     28136     28138
     28136     28139     28130     28131     28131     28133     28131     28132
     28133     28134     28133     28135     28133     28145     28145     28146
     28145     28147     28145     28148     28148     28149     28148     28150
     28148     28151     28151     28152     28151     28153     28151     28154
     28154     28155     28154     28156     28154     28157     28157     28158
     28157     28159     28157     28160     28160     28161     28160     28162
     28160     28163     28163     28164     28163     28165     28165     28166
     28165     28167     28167     28168     28167     28169     28167     28170
     28170     28171     28170     28172     28170     28173     28173     28174
     28173     28175     28173     28176     28176     28177     28176     28178
     28176     28179     28179     28180     28179     28181     28179     28182
     28182     28183     28182     28184     28182     28185     28185     28186
     28185     28187     28185     28188     28188     28189     28188     28190
     28188     28191     28139     28140     28140     28142     28140     28141
     28142     28143     28142     28144     28142     28192     28192     28193
     28192     28194     28192     28195     28195     28196     28195     28197
     28195     28198     28198     28199     28198     28200     28198     28201
     28201     28202     28201     28203     28201     28204     28204     28205
     28204     28206     28204     28207     28207     28208     28207     28209
     28207     28210     28210     28211     28210     28212     28210     28213
     28213     28214     28213     28215     28213     28216     28216     28217
     28216     28218     28216     28219     28219     28220     28219     28221
     28219     28222     28222     28223     28222     28224     28222     28225
     28225     28226     28225     28227     28225     28228     28228     28229
     28228     28230     28228     28231     28231     28232     28231     28233
     28231     28234     28235     28239     28235     28243     28235     28247
     28239     28240     28239     28241     28239     28242     28243     28244
     28243     28245     28243     28246     28247     28248     28247     28249
     28247     28250     28235     28236     28236     28237     28236     28238
     28236     28251     28251     28252     28251     28253     28251     28257
     28258     28259     28257     28254     28254     28258     28254     28255
     28254     28256     28259     28260     28259     28261     28259     28262
     28262     28263     28262     28270     28262     28264     28270     28271
     28270     28272     28270     28273     28264     28265     28265     28267
     28265     28266     28267     28268     28267     28269     28267     28279
     28279     28280     28279     28281     28279     28282     28282     28283
     28282     28284     28282     28285     28285     28286     28285     28287
     28285     28288     28288     28289     28288     28290     28288     28291
     28291     28292     28291     28293     28291     28294     28294     28295
     28294     28296     28294     28297     28297     28298     28297     28299
     28299     28300     28299     28301     28301     28302     28301     28303
     28301     28304     28304     28305     28304     28306     28304     28307
     28307     28308     28307     28309     28307     28310     28310     28311
     28310     28312     28310     28313     28313     28314     28313     28315
     28313     28316     28316     28317     28316     28318     28316     28319
     28319     28320     28319     28321     28319     28322     28322     28323
     28322     28324     28322     28325     28273     28274     28274     28276
     28274     28275     28276     28277     28276     28278     28276     28326
     28326     28327     28326     28328     28326     28329     28329     28330
     28329     28331     28329     28332     28332     28333     28332     28334
     28332     28335     28335     28336     28335     28337     28335     28338
     28338     28339     28338     28340     28338     28341     28341     28342
     28341     28343     28341     28344     28344     28345     28344     28346
     28344     28347     28347     28348     28347     28349     28347     28350
     28350     28351     28350     28352     28350     28353     28353     28354
     28353     28355     28353     28356     28356     28357     28356     28358
     28356     28359     28359     28360     28359     28361     28359     28362
     28362     28363     28362     28364     28362     28365     28365     28366
     28365     28367     28365     28368     28369     28373     28369     28377
     28369     28381     28373     28374     28373     28375     28373     28376
     28377     28378     28377     28379     28377     28380     28381     28382
     28381     28383     28381     28384     28369     28370     28370     28371
     28370     28372     28370     28385     28385     28386     28385     28387
     28385     28391     28392     28393     28391     28388     28388     28392
     28388     28389     28388     28390     28393     28394     28393     28395
     28393     28396     28396     28397     28396     28404     28396     28398
     28404     28405     28404     28406     28404     28407     28398     28399
     28399     28401     28399     28400     28401     28402     28401     28403
     28401     28413     28413     28414     28413     28415     28413     28416
     28416     28417     28416     28418     28416     28419     28419     28420
     28419     28421     28419     28422     28422     28423     28422     28424
     28422     28425     28425     28426     28425     28427     28425     28428
     28428     28429     28428     28430     28428     28431     28431     28432
     28431     28433     28433     28434     28433     28435     28435     28436
     28435     28437     28435     28438     28438     28439     28438     28440
     28438     28441     28441     28442     28441     28443     28441     28444
     28444     28445     28444     28446     28444     28447     28447     28448
     28447     28449     28447     28450     28450     28451     28450     28452
     28450     28453     28453     28454     28453     28455     28453     28456
     28456     28457     28456     28458     28456     28459     28407     28408
     28408     28410     28408     28409     28410     28411     28410     28412
     28410     28460     28460     28461     28460     28462     28460     28463
     28463     28464     28463     28465     28463     28466     28466     28467
     28466     28468     28466     28469     28469     28470     28469     28471
     28469     28472     28472     28473     28472     28474     28472     28475
     28475     28476     28475     28477     28475     28478     28478     28479
     28478     28480     28478     28481     28481     28482     28481     28483
     28481     28484     28484     28485     28484     28486     28484     28487
     28487     28488     28487     28489     28487     28490     28490     28491
     28490     28492     28490     28493     28493     28494     28493     28495
     28493     28496     28496     28497     28496     28498     28496     28499
     28499     28500     28499     28501     28499     28502     28503     28507
     28503     28511     28503     28515     28507     28508     28507     28509
     28507     28510     28511     28512     28511     28513     28511     28514
     28515     28516     28515     28517     28515     28518     28503     28504
     28504     28505     28504     28506     28504     28519     28519     28520
     28519     28521     28519     28525     28526     28527     28525     28522
     28522     28526     28522     28523     28522     28524     28527     28528
     28527     28529     28527     28530     28530     28531     28530     28538
     28530     28532     28538     28539     28538     28540     28538     28541
     28532     28533     28533     28535     28533     28534     28535     28536
     28535     28537     28535     28547     28547     28548     28547     28549
     28547     28550     28550     28551     28550     28552     28550     28553
     28553     28554     28553     28555     28553     28556     28556     28557
     28556     28558     28556     28559     28559     28560     28559     28561
     28559     28562     28562     28563     28562     28564     28562     28565
     28565     28566     28565     28567     28567     28568     28567     28569
     28569     28570     28569     28571     28569     28572     28572     28573
     28572     28574     28572     28575     28575     28576     28575     28577
     28575     28578     28578     28579     28578     28580     28578     28581
     28581     28582     28581     28583     28581     28584     28584     28585
     28584     28586     28584     28587     28587     28588     28587     28589
     28587     28590     28590     28591     28590     28592     28590     28593
     28541     28542     28542     28544     28542     28543     28544     28545
     28544     28546     28544     28594     28594     28595     28594     28596
     28594     28597     28597     28598     28597     28599     28597     28600
     28600     28601     28600     28602     28600     28603     28603     28604
     28603     28605     28603     28606     28606     28607     28606     28608
     28606     28609     28609     28610     28609     28611     28609     28612
     28612     28613     28612     28614     28612     28615     28615     28616
     28615     28617     28615     28618     28618     28619     28618     28620
     28618     28621     28621     28622     28621     28623     28621     28624
     28624     28625     28624     28626     28624     28627     28627     28628
     28627     28629     28627     28630     28630     28631     28630     28632
     28630     28633     28633     28634     28633     28635     28633     28636
     28637     28638     28637     28639     28638     28639     28640     28641
     28640     28642     28641     28642     28643     28644     28643     28645
     28644     28645     28646     28647     28646     28648     28647     28648
     28649     28650     28649     28651     28650     28651     28652     28653
     28652     28654     28653     28654     28655     28656     28655     28657
     28656     28657     28658     28659     28658     28660     28659     28660
     28661     28662     28661     28663     28662     28663     28664     28665
     28664     28666     28665     28666     28667     28668     28667     28669
     28668     28669     28670     28671     28670     28672     28671     28672
     28673     28674     28673     28675     28674     28675     28676     28677
     28676     28678     28677     28678     28679     28680     28679     28681
     28680     28681     28682     28683     28682     28684     28683     28684
     28685     28686     28685     28687     28686     28687     28688     28689
     28688     28690     28689     28690     28691     28692     28691     28693
     28692     28693     28694     28695     28694     28696     28695     28696
     28697     28698     28697     28699     28698     28699     28700     28701
     28700     28702     28701     28702     28703     28704     28703     28705
     28704     28705     28706     28707     28706     28708     28707     28708
     28709     28710     28709     28711     28710     28711     28712     28713
     28712     28714     28713     28714     28715     28716     28715     28717
     28716     28717     28718     28719     28718     28720     28719     28720
     28721     28722     28721     28723     28722     28723     28724     28725
     28724     28726     28725     28726     28727     28728     28727     28729
     28728     28729     28730     28731     28730     28732     28731     28732
     28733     28734     28733     28735     28734     28735     28736     28737
     28736     28738     28737     28738     28739     28740     28739     28741
     28740     28741     28742     28743     28742     28744     28743     28744
     28745     28746     28745     28747     28746     28747     28748     28749
     28748     28750     28749     28750     28751     28752     28751     28753
     28752     28753     28754     28755     28754     28756     28755     28756
     28757     28758     28757     28759     28758     28759     28760     28761
     28760     28762     28761     28762     28763     28764     28763     28765
     28764     28765     28766     28767     28766     28768     28767     28768
     28769     28770     28769     28771     28770     28771     28772     28773
     28772     28774     28773     28774     28775     28776     28775     28777
     28776     28777     28778     28779     28778     28780     28779     28780
     28781     28782     28781     28783     28782     28783     28784     28785
     28784     28786     28785     28786     28787     28788     28787     28789
     28788     28789     28790     28791     28790     28792     28791     28792
     28793     28794     28793     28795     28794     28795     28796     28797
     28796     28798     28797     28798     28799     28800     28799     28801
     28800     28801     28802     28803     28802     28804     28803     28804
     28805     28806     28805     28807     28806     28807     28808     28809
     28808     28810     28809     28810     28811     28812     28811     28813
     28812     28813     28814     28815     28814     28816     28815     28816
     28817     28818     28817     28819     28818     28819     28820     28821
     28820     28822     28821     28822     28823     28824     28823     28825
     28824     28825     28826     28827     28826     28828     28827     28828
     28829     28830     28829     28831     28830     28831     28832     28833
     28832     28834     28833     28834     28835     28836     28835     28837
     28836     28837     28838     28839     28838     28840     28839     28840
     28841     28842     28841     28843     28842     28843     28844     28845
     28844     28846     28845     28846     28847     28848     28847     28849
     28848     28849     28850     28851     28850     28852     28851     28852
     28853     28854     28853     28855     28854     28855     28856     28857
     28856     28858     28857     28858     28859     28860     28859     28861
     28860     28861     28862     28863     28862     28864     28863     28864
     28865     28866     28865     28867     28866     28867     28868     28869
     28868     28870     28869     28870     28871     28872     28871     28873
     28872     28873     28874     28875     28874     28876     28875     28876
     28877     28878     28877     28879     28878     28879     28880     28881
     28880     28882     28881     28882     28883     28884     28883     28885
     28884     28885     28886     28887     28886     28888     28887     28888
     28889     28890     28889     28891     28890     28891     28892     28893
     28892     28894     28893     28894     28895     28896     28895     28897
     28896     28897     28898     28899     28898     28900     28899     28900
     28901     28902     28901     28903     28902     28903     28904     28905
     28904     28906     28905     28906     28907     28908     28907     28909
     28908     28909     28910     28911     28910     28912     28911     28912
     28913     28914     28913     28915     28914     28915     28916     28917
     28916     28918     28917     28918     28919     28920     28919     28921
     28920     28921     28922     28923     28922     28924     28923     28924
     28925     28926     28925     28927     28926     28927     28928     28929
     28928     28930     28929     28930     28931     28932     28931     28933
     28932     28933     28934     28935     28934     28936     28935     28936
     28937     28938     28937     28939     28938     28939     28940     28941
     28940     28942     28941     28942     28943     28944     28943     28945
     28944     28945     28946     28947     28946     28948     28947     28948
     28949     28950     28949     28951     28950     28951     28952     28953
     28952     28954     28953     28954     28955     28956     28955     28957
     28956     28957     28958     28959     28958     28960     28959     28960
     28961     28962     28961     28963     28962     28963     28964     28965
     28964     28966     28965     28966     28967     28968     28967     28969
     28968     28969     28970     28971     28970     28972     28971     28972
     28973     28974     28973     28975     28974     28975     28976     28977
     28976     28978     28977     28978     28979     28980     28979     28981
     28980     28981     28982     28983     28982     28984     28983     28984
     28985     28986     28985     28987     28986     28987     28988     28989
     28988     28990     28989     28990     28991     28992     28991     28993
     28992     28993     28994     28995     28994     28996     28995     28996
     28997     28998     28997     28999     28998     28999     29000     29001
     29000     29002     29001     29002     29003     29004     29003     29005
     29004     29005     29006     29007     29006     29008     29007     29008
     29009     29010     29009     29011     29010     29011     29012     29013
     29012     29014     29013     29014     29015     29016     29015     29017
     29016     29017     29018     29019     29018     29020     29019     29020
     29021     29022     29021     29023     29022     29023     29024     29025
     29024     29026     29025     29026     29027     29028     29027     29029
     29028     29029     29030     29031     29030     29032     29031     29032
     29033     29034     29033     29035     29034     29035     29036     29037
     29036     29038     29037     29038     29039     29040     29039     29041
     29040     29041     29042     29043     29042     29044     29043     29044
     29045     29046     29045     29047     29046     29047     29048     29049
     29048     29050     29049     29050     29051     29052     29051     29053
     29052     29053     29054     29055     29054     29056     29055     29056
     29057     29058     29057     29059     29058     29059     29060     29061
     29060     29062     29061     29062     29063     29064     29063     29065
     29064     29065     29066     29067     29066     29068     29067     29068
     29069     29070     29069     29071     29070     29071     29072     29073
     29072     29074     29073     29074     29075     29076     29075     29077
     29076     29077     29078     29079     29078     29080     29079     29080
     29081     29082     29081     29083     29082     29083     29084     29085
     29084     29086     29085     29086     29087     29088     29087     29089
     29088     29089     29090     29091     29090     29092     29091     29092
     29093     29094     29093     29095     29094     29095     29096     29097
     29096     29098     29097     29098     29099     29100     29099     29101
     29100     29101     29102     29103     29102     29104     29103     29104
     29105     29106     29105     29107     29106     29107     29108     29109
     29108     29110     29109     29110     29111     29112     29111     29113
     29112     29113     29114     29115     29114     29116     29115     29116
     29117     29118     29117     29119     29118     29119     29120     29121
     29120     29122     29121     29122     29123     29124     29123     29125
     29124     29125     29126     29127     29126     29128     29127     29128
     29129     29130     29129     29131     29130     29131     29132     29133
     29132     29134     29133     29134     29135     29136     29135     29137
     29136     29137     29138     29139     29138     29140     29139     29140
     29141     29142     29141     29143     29142     29143     29144     29145
     29144     29146     29145     29146     29147     29148     29147     29149
     29148     29149     29150     29151     29150     29152     29151     29152
     29153     29154     29153     29155     29154     29155     29156     29157
     29156     29158     29157     29158     29159     29160     29159     29161
     29160     29161     29162     29163     29162     29164     29163     29164
     29165     29166     29165     29167     29166     29167     29168     29169
     29168     29170     29169     29170     29171     29172     29171     29173
     29172     29173     29174     29175     29174     29176     29175     29176
     29177     29178     29177     29179     29178     29179     29180     29181
     29180     29182     29181     29182     29183     29184     29183     29185
     29184     29185     29186     29187     29186     29188     29187     29188
     29189     29190     29189     29191     29190     29191     29192     29193
     29192     29194     29193     29194     29195     29196     29195     29197
     29196     29197     29198     29199     29198     29200     29199     29200
     29201     29202     29201     29203     29202     29203     29204     29205
     29204     29206     29205     29206     29207     29208     29207     29209
     29208     29209     29210     29211     29210     29212     29211     29212
     29213     29214     29213     29215     29214     29215     29216     29217
     29216     29218     29217     29218     29219     29220     29219     29221
     29220     29221     29222     29223     29222     29224     29223     29224
     29225     29226     29225     29227     29226     29227     29228     29229
     29228     29230     29229     29230     29231     29232     29231     29233
     29232     29233     29234     29235     29234     29236     29235     29236
     29237     29238     29237     29239     29238     29239     29240     29241
     29240     29242     29241     29242     29243     29244     29243     29245
     29244     29245     29246     29247     29246     29248     29247     29248
     29249     29250     29249     29251     29250     29251     29252     29253
     29252     29254     29253     29254     29255     29256     29255     29257
     29256     29257     29258     29259     29258     29260     29259     29260
     29261     29262     29261     29263     29262     29263     29264     29265
     29264     29266     29265     29266     29267     29268     29267     29269
     29268     29269     29270     29271     29270     29272     29271     29272
     29273     29274     29273     29275     29274     29275     29276     29277
     29276     29278     29277     29278     29279     29280     29279     29281
     29280     29281     29282     29283     29282     29284     29283     29284
     29285     29286     29285     29287     29286     29287     29288     29289
     29288     29290     29289     29290     29291     29292     29291     29293
     29292     29293     29294     29295     29294     29296     29295     29296
     29297     29298     29297     29299     29298     29299     29300     29301
     29300     29302     29301     29302     29303     29304     29303     29305
     29304     29305     29306     29307     29306     29308     29307     29308
     29309     29310     29309     29311     29310     29311     29312     29313
     29312     29314     29313     29314     29315     29316     29315     29317
     29316     29317     29318     29319     29318     29320     29319     29320
     29321     29322     29321     29323     29322     29323     29324     29325
     29324     29326     29325     29326     29327     29328     29327     29329
     29328     29329     29330     29331     29330     29332     29331     29332
     29333     29334     29333     29335     29334     29335     29336     29337
     29336     29338     29337     29338     29339     29340     29339     29341
     29340     29341     29342     29343     29342     29344     29343     29344
     29345     29346     29345     29347     29346     29347     29348     29349
     29348     29350     29349     29350     29351     29352     29351     29353
     29352     29353     29354     29355     29354     29356     29355     29356
     29357     29358     29357     29359     29358     29359     29360     29361
     29360     29362     29361     29362     29363     29364     29363     29365
     29364     29365     29366     29367     29366     29368     29367     29368
     29369     29370     29369     29371     29370     29371     29372     29373
     29372     29374     29373     29374     29375     29376     29375     29377
     29376     29377     29378     29379     29378     29380     29379     29380
     29381     29382     29381     29383     29382     29383     29384     29385
     29384     29386     29385     29386     29387     29388     29387     29389
     29388     29389     29390     29391     29390     29392     29391     29392
     29393     29394     29393     29395     29394     29395     29396     29397
     29396     29398     29397     29398     29399     29400     29399     29401
     29400     29401     29402     29403     29402     29404     29403     29404
     29405     29406     29405     29407     29406     29407     29408     29409
     29408     29410     29409     29410     29411     29412     29411     29413
     29412     29413     29414     29415     29414     29416     29415     29416
     29417     29418     29417     29419     29418     29419     29420     29421
     29420     29422     29421     29422     29423     29424     29423     29425
     29424     29425     29426     29427     29426     29428     29427     29428
     29429     29430     29429     29431     29430     29431     29432     29433
     29432     29434     29433     29434     29435     29436     29435     29437
     29436     29437     29438     29439     29438     29440     29439     29440
     29441     29442     29441     29443     29442     29443     29444     29445
     29444     29446     29445     29446     29447     29448     29447     29449
     29448     29449     29450     29451     29450     29452     29451     29452
     29453     29454     29453     29455     29454     29455     29456     29457
     29456     29458     29457     29458     29459     29460     29459     29461
     29460     29461     29462     29463     29462     29464     29463     29464
     29465     29466     29465     29467     29466     29467     29468     29469
     29468     29470     29469     29470     29471     29472     29471     29473
     29472     29473     29474     29475     29474     29476     29475     29476
     29477     29478     29477     29479     29478     29479     29480     29481
     29480     29482     29481     29482     29483     29484     29483     29485
     29484     29485     29486     29487     29486     29488     29487     29488
     29489     29490     29489     29491     29490     29491     29492     29493
     29492     29494     29493     29494     29495     29496     29495     29497
     29496     29497     29498     29499     29498     29500     29499     29500
     29501     29502     29501     29503     29502     29503     29504     29505
     29504     29506     29505     29506     29507     29508     29507     29509
     29508     29509     29510     29511     29510     29512     29511     29512
     29513     29514     29513     29515     29514     29515     29516     29517
     29516     29518     29517     29518     29519     29520     29519     29521
     29520     29521     29522     29523     29522     29524     29523     29524
     29525     29526     29525     29527     29526     29527     29528     29529
     29528     29530     29529     29530     29531     29532     29531     29533
     29532     29533     29534     29535     29534     29536     29535     29536
     29537     29538     29537     29539     29538     29539     29540     29541
     29540     29542     29541     29542     29543     29544     29543     29545
     29544     29545     29546     29547     29546     29548     29547     29548
     29549     29550     29549     29551     29550     29551     29552     29553
     29552     29554     29553     29554     29555     29556     29555     29557
     29556     29557     29558     29559     29558     29560     29559     29560
     29561     29562     29561     29563     29562     29563     29564     29565
     29564     29566     29565     29566     29567     29568     29567     29569
     29568     29569     29570     29571     29570     29572     29571     29572
     29573     29574     29573     29575     29574     29575     29576     29577
     29576     29578     29577     29578     29579     29580     29579     29581
     29580     29581     29582     29583     29582     29584     29583     29584
     29585     29586     29585     29587     29586     29587     29588     29589
     29588     29590     29589     29590     29591     29592     29591     29593
     29592     29593     29594     29595     29594     29596     29595     29596
     29597     29598     29597     29599     29598     29599     29600     29601
     29600     29602     29601     29602     29603     29604     29603     29605
     29604     29605     29606     29607     29606     29608     29607     29608
     29609     29610     29609     29611     29610     29611     29612     29613
     29612     29614     29613     29614     29615     29616     29615     29617
     29616     29617     29618     29619     29618     29620     29619     29620
     29621     29622     29621     29623     29622     29623     29624     29625
     29624     29626     29625     29626     29627     29628     29627     29629
     29628     29629     29630     29631     29630     29632     29631     29632
     29633     29634     29633     29635     29634     29635     29636     29637
     29636     29638     29637     29638     29639     29640     29639     29641
     29640     29641     29642     29643     29642     29644     29643     29644
     29645     29646     29645     29647     29646     29647     29648     29649
     29648     29650     29649     29650     29651     29652     29651     29653
     29652     29653     29654     29655     29654     29656     29655     29656
     29657     29658     29657     29659     29658     29659     29660     29661
     29660     29662     29661     29662     29663     29664     29663     29665
     29664     29665     29666     29667     29666     29668     29667     29668
     29669     29670     29669     29671     29670     29671     29672     29673
     29672     29674     29673     29674     29675     29676     29675     29677
     29676     29677     29678     29679     29678     29680     29679     29680
     29681     29682     29681     29683     29682     29683     29684     29685
     29684     29686     29685     29686     29687     29688     29687     29689
     29688     29689     29690     29691     29690     29692     29691     29692
     29693     29694     29693     29695     29694     29695     29696     29697
     29696     29698     29697     29698     29699     29700     29699     29701
     29700     29701     29702     29703     29702     29704     29703     29704
     29705     29706     29705     29707     29706     29707     29708     29709
     29708     29710     29709     29710     29711     29712     29711     29713
     29712     29713     29714     29715     29714     29716     29715     29716
     29717     29718     29717     29719     29718     29719     29720     29721
     29720     29722     29721     29722     29723     29724     29723     29725
     29724     29725     29726     29727     29726     29728     29727     29728
     29729     29730     29729     29731     29730     29731     29732     29733
     29732     29734     29733     29734     29735     29736     29735     29737
     29736     29737     29738     29739     29738     29740     29739     29740
     29741     29742     29741     29743     29742     29743     29744     29745
     29744     29746     29745     29746     29747     29748     29747     29749
     29748     29749     29750     29751     29750     29752     29751     29752
     29753     29754     29753     29755     29754     29755     29756     29757
     29756     29758     29757     29758     29759     29760     29759     29761
     29760     29761     29762     29763     29762     29764     29763     29764
     29765     29766     29765     29767     29766     29767     29768     29769
     29768     29770     29769     29770     29771     29772     29771     29773
     29772     29773     29774     29775     29774     29776     29775     29776
     29777     29778     29777     29779     29778     29779     29780     29781
     29780     29782     29781     29782     29783     29784     29783     29785
     29784     29785     29786     29787     29786     29788     29787     29788
     29789     29790     29789     29791     29790     29791     29792     29793
     29792     29794     29793     29794     29795     29796     29795     29797
     29796     29797     29798     29799     29798     29800     29799     29800
     29801     29802     29801     29803     29802     29803     29804     29805
     29804     29806     29805     29806     29807     29808     29807     29809
     29808     29809     29810     29811     29810     29812     29811     29812
     29813     29814     29813     29815     29814     29815     29816     29817
     29816     29818     29817     29818     29819     29820     29819     29821
     29820     29821     29822     29823     29822     29824     29823     29824
     29825     29826     29825     29827     29826     29827     29828     29829
     29828     29830     29829     29830     29831     29832     29831     29833
     29832     29833     29834     29835     29834     29836     29835     29836
     29837     29838     29837     29839     29838     29839     29840     29841
     29840     29842     29841     29842     29843     29844     29843     29845
     29844     29845     29846     29847     29846     29848     29847     29848
     29849     29850     29849     29851     29850     29851     29852     29853
     29852     29854     29853     29854     29855     29856     29855     29857
     29856     29857     29858     29859     29858     29860     29859     29860
     29861     29862     29861     29863     29862     29863     29864     29865
     29864     29866     29865     29866     29867     29868     29867     29869
     29868     29869     29870     29871     29870     29872     29871     29872
     29873     29874     29873     29875     29874     29875     29876     29877
     29876     29878     29877     29878     29879     29880     29879     29881
     29880     29881     29882     29883     29882     29884     29883     29884
     29885     29886     29885     29887     29886     29887     29888     29889
     29888     29890     29889     29890     29891     29892     29891     29893
     29892     29893     29894     29895     29894     29896     29895     29896
     29897     29898     29897     29899     29898     29899     29900     29901
     29900     29902     29901     29902     29903     29904     29903     29905
     29904     29905     29906     29907     29906     29908     29907     29908
     29909     29910     29909     29911     29910     29911     29912     29913
     29912     29914     29913     29914     29915     29916     29915     29917
     29916     29917     29918     29919     29918     29920     29919     29920
     29921     29922     29921     29923     29922     29923     29924     29925
     29924     29926     29925     29926     29927     29928     29927     29929
     29928     29929     29930     29931     29930     29932     29931     29932
     29933     29934     29933     29935     29934     29935     29936     29937
     29936     29938     29937     29938     29939     29940     29939     29941
     29940     29941     29942     29943     29942     29944     29943     29944
     29945     29946     29945     29947     29946     29947     29948     29949
     29948     29950     29949     29950     29951     29952     29951     29953
     29952     29953     29954     29955     29954     29956     29955     29956
     29957     29958     29957     29959     29958     29959     29960     29961
     29960     29962     29961     29962     29963     29964     29963     29965
     29964     29965     29966     29967     29966     29968     29967     29968
     29969     29970     29969     29971     29970     29971     29972     29973
     29972     29974     29973     29974     29975     29976     29975     29977
     29976     29977     29978     29979     29978     29980     29979     29980
     29981     29982     29981     29983     29982     29983     29984     29985
     29984     29986     29985     29986     29987     29988     29987     29989
     29988     29989     29990     29991     29990     29992     29991     29992
     29993     29994     29993     29995     29994     29995     29996     29997
     29996     29998     29997     29998     29999     30000     29999     30001
     30000     30001     30002     30003     30002     30004     30003     30004
     30005     30006     30005     30007     30006     30007     30008     30009
     30008     30010     30009     30010     30011     30012     30011     30013
     30012     30013     30014     30015     30014     30016     30015     30016
     30017     30018     30017     30019     30018     30019     30020     30021
     30020     30022     30021     30022     30023     30024     30023     30025
     30024     30025     30026     30027     30026     30028     30027     30028
     30029     30030     30029     30031     30030     30031     30032     30033
     30032     30034     30033     30034     30035     30036     30035     30037
     30036     30037     30038     30039     30038     30040     30039     30040
     30041     30042     30041     30043     30042     30043     30044     30045
     30044     30046     30045     30046     30047     30048     30047     30049
     30048     30049     30050     30051     30050     30052     30051     30052
     30053     30054     30053     30055     30054     30055     30056     30057
     30056     30058     30057     30058     30059     30060     30059     30061
     30060     30061     30062     30063     30062     30064     30063     30064
     30065     30066     30065     30067     30066     30067     30068     30069
     30068     30070     30069     30070     30071     30072     30071     30073
     30072     30073     30074     30075     30074     30076     30075     30076
     30077     30078     30077     30079     30078     30079     30080     30081
     30080     30082     30081     30082     30083     30084     30083     30085
     30084     30085     30086     30087     30086     30088     30087     30088
     30089     30090     30089     30091     30090     30091     30092     30093
     30092     30094     30093     30094     30095     30096     30095     30097
     30096     30097     30098     30099     30098     30100     30099     30100
     30101     30102     30101     30103     30102     30103     30104     30105
     30104     30106     30105     30106     30107     30108     30107     30109
     30108     30109     30110     30111     30110     30112     30111     30112
     30113     30114     30113     30115     30114     30115     30116     30117
     30116     30118     30117     30118     30119     30120     30119     30121
     30120     30121     30122     30123     30122     30124     30123     30124
     30125     30126     30125     30127     30126     30127     30128     30129
     30128     30130     30129     30130     30131     30132     30131     30133
     30132     30133     30134     30135     30134     30136     30135     30136
     30137     30138     30137     30139     30138     30139     30140     30141
     30140     30142     30141     30142     30143     30144     30143     30145
     30144     30145     30146     30147     30146     30148     30147     30148
     30149     30150     30149     30151     30150     30151     30152     30153
     30152     30154     30153     30154     30155     30156     30155     30157
     30156     30157     30158     30159     30158     30160     30159     30160
     30161     30162     30161     30163     30162     30163     30164     30165
     30164     30166     30165     30166     30167     30168     30167     30169
     30168     30169     30170     30171     30170     30172     30171     30172
     30173     30174     30173     30175     30174     30175     30176     30177
     30176     30178     30177     30178     30179     30180     30179     30181
     30180     30181     30182     30183     30182     30184     30183     30184
     30185     30186     30185     30187     30186     30187     30188     30189
     30188     30190     30189     30190     30191     30192     30191     30193
     30192     30193     30194     30195     30194     30196     30195     30196
     30197     30198     30197     30199     30198     30199     30200     30201
     30200     30202     30201     30202     30203     30204     30203     30205
     30204     30205     30206     30207     30206     30208     30207     30208
     30209     30210     30209     30211     30210     30211     30212     30213
     30212     30214     30213     30214     30215     30216     30215     30217
     30216     30217     30218     30219     30218     30220     30219     30220
     30221     30222     30221     30223     30222     30223     30224     30225
     30224     30226     30225     30226     30227     30228     30227     30229
     30228     30229     30230     30231     30230     30232     30231     30232
     30233     30234     30233     30235     30234     30235     30236     30237
     30236     30238     30237     30238     30239     30240     30239     30241
     30240     30241     30242     30243     30242     30244     30243     30244
     30245     30246     30245     30247     30246     30247     30248     30249
     30248     30250     30249     30250     30251     30252     30251     30253
     30252     30253     30254     30255     30254     30256     30255     30256
     30257     30258     30257     30259     30258     30259     30260     30261
     30260     30262     30261     30262     30263     30264     30263     30265
     30264     30265     30266     30267     30266     30268     30267     30268
     30269     30270     30269     30271     30270     30271     30272     30273
     30272     30274     30273     30274     30275     30276     30275     30277
     30276     30277     30278     30279     30278     30280     30279     30280
     30281     30282     30281     30283     30282     30283     30284     30285
     30284     30286     30285     30286     30287     30288     30287     30289
     30288     30289     30290     30291     30290     30292     30291     30292
     30293     30294     30293     30295     30294     30295     30296     30297
     30296     30298     30297     30298     30299     30300     30299     30301
     30300     30301     30302     30303     30302     30304     30303     30304
     30305     30306     30305     30307     30306     30307     30308     30309
     30308     30310     30309     30310     30311     30312     30311     30313
     30312     30313     30314     30315     30314     30316     30315     30316
     30317     30318     30317     30319     30318     30319     30320     30321
     30320     30322     30321     30322     30323     30324     30323     30325
     30324     30325     30326     30327     30326     30328     30327     30328
     30329     30330     30329     30331     30330     30331     30332     30333
     30332     30334     30333     30334     30335     30336     30335     30337
     30336     30337     30338     30339     30338     30340     30339     30340
     30341     30342     30341     30343     30342     30343     30344     30345
     30344     30346     30345     30346     30347     30348     30347     30349
     30348     30349     30350     30351     30350     30352     30351     30352
     30353     30354     30353     30355     30354     30355     30356     30357
     30356     30358     30357     30358     30359     30360     30359     30361
     30360     30361     30362     30363     30362     30364     30363     30364
     30365     30366     30365     30367     30366     30367     30368     30369
     30368     30370     30369     30370     30371     30372     30371     30373
     30372     30373     30374     30375     30374     30376     30375     30376
     30377     30378     30377     30379     30378     30379     30380     30381
     30380     30382     30381     30382     30383     30384     30383     30385
     30384     30385     30386     30387     30386     30388     30387     30388
     30389     30390     30389     30391     30390     30391     30392     30393
     30392     30394     30393     30394     30395     30396     30395     30397
     30396     30397     30398     30399     30398     30400     30399     30400
     30401     30402     30401     30403     30402     30403     30404     30405
     30404     30406     30405     30406     30407     30408     30407     30409
     30408     30409     30410     30411     30410     30412     30411     30412
     30413     30414     30413     30415     30414     30415     30416     30417
     30416     30418     30417     30418     30419     30420     30419     30421
     30420     30421     30422     30423     30422     30424     30423     30424
     30425     30426     30425     30427     30426     30427     30428     30429
     30428     30430     30429     30430     30431     30432     30431     30433
     30432     30433     30434     30435     30434     30436     30435     30436
     30437     30438     30437     30439     30438     30439     30440     30441
     30440     30442     30441     30442     30443     30444     30443     30445
     30444     30445     30446     30447     30446     30448     30447     30448
     30449     30450     30449     30451     30450     30451     30452     30453
     30452     30454     30453     30454     30455     30456     30455     30457
     30456     30457     30458     30459     30458     30460     30459     30460
     30461     30462     30461     30463     30462     30463     30464     30465
     30464     30466     30465     30466     30467     30468     30467     30469
     30468     30469     30470     30471     30470     30472     30471     30472
     30473     30474     30473     30475     30474     30475     30476     30477
     30476     30478     30477     30478     30479     30480     30479     30481
     30480     30481     30482     30483     30482     30484     30483     30484
     30485     30486     30485     30487     30486     30487     30488     30489
     30488     30490     30489     30490     30491     30492     30491     30493
     30492     30493     30494     30495     30494     30496     30495     30496
     30497     30498     30497     30499     30498     30499     30500     30501
     30500     30502     30501     30502     30503     30504     30503     30505
     30504     30505     30506     30507     30506     30508     30507     30508
     30509     30510     30509     30511     30510     30511     30512     30513
     30512     30514     30513     30514     30515     30516     30515     30517
     30516     30517     30518     30519     30518     30520     30519     30520
     30521     30522     30521     30523     30522     30523     30524     30525
     30524     30526     30525     30526     30527     30528     30527     30529
     30528     30529     30530     30531     30530     30532     30531     30532
     30533     30534     30533     30535     30534     30535     30536     30537
     30536     30538     30537     30538     30539     30540     30539     30541
     30540     30541     30542     30543     30542     30544     30543     30544
     30545     30546     30545     30547     30546     30547     30548     30549
     30548     30550     30549     30550     30551     30552     30551     30553
     30552     30553     30554     30555     30554     30556     30555     30556
     30557     30558     30557     30559     30558     30559     30560     30561
     30560     30562     30561     30562     30563     30564     30563     30565
     30564     30565     30566     30567     30566     30568     30567     30568
     30569     30570     30569     30571     30570     30571     30572     30573
     30572     30574     30573     30574     30575     30576     30575     30577
     30576     30577     30578     30579     30578     30580     30579     30580
     30581     30582     30581     30583     30582     30583     30584     30585
     30584     30586     30585     30586     30587     30588     30587     30589
     30588     30589     30590     30591     30590     30592     30591     30592
     30593     30594     30593     30595     30594     30595     30596     30597
     30596     30598     30597     30598     30599     30600     30599     30601
     30600     30601     30602     30603     30602     30604     30603     30604
     30605     30606     30605     30607     30606     30607     30608     30609
     30608     30610     30609     30610     30611     30612     30611     30613
     30612     30613     30614     30615     30614     30616     30615     30616
     30617     30618     30617     30619     30618     30619     30620     30621
     30620     30622     30621     30622     30623     30624     30623     30625
     30624     30625     30626     30627     30626     30628     30627     30628
     30629     30630     30629     30631     30630     30631     30632     30633
     30632     30634     30633     30634     30635     30636     30635     30637
     30636     30637     30638     30639     30638     30640     30639     30640
     30641     30642     30641     30643     30642     30643     30644     30645
     30644     30646     30645     30646     30647     30648     30647     30649
     30648     30649     30650     30651     30650     30652     30651     30652
     30653     30654     30653     30655     30654     30655     30656     30657
     30656     30658     30657     30658     30659     30660     30659     30661
     30660     30661     30662     30663     30662     30664     30663     30664
     30665     30666     30665     30667     30666     30667     30668     30669
     30668     30670     30669     30670     30671     30672     30671     30673
     30672     30673     30674     30675     30674     30676     30675     30676
     30677     30678     30677     30679     30678     30679     30680     30681
     30680     30682     30681     30682     30683     30684     30683     30685
     30684     30685     30686     30687     30686     30688     30687     30688
     30689     30690     30689     30691     30690     30691     30692     30693
     30692     30694     30693     30694     30695     30696     30695     30697
     30696     30697     30698     30699     30698     30700     30699     30700
     30701     30702     30701     30703     30702     30703     30704     30705
     30704     30706     30705     30706     30707     30708     30707     30709
     30708     30709     30710     30711     30710     30712     30711     30712
     30713     30714     30713     30715     30714     30715     30716     30717
     30716     30718     30717     30718     30719     30720     30719     30721
     30720     30721     30722     30723     30722     30724     30723     30724
     30725     30726     30725     30727     30726     30727     30728     30729
     30728     30730     30729     30730     30731     30732     30731     30733
     30732     30733     30734     30735     30734     30736     30735     30736
     30737     30738     30737     30739     30738     30739     30740     30741
     30740     30742     30741     30742     30743     30744     30743     30745
     30744     30745     30746     30747     30746     30748     30747     30748
     30749     30750     30749     30751     30750     30751     30752     30753
     30752     30754     30753     30754     30755     30756     30755     30757
     30756     30757     30758     30759     30758     30760     30759     30760
     30761     30762     30761     30763     30762     30763     30764     30765
     30764     30766     30765     30766     30767     30768     30767     30769
     30768     30769     30770     30771     30770     30772     30771     30772
     30773     30774     30773     30775     30774     30775     30776     30777
     30776     30778     30777     30778     30779     30780     30779     30781
     30780     30781     30782     30783     30782     30784     30783     30784
     30785     30786     30785     30787     30786     30787     30788     30789
     30788     30790     30789     30790     30791     30792     30791     30793
     30792     30793     30794     30795     30794     30796     30795     30796
     30797     30798     30797     30799     30798     30799     30800     30801
     30800     30802     30801     30802     30803     30804     30803     30805
     30804     30805     30806     30807     30806     30808     30807     30808
     30809     30810     30809     30811     30810     30811     30812     30813
     30812     30814     30813     30814     30815     30816     30815     30817
     30816     30817     30818     30819     30818     30820     30819     30820
     30821     30822     30821     30823     30822     30823     30824     30825
     30824     30826     30825     30826     30827     30828     30827     30829
     30828     30829     30830     30831     30830     30832     30831     30832
     30833     30834     30833     30835     30834     30835     30836     30837
     30836     30838     30837     30838     30839     30840     30839     30841
     30840     30841     30842     30843     30842     30844     30843     30844
     30845     30846     30845     30847     30846     30847     30848     30849
     30848     30850     30849     30850     30851     30852     30851     30853
     30852     30853     30854     30855     30854     30856     30855     30856
     30857     30858     30857     30859     30858     30859     30860     30861
     30860     30862     30861     30862     30863     30864     30863     30865
     30864     30865     30866     30867     30866     30868     30867     30868
     30869     30870     30869     30871     30870     30871     30872     30873
     30872     30874     30873     30874     30875     30876     30875     30877
     30876     30877     30878     30879     30878     30880     30879     30880
     30881     30882     30881     30883     30882     30883     30884     30885
     30884     30886     30885     30886     30887     30888     30887     30889
     30888     30889     30890     30891     30890     30892     30891     30892
     30893     30894     30893     30895     30894     30895     30896     30897
     30896     30898     30897     30898     30899     30900     30899     30901
     30900     30901     30902     30903     30902     30904     30903     30904
     30905     30906     30905     30907     30906     30907     30908     30909
     30908     30910     30909     30910     30911     30912     30911     30913
     30912     30913     30914     30915     30914     30916     30915     30916
     30917     30918     30917     30919     30918     30919     30920     30921
     30920     30922     30921     30922     30923     30924     30923     30925
     30924     30925     30926     30927     30926     30928     30927     30928
     30929     30930     30929     30931     30930     30931     30932     30933
     30932     30934     30933     30934     30935     30936     30935     30937
     30936     30937     30938     30939     30938     30940     30939     30940
     30941     30942     30941     30943     30942     30943     30944     30945
     30944     30946     30945     30946     30947     30948     30947     30949
     30948     30949     30950     30951     30950     30952     30951     30952
     30953     30954     30953     30955     30954     30955     30956     30957
     30956     30958     30957     30958     30959     30960     30959     30961
     30960     30961     30962     30963     30962     30964     30963     30964
     30965     30966     30965     30967     30966     30967     30968     30969
     30968     30970     30969     30970     30971     30972     30971     30973
     30972     30973     30974     30975     30974     30976     30975     30976
     30977     30978     30977     30979     30978     30979     30980     30981
     30980     30982     30981     30982     30983     30984     30983     30985
     30984     30985     30986     30987     30986     30988     30987     30988
     30989     30990     30989     30991     30990     30991     30992     30993
     30992     30994     30993     30994     30995     30996     30995     30997
     30996     30997     30998     30999     30998     31000     30999     31000
     31001     31002     31001     31003     31002     31003     31004     31005
     31004     31006     31005     31006     31007     31008     31007     31009
     31008     31009     31010     31011     31010     31012     31011     31012
     31013     31014     31013     31015     31014     31015     31016     31017
     31016     31018     31017     31018     31019     31020     31019     31021
     31020     31021     31022     31023     31022     31024     31023     31024
     31025     31026     31025     31027     31026     31027     31028     31029
     31028     31030     31029     31030     31031     31032     31031     31033
     31032     31033     31034     31035     31034     31036     31035     31036
     31037     31038     31037     31039     31038     31039     31040     31041
     31040     31042     31041     31042     31043     31044     31043     31045
     31044     31045     31046     31047     31046     31048     31047     31048
     31049     31050     31049     31051     31050     31051     31052     31053
     31052     31054     31053     31054     31055     31056     31055     31057
     31056     31057     31058     31059     31058     31060     31059     31060
     31061     31062     31061     31063     31062     31063     31064     31065
     31064     31066     31065     31066     31067     31068     31067     31069
     31068     31069     31070     31071     31070     31072     31071     31072
     31073     31074     31073     31075     31074     31075     31076     31077
     31076     31078     31077     31078     31079     31080     31079     31081
     31080     31081     31082     31083     31082     31084     31083     31084
     31085     31086     31085     31087     31086     31087     31088     31089
     31088     31090     31089     31090     31091     31092     31091     31093
     31092     31093     31094     31095     31094     31096     31095     31096
     31097     31098     31097     31099     31098     31099     31100     31101
     31100     31102     31101     31102     31103     31104     31103     31105
     31104     31105     31106     31107     31106     31108     31107     31108
     31109     31110     31109     31111     31110     31111     31112     31113
     31112     31114     31113     31114     31115     31116     31115     31117
     31116     31117     31118     31119     31118     31120     31119     31120
     31121     31122     31121     31123     31122     31123     31124     31125
     31124     31126     31125     31126     31127     31128     31127     31129
     31128     31129     31130     31131     31130     31132     31131     31132
     31133     31134     31133     31135     31134     31135     31136     31137
     31136     31138     31137     31138     31139     31140     31139     31141
     31140     31141     31142     31143     31142     31144     31143     31144
     31145     31146     31145     31147     31146     31147     31148     31149
     31148     31150     31149     31150     31151     31152     31151     31153
     31152     31153     31154     31155     31154     31156     31155     31156
     31157     31158     31157     31159     31158     31159     31160     31161
     31160     31162     31161     31162     31163     31164     31163     31165
     31164     31165     31166     31167     31166     31168     31167     31168
     31169     31170     31169     31171     31170     31171     31172     31173
     31172     31174     31173     31174     31175     31176     31175     31177
     31176     31177     31178     31179     31178     31180     31179     31180
     31181     31182     31181     31183     31182     31183     31184     31185
     31184     31186     31185     31186     31187     31188     31187     31189
     31188     31189     31190     31191     31190     31192     31191     31192
     31193     31194     31193     31195     31194     31195     31196     31197
     31196     31198     31197     31198     31199     31200     31199     31201
     31200     31201     31202     31203     31202     31204     31203     31204
     31205     31206     31205     31207     31206     31207     31208     31209
     31208     31210     31209     31210     31211     31212     31211     31213
     31212     31213     31214     31215     31214     31216     31215     31216
     31217     31218     31217     31219     31218     31219     31220     31221
     31220     31222     31221     31222     31223     31224     31223     31225
     31224     31225     31226     31227     31226     31228     31227     31228
     31229     31230     31229     31231     31230     31231     31232     31233
     31232     31234     31233     31234     31235     31236     31235     31237
     31236     31237     31238     31239     31238     31240     31239     31240
     31241     31242     31241     31243     31242     31243     31244     31245
     31244     31246     31245     31246     31247     31248     31247     31249
     31248     31249     31250     31251     31250     31252     31251     31252
     31253     31254     31253     31255     31254     31255     31256     31257
     31256     31258     31257     31258     31259     31260     31259     31261
     31260     31261     31262     31263     31262     31264     31263     31264
     31265     31266     31265     31267     31266     31267     31268     31269
     31268     31270     31269     31270     31271     31272     31271     31273
     31272     31273     31274     31275     31274     31276     31275     31276
     31277     31278     31277     31279     31278     31279     31280     31281
     31280     31282     31281     31282     31283     31284     31283     31285
     31284     31285     31286     31287     31286     31288     31287     31288
     31289     31290     31289     31291     31290     31291     31292     31293
     31292     31294     31293     31294     31295     31296     31295     31297
     31296     31297     31298     31299     31298     31300     31299     31300
     31301     31302     31301     31303     31302     31303     31304     31305
     31304     31306     31305     31306     31307     31308     31307     31309
     31308     31309     31310     31311     31310     31312     31311     31312
     31313     31314     31313     31315     31314     31315     31316     31317
     31316     31318     31317     31318     31319     31320     31319     31321
     31320     31321     31322     31323     31322     31324     31323     31324
     31325     31326     31325     31327     31326     31327     31328     31329
     31328     31330     31329     31330     31331     31332     31331     31333
     31332     31333     31334     31335     31334     31336     31335     31336
     31337     31338     31337     31339     31338     31339     31340     31341
     31340     31342     31341     31342     31343     31344     31343     31345
     31344     31345     31346     31347     31346     31348     31347     31348
     31349     31350     31349     31351     31350     31351     31352     31353
     31352     31354     31353     31354     31355     31356     31355     31357
     31356     31357     31358     31359     31358     31360     31359     31360
     31361     31362     31361     31363     31362     31363     31364     31365
     31364     31366     31365     31366     31367     31368     31367     31369
     31368     31369     31370     31371     31370     31372     31371     31372
     31373     31374     31373     31375     31374     31375     31376     31377
     31376     31378     31377     31378     31379     31380     31379     31381
     31380     31381     31382     31383     31382     31384     31383     31384
     31385     31386     31385     31387     31386     31387     31388     31389
     31388     31390     31389     31390     31391     31392     31391     31393
     31392     31393     31394     31395     31394     31396     31395     31396
     31397     31398     31397     31399     31398     31399     31400     31401
     31400     31402     31401     31402     31403     31404     31403     31405
     31404     31405     31406     31407     31406     31408     31407     31408
     31409     31410     31409     31411     31410     31411     31412     31413
     31412     31414     31413     31414     31415     31416     31415     31417
     31416     31417     31418     31419     31418     31420     31419     31420
     31421     31422     31421     31423     31422     31423     31424     31425
     31424     31426     31425     31426     31427     31428     31427     31429
     31428     31429     31430     31431     31430     31432     31431     31432
     31433     31434     31433     31435     31434     31435     31436     31437
     31436     31438     31437     31438     31439     31440     31439     31441
     31440     31441     31442     31443     31442     31444     31443     31444
     31445     31446     31445     31447     31446     31447     31448     31449
     31448     31450     31449     31450     31451     31452     31451     31453
     31452     31453     31454     31455     31454     31456     31455     31456
     31457     31458     31457     31459     31458     31459     31460     31461
     31460     31462     31461     31462     31463     31464     31463     31465
     31464     31465     31466     31467     31466     31468     31467     31468
     31469     31470     31469     31471     31470     31471     31472     31473
     31472     31474     31473     31474     31475     31476     31475     31477
     31476     31477     31478     31479     31478     31480     31479     31480
     31481     31482     31481     31483     31482     31483     31484     31485
     31484     31486     31485     31486     31487     31488     31487     31489
     31488     31489     31490     31491     31490     31492     31491     31492
     31493     31494     31493     31495     31494     31495     31496     31497
     31496     31498     31497     31498     31499     31500     31499     31501
     31500     31501     31502     31503     31502     31504     31503     31504
     31505     31506     31505     31507     31506     31507     31508     31509
     31508     31510     31509     31510     31511     31512     31511     31513
     31512     31513     31514     31515     31514     31516     31515     31516
     31517     31518     31517     31519     31518     31519     31520     31521
     31520     31522     31521     31522     31523     31524     31523     31525
     31524     31525     31526     31527     31526     31528     31527     31528
     31529     31530     31529     31531     31530     31531     31532     31533
     31532     31534     31533     31534     31535     31536     31535     31537
     31536     31537     31538     31539     31538     31540     31539     31540
     31541     31542     31541     31543     31542     31543     31544     31545
     31544     31546     31545     31546     31547     31548     31547     31549
     31548     31549     31550     31551     31550     31552     31551     31552
     31553     31554     31553     31555     31554     31555     31556     31557
     31556     31558     31557     31558     31559     31560     31559     31561
     31560     31561     31562     31563     31562     31564     31563     31564
     31565     31566     31565     31567     31566     31567     31568     31569
     31568     31570     31569     31570     31571     31572     31571     31573
     31572     31573     31574     31575     31574     31576     31575     31576
     31577     31578     31577     31579     31578     31579     31580     31581
     31580     31582     31581     31582     31583     31584     31583     31585
     31584     31585     31586     31587     31586     31588     31587     31588
     31589     31590     31589     31591     31590     31591     31592     31593
     31592     31594     31593     31594     31595     31596     31595     31597
     31596     31597     31598     31599     31598     31600     31599     31600
     31601     31602     31601     31603     31602     31603     31604     31605
     31604     31606     31605     31606     31607     31608     31607     31609
     31608     31609     31610     31611     31610     31612     31611     31612
     31613     31614     31613     31615     31614     31615     31616     31617
     31616     31618     31617     31618     31619     31620     31619     31621
     31620     31621     31622     31623     31622     31624     31623     31624
     31625     31626     31625     31627     31626     31627     31628     31629
     31628     31630     31629     31630     31631     31632     31631     31633
     31632     31633     31634     31635     31634     31636     31635     31636
     31637     31638     31637     31639     31638     31639     31640     31641
     31640     31642     31641     31642     31643     31644     31643     31645
     31644     31645     31646     31647     31646     31648     31647     31648
     31649     31650     31649     31651     31650     31651     31652     31653
     31652     31654     31653     31654     31655     31656     31655     31657
     31656     31657     31658     31659     31658     31660     31659     31660
     31661     31662     31661     31663     31662     31663     31664     31665
     31664     31666     31665     31666     31667     31668     31667     31669
     31668     31669     31670     31671     31670     31672     31671     31672
     31673     31674     31673     31675     31674     31675     31676     31677
     31676     31678     31677     31678     31679     31680     31679     31681
     31680     31681     31682     31683     31682     31684     31683     31684
     31685     31686     31685     31687     31686     31687     31688     31689
     31688     31690     31689     31690     31691     31692     31691     31693
     31692     31693     31694     31695     31694     31696     31695     31696
     31697     31698     31697     31699     31698     31699     31700     31701
     31700     31702     31701     31702     31703     31704     31703     31705
     31704     31705     31706     31707     31706     31708     31707     31708
     31709     31710     31709     31711     31710     31711     31712     31713
     31712     31714     31713     31714     31715     31716     31715     31717
     31716     31717     31718     31719     31718     31720     31719     31720
     31721     31722     31721     31723     31722     31723     31724     31725
     31724     31726     31725     31726     31727     31728     31727     31729
     31728     31729     31730     31731     31730     31732     31731     31732
     31733     31734     31733     31735     31734     31735     31736     31737
     31736     31738     31737     31738     31739     31740     31739     31741
     31740     31741     31742     31743     31742     31744     31743     31744
     31745     31746     31745     31747     31746     31747     31748     31749
     31748     31750     31749     31750     31751     31752     31751     31753
     31752     31753     31754     31755     31754     31756     31755     31756
     31757     31758     31757     31759     31758     31759     31760     31761
     31760     31762     31761     31762     31763     31764     31763     31765
     31764     31765     31766     31767     31766     31768     31767     31768
     31769     31770     31769     31771     31770     31771     31772     31773
     31772     31774     31773     31774     31775     31776     31775     31777
     31776     31777     31778     31779     31778     31780     31779     31780
     31781     31782     31781     31783     31782     31783     31784     31785
     31784     31786     31785     31786     31787     31788     31787     31789
     31788     31789     31790     31791     31790     31792     31791     31792
     31793     31794     31793     31795     31794     31795     31796     31797
     31796     31798     31797     31798     31799     31800     31799     31801
     31800     31801     31802     31803     31802     31804     31803     31804
     31805     31806     31805     31807     31806     31807     31808     31809
     31808     31810     31809     31810     31811     31812     31811     31813
     31812     31813     31814     31815     31814     31816     31815     31816
     31817     31818     31817     31819     31818     31819     31820     31821
     31820     31822     31821     31822     31823     31824     31823     31825
     31824     31825     31826     31827     31826     31828     31827     31828
     31829     31830     31829     31831     31830     31831     31832     31833
     31832     31834     31833     31834     31835     31836     31835     31837
     31836     31837     31838     31839     31838     31840     31839     31840
     31841     31842     31841     31843     31842     31843     31844     31845
     31844     31846     31845     31846     31847     31848     31847     31849
     31848     31849     31850     31851     31850     31852     31851     31852
     31853     31854     31853     31855     31854     31855     31856     31857
     31856     31858     31857     31858     31859     31860     31859     31861
     31860     31861     31862     31863     31862     31864     31863     31864
     31865     31866     31865     31867     31866     31867     31868     31869
     31868     31870     31869     31870     31871     31872     31871     31873
     31872     31873     31874     31875     31874     31876     31875     31876
     31877     31878     31877     31879     31878     31879     31880     31881
     31880     31882     31881     31882     31883     31884     31883     31885
     31884     31885     31886     31887     31886     31888     31887     31888
     31889     31890     31889     31891     31890     31891     31892     31893
     31892     31894     31893     31894     31895     31896     31895     31897
     31896     31897     31898     31899     31898     31900     31899     31900
     31901     31902     31901     31903     31902     31903     31904     31905
     31904     31906     31905     31906     31907     31908     31907     31909
     31908     31909     31910     31911     31910     31912     31911     31912
     31913     31914     31913     31915     31914     31915     31916     31917
     31916     31918     31917     31918     31919     31920     31919     31921
     31920     31921     31922     31923     31922     31924     31923     31924
     31925     31926     31925     31927     31926     31927     31928     31929
     31928     31930     31929     31930     31931     31932     31931     31933
     31932     31933     31934     31935     31934     31936     31935     31936
     31937     31938     31937     31939     31938     31939     31940     31941
     31940     31942     31941     31942     31943     31944     31943     31945
     31944     31945     31946     31947     31946     31948     31947     31948
     31949     31950     31949     31951     31950     31951     31952     31953
     31952     31954     31953     31954     31955     31956     31955     31957
     31956     31957     31958     31959     31958     31960     31959     31960
     31961     31962     31961     31963     31962     31963     31964     31965
     31964     31966     31965     31966     31967     31968     31967     31969
     31968     31969     31970     31971     31970     31972     31971     31972
     31973     31974     31973     31975     31974     31975     31976     31977
     31976     31978     31977     31978     31979     31980     31979     31981
     31980     31981     31982     31983     31982     31984     31983     31984
     31985     31986     31985     31987     31986     31987     31988     31989
     31988     31990     31989     31990     31991     31992     31991     31993
     31992     31993     31994     31995     31994     31996     31995     31996
     31997     31998     31997     31999     31998     31999     32000     32001
     32000     32002     32001     32002     32003     32004     32003     32005
     32004     32005     32006     32007     32006     32008     32007     32008
     32009     32010     32009     32011     32010     32011     32012     32013
     32012     32014     32013     32014     32015     32016     32015     32017
     32016     32017     32018     32019     32018     32020     32019     32020
     32021     32022     32021     32023     32022     32023     32024     32025
     32024     32026     32025     32026     32027     32028     32027     32029
     32028     32029     32030     32031     32030     32032     32031     32032
     32033     32034     32033     32035     32034     32035     32036     32037
     32036     32038     32037     32038     32039     32040     32039     32041
     32040     32041     32042     32043     32042     32044     32043     32044
     32045     32046     32045     32047     32046     32047     32048     32049
     32048     32050     32049     32050     32051     32052     32051     32053
     32052     32053     32054     32055     32054     32056     32055     32056
     32057     32058     32057     32059     32058     32059     32060     32061
     32060     32062     32061     32062     32063     32064     32063     32065
     32064     32065     32066     32067     32066     32068     32067     32068
     32069     32070     32069     32071     32070     32071     32072     32073
     32072     32074     32073     32074     32075     32076     32075     32077
     32076     32077     32078     32079     32078     32080     32079     32080
     32081     32082     32081     32083     32082     32083     32084     32085
     32084     32086     32085     32086     32087     32088     32087     32089
     32088     32089     32090     32091     32090     32092     32091     32092
     32093     32094     32093     32095     32094     32095     32096     32097
     32096     32098     32097     32098     32099     32100     32099     32101
     32100     32101     32102     32103     32102     32104     32103     32104
     32105     32106     32105     32107     32106     32107     32108     32109
     32108     32110     32109     32110     32111     32112     32111     32113
     32112     32113     32114     32115     32114     32116     32115     32116
     32117     32118     32117     32119     32118     32119     32120     32121
     32120     32122     32121     32122     32123     32124     32123     32125
     32124     32125     32126     32127     32126     32128     32127     32128
     32129     32130     32129     32131     32130     32131     32132     32133
     32132     32134     32133     32134     32135     32136     32135     32137
     32136     32137     32138     32139     32138     32140     32139     32140
     32141     32142     32141     32143     32142     32143     32144     32145
     32144     32146     32145     32146     32147     32148     32147     32149
     32148     32149     32150     32151     32150     32152     32151     32152
     32153     32154     32153     32155     32154     32155     32156     32157
     32156     32158     32157     32158     32159     32160     32159     32161
     32160     32161     32162     32163     32162     32164     32163     32164
     32165     32166     32165     32167     32166     32167     32168     32169
     32168     32170     32169     32170     32171     32172     32171     32173
     32172     32173     32174     32175     32174     32176     32175     32176
     32177     32178     32177     32179     32178     32179     32180     32181
     32180     32182     32181     32182     32183     32184     32183     32185
     32184     32185     32186     32187     32186     32188     32187     32188
     32189     32190     32189     32191     32190     32191     32192     32193
     32192     32194     32193     32194     32195     32196     32195     32197
     32196     32197     32198     32199     32198     32200     32199     32200
     32201     32202     32201     32203     32202     32203     32204     32205
     32204     32206     32205     32206     32207     32208     32207     32209
     32208     32209     32210     32211     32210     32212     32211     32212
     32213     32214     32213     32215     32214     32215     32216     32217
     32216     32218     32217     32218     32219     32220     32219     32221
     32220     32221     32222     32223     32222     32224     32223     32224
     32225     32226     32225     32227     32226     32227     32228     32229
     32228     32230     32229     32230     32231     32232     32231     32233
     32232     32233     32234     32235     32234     32236     32235     32236
     32237     32238     32237     32239     32238     32239     32240     32241
     32240     32242     32241     32242     32243     32244     32243     32245
     32244     32245     32246     32247     32246     32248     32247     32248
     32249     32250     32249     32251     32250     32251     32252     32253
     32252     32254     32253     32254     32255     32256     32255     32257
     32256     32257     32258     32259     32258     32260     32259     32260
     32261     32262     32261     32263     32262     32263     32264     32265
     32264     32266     32265     32266     32267     32268     32267     32269
     32268     32269     32270     32271     32270     32272     32271     32272
     32273     32274     32273     32275     32274     32275     32276     32277
     32276     32278     32277     32278     32279     32280     32279     32281
     32280     32281     32282     32283     32282     32284     32283     32284
     32285     32286     32285     32287     32286     32287     32288     32289
     32288     32290     32289     32290     32291     32292     32291     32293
     32292     32293     32294     32295     32294     32296     32295     32296
     32297     32298     32297     32299     32298     32299     32300     32301
     32300     32302     32301     32302     32303     32304     32303     32305
     32304     32305     32306     32307     32306     32308     32307     32308
     32309     32310     32309     32311     32310     32311     32312     32313
     32312     32314     32313     32314     32315     32316     32315     32317
     32316     32317     32318     32319     32318     32320     32319     32320
     32321     32322     32321     32323     32322     32323     32324     32325
     32324     32326     32325     32326     32327     32328     32327     32329
     32328     32329     32330     32331     32330     32332     32331     32332
     32333     32334     32333     32335     32334     32335     32336     32337
     32336     32338     32337     32338     32339     32340     32339     32341
     32340     32341     32342     32343     32342     32344     32343     32344
     32345     32346     32345     32347     32346     32347     32348     32349
     32348     32350     32349     32350     32351     32352     32351     32353
     32352     32353     32354     32355     32354     32356     32355     32356
     32357     32358     32357     32359     32358     32359     32360     32361
     32360     32362     32361     32362     32363     32364     32363     32365
     32364     32365     32366     32367     32366     32368     32367     32368
     32369     32370     32369     32371     32370     32371     32372     32373
     32372     32374     32373     32374     32375     32376     32375     32377
     32376     32377     32378     32379     32378     32380     32379     32380
     32381     32382     32381     32383     32382     32383     32384     32385
     32384     32386     32385     32386     32387     32388     32387     32389
     32388     32389     32390     32391     32390     32392     32391     32392
     32393     32394     32393     32395     32394     32395     32396     32397
     32396     32398     32397     32398     32399     32400     32399     32401
     32400     32401     32402     32403     32402     32404     32403     32404
     32405     32406     32405     32407     32406     32407     32408     32409
     32408     32410     32409     32410     32411     32412     32411     32413
     32412     32413     32414     32415     32414     32416     32415     32416
     32417     32418     32417     32419     32418     32419     32420     32421
     32420     32422     32421     32422     32423     32424     32423     32425
     32424     32425     32426     32427     32426     32428     32427     32428
     32429     32430     32429     32431     32430     32431     32432     32433
     32432     32434     32433     32434     32435     32436     32435     32437
     32436     32437     32438     32439     32438     32440     32439     32440
     32441     32442     32441     32443     32442     32443     32444     32445
     32444     32446     32445     32446     32447     32448     32447     32449
     32448     32449     32450     32451     32450     32452     32451     32452
     32453     32454     32453     32455     32454     32455     32456     32457
     32456     32458     32457     32458     32459     32460     32459     32461
     32460     32461     32462     32463     32462     32464     32463     32464
     32465     32466     32465     32467     32466     32467     32468     32469
     32468     32470     32469     32470     32471     32472     32471     32473
     32472     32473     32474     32475     32474     32476     32475     32476
     32477     32478     32477     32479     32478     32479     32480     32481
     32480     32482     32481     32482     32483     32484     32483     32485
     32484     32485     32486     32487     32486     32488     32487     32488
     32489     32490     32489     32491     32490     32491     32492     32493
     32492     32494     32493     32494     32495     32496     32495     32497
     32496     32497     32498     32499     32498     32500     32499     32500
     32501     32502     32501     32503     32502     32503     32504     32505
     32504     32506     32505     32506     32507     32508     32507     32509
     32508     32509     32510     32511     32510     32512     32511     32512
     32513     32514     32513     32515     32514     32515     32516     32517
     32516     32518     32517     32518     32519     32520     32519     32521
     32520     32521     32522     32523     32522     32524     32523     32524
     32525     32526     32525     32527     32526     32527     32528     32529
     32528     32530     32529     32530     32531     32532     32531     32533
     32532     32533     32534     32535     32534     32536     32535     32536
     32537     32538     32537     32539     32538     32539     32540     32541
     32540     32542     32541     32542     32543     32544     32543     32545
     32544     32545     32546     32547     32546     32548     32547     32548
     32549     32550     32549     32551     32550     32551     32552     32553
     32552     32554     32553     32554     32555     32556     32555     32557
     32556     32557     32558     32559     32558     32560     32559     32560
     32561     32562     32561     32563     32562     32563     32564     32565
     32564     32566     32565     32566     32567     32568     32567     32569
     32568     32569     32570     32571     32570     32572     32571     32572
     32573     32574     32573     32575     32574     32575     32576     32577
     32576     32578     32577     32578     32579     32580     32579     32581
     32580     32581     32582     32583     32582     32584     32583     32584
     32585     32586     32585     32587     32586     32587     32588     32589
     32588     32590     32589     32590     32591     32592     32591     32593
     32592     32593     32594     32595     32594     32596     32595     32596
     32597     32598     32597     32599     32598     32599     32600     32601
     32600     32602     32601     32602     32603     32604     32603     32605
     32604     32605     32606     32607     32606     32608     32607     32608
     32609     32610     32609     32611     32610     32611     32612     32613
     32612     32614     32613     32614     32615     32616     32615     32617
     32616     32617     32618     32619     32618     32620     32619     32620
     32621     32622     32621     32623     32622     32623     32624     32625
     32624     32626     32625     32626     32627     32628     32627     32629
     32628     32629     32630     32631     32630     32632     32631     32632
     32633     32634     32633     32635     32634     32635     32636     32637
     32636     32638     32637     32638     32639     32640     32639     32641
     32640     32641     32642     32643     32642     32644     32643     32644
     32645     32646     32645     32647     32646     32647     32648     32649
     32648     32650     32649     32650     32651     32652     32651     32653
     32652     32653     32654     32655     32654     32656     32655     32656
     32657     32658     32657     32659     32658     32659     32660     32661
     32660     32662     32661     32662     32663     32664     32663     32665
     32664     32665     32666     32667     32666     32668     32667     32668
     32669     32670     32669     32671     32670     32671     32672     32673
     32672     32674     32673     32674     32675     32676     32675     32677
     32676     32677     32678     32679     32678     32680     32679     32680
     32681     32682     32681     32683     32682     32683     32684     32685
     32684     32686     32685     32686     32687     32688     32687     32689
     32688     32689     32690     32691     32690     32692     32691     32692
     32693     32694     32693     32695     32694     32695     32696     32697
     32696     32698     32697     32698     32699     32700     32699     32701
     32700     32701     32702     32703     32702     32704     32703     32704
     32705     32706     32705     32707     32706     32707     32708     32709
     32708     32710     32709     32710     32711     32712     32711     32713
     32712     32713     32714     32715     32714     32716     32715     32716
     32717     32718     32717     32719     32718     32719     32720     32721
     32720     32722     32721     32722     32723     32724     32723     32725
     32724     32725     32726     32727     32726     32728     32727     32728
     32729     32730     32729     32731     32730     32731     32732     32733
     32732     32734     32733     32734     32735     32736     32735     32737
     32736     32737     32738     32739     32738     32740     32739     32740
     32741     32742     32741     32743     32742     32743     32744     32745
     32744     32746     32745     32746     32747     32748     32747     32749
     32748     32749     32750     32751     32750     32752     32751     32752
     32753     32754     32753     32755     32754     32755     32756     32757
     32756     32758     32757     32758     32759     32760     32759     32761
     32760     32761     32762     32763     32762     32764     32763     32764
     32765     32766     32765     32767     32766     32767     32768     32769
     32768     32770     32769     32770     32771     32772     32771     32773
     32772     32773     32774     32775     32774     32776     32775     32776
     32777     32778     32777     32779     32778     32779     32780     32781
     32780     32782     32781     32782     32783     32784     32783     32785
     32784     32785     32786     32787     32786     32788     32787     32788
     32789     32790     32789     32791     32790     32791     32792     32793
     32792     32794     32793     32794     32795     32796     32795     32797
     32796     32797     32798     32799     32798     32800     32799     32800
     32801     32802     32801     32803     32802     32803     32804     32805
     32804     32806     32805     32806     32807     32808     32807     32809
     32808     32809     32810     32811     32810     32812     32811     32812
     32813     32814     32813     32815     32814     32815     32816     32817
     32816     32818     32817     32818     32819     32820     32819     32821
     32820     32821     32822     32823     32822     32824     32823     32824
     32825     32826     32825     32827     32826     32827     32828     32829
     32828     32830     32829     32830     32831     32832     32831     32833
     32832     32833     32834     32835     32834     32836     32835     32836
     32837     32838     32837     32839     32838     32839     32840     32841
     32840     32842     32841     32842     32843     32844     32843     32845
     32844     32845     32846     32847     32846     32848     32847     32848
     32849     32850     32849     32851     32850     32851     32852     32853
     32852     32854     32853     32854     32855     32856     32855     32857
     32856     32857     32858     32859     32858     32860     32859     32860
     32861     32862     32861     32863     32862     32863     32864     32865
     32864     32866     32865     32866     32867     32868     32867     32869
     32868     32869     32870     32871     32870     32872     32871     32872
     32873     32874     32873     32875     32874     32875     32876     32877
     32876     32878     32877     32878     32879     32880     32879     32881
     32880     32881     32882     32883     32882     32884     32883     32884
     32885     32886     32885     32887     32886     32887     32888     32889
     32888     32890     32889     32890     32891     32892     32891     32893
     32892     32893     32894     32895     32894     32896     32895     32896
     32897     32898     32897     32899     32898     32899     32900     32901
     32900     32902     32901     32902     32903     32904     32903     32905
     32904     32905     32906     32907     32906     32908     32907     32908
     32909     32910     32909     32911     32910     32911     32912     32913
     32912     32914     32913     32914     32915     32916     32915     32917
     32916     32917     32918     32919     32918     32920     32919     32920
     32921     32922     32921     32923     32922     32923     32924     32925
     32924     32926     32925     32926     32927     32928     32927     32929
     32928     32929     32930     32931     32930     32932     32931     32932
     32933     32934     32933     32935     32934     32935     32936     32937
     32936     32938     32937     32938     32939     32940     32939     32941
     32940     32941     32942     32943     32942     32944     32943     32944
     32945     32946     32945     32947     32946     32947     32948     32949
     32948     32950     32949     32950     32951     32952     32951     32953
     32952     32953     32954     32955     32954     32956     32955     32956
     32957     32958     32957     32959     32958     32959     32960     32961
     32960     32962     32961     32962     32963     32964     32963     32965
     32964     32965     32966     32967     32966     32968     32967     32968
     32969     32970     32969     32971     32970     32971     32972     32973
     32972     32974     32973     32974     32975     32976     32975     32977
     32976     32977     32978     32979     32978     32980     32979     32980
     32981     32982     32981     32983     32982     32983     32984     32985
     32984     32986     32985     32986     32987     32988     32987     32989
     32988     32989     32990     32991     32990     32992     32991     32992
     32993     32994     32993     32995     32994     32995     32996     32997
     32996     32998     32997     32998     32999     33000     32999     33001
     33000     33001     33002     33003     33002     33004     33003     33004
     33005     33006     33005     33007     33006     33007     33008     33009
     33008     33010     33009     33010     33011     33012     33011     33013
     33012     33013     33014     33015     33014     33016     33015     33016
     33017     33018     33017     33019     33018     33019     33020     33021
     33020     33022     33021     33022     33023     33024     33023     33025
     33024     33025     33026     33027     33026     33028     33027     33028
     33029     33030     33029     33031     33030     33031     33032     33033
     33032     33034     33033     33034     33035     33036     33035     33037
     33036     33037     33038     33039     33038     33040     33039     33040
     33041     33042     33041     33043     33042     33043     33044     33045
     33044     33046     33045     33046     33047     33048     33047     33049
     33048     33049     33050     33051     33050     33052     33051     33052
     33053     33054     33053     33055     33054     33055     33056     33057
     33056     33058     33057     33058     33059     33060     33059     33061
     33060     33061     33062     33063     33062     33064     33063     33064
     33065     33066     33065     33067     33066     33067     33068     33069
     33068     33070     33069     33070     33071     33072     33071     33073
     33072     33073     33074     33075     33074     33076     33075     33076
     33077     33078     33077     33079     33078     33079     33080     33081
     33080     33082     33081     33082     33083     33084     33083     33085
     33084     33085     33086     33087     33086     33088     33087     33088
     33089     33090     33089     33091     33090     33091     33092     33093
     33092     33094     33093     33094     33095     33096     33095     33097
     33096     33097     33098     33099     33098     33100     33099     33100
     33101     33102     33101     33103     33102     33103     33104     33105
     33104     33106     33105     33106     33107     33108     33107     33109
     33108     33109     33110     33111     33110     33112     33111     33112
     33113     33114     33113     33115     33114     33115     33116     33117
     33116     33118     33117     33118     33119     33120     33119     33121
     33120     33121     33122     33123     33122     33124     33123     33124
     33125     33126     33125     33127     33126     33127     33128     33129
     33128     33130     33129     33130     33131     33132     33131     33133
     33132     33133     33134     33135     33134     33136     33135     33136
     33137     33138     33137     33139     33138     33139     33140     33141
     33140     33142     33141     33142     33143     33144     33143     33145
     33144     33145     33146     33147     33146     33148     33147     33148
     33149     33150     33149     33151     33150     33151     33152     33153
     33152     33154     33153     33154     33155     33156     33155     33157
     33156     33157     33158     33159     33158     33160     33159     33160
     33161     33162     33161     33163     33162     33163     33164     33165
     33164     33166     33165     33166     33167     33168     33167     33169
     33168     33169     33170     33171     33170     33172     33171     33172
     33173     33174     33173     33175     33174     33175     33176     33177
     33176     33178     33177     33178     33179     33180     33179     33181
     33180     33181     33182     33183     33182     33184     33183     33184
     33185     33186     33185     33187     33186     33187     33188     33189
     33188     33190     33189     33190     33191     33192     33191     33193
     33192     33193     33194     33195     33194     33196     33195     33196
     33197     33198     33197     33199     33198     33199     33200     33201
     33200     33202     33201     33202     33203     33204     33203     33205
     33204     33205     33206     33207     33206     33208     33207     33208
     33209     33210     33209     33211     33210     33211     33212     33213
     33212     33214     33213     33214     33215     33216     33215     33217
     33216     33217     33218     33219     33218     33220     33219     33220
     33221     33222     33221     33223     33222     33223     33224     33225
     33224     33226     33225     33226     33227     33228     33227     33229
     33228     33229     33230     33231     33230     33232     33231     33232
     33233     33234     33233     33235     33234     33235     33236     33237
     33236     33238     33237     33238     33239     33240     33239     33241
     33240     33241     33242     33243     33242     33244     33243     33244
     33245     33246     33245     33247     33246     33247     33248     33249
     33248     33250     33249     33250     33251     33252     33251     33253
     33252     33253     33254     33255     33254     33256     33255     33256
     33257     33258     33257     33259     33258     33259     33260     33261
     33260     33262     33261     33262     33263     33264     33263     33265
     33264     33265     33266     33267     33266     33268     33267     33268
     33269     33270     33269     33271     33270     33271     33272     33273
     33272     33274     33273     33274     33275     33276     33275     33277
     33276     33277     33278     33279     33278     33280     33279     33280
     33281     33282     33281     33283     33282     33283     33284     33285
     33284     33286     33285     33286     33287     33288     33287     33289
     33288     33289     33290     33291     33290     33292     33291     33292
     33293     33294     33293     33295     33294     33295     33296     33297
     33296     33298     33297     33298     33299     33300     33299     33301
     33300     33301     33302     33303     33302     33304     33303     33304
     33305     33306     33305     33307     33306     33307     33308     33309
     33308     33310     33309     33310     33311     33312     33311     33313
     33312     33313     33314     33315     33314     33316     33315     33316
     33317     33318     33317     33319     33318     33319     33320     33321
     33320     33322     33321     33322     33323     33324     33323     33325
     33324     33325     33326     33327     33326     33328     33327     33328
     33329     33330     33329     33331     33330     33331     33332     33333
     33332     33334     33333     33334     33335     33336     33335     33337
     33336     33337     33338     33339     33338     33340     33339     33340
     33341     33342     33341     33343     33342     33343     33344     33345
     33344     33346     33345     33346     33347     33348     33347     33349
     33348     33349     33350     33351     33350     33352     33351     33352
     33353     33354     33353     33355     33354     33355     33356     33357
     33356     33358     33357     33358     33359     33360     33359     33361
     33360     33361     33362     33363     33362     33364     33363     33364
     33365     33366     33365     33367     33366     33367     33368     33369
     33368     33370     33369     33370     33371     33372     33371     33373
     33372     33373     33374     33375     33374     33376     33375     33376
     33377     33378     33377     33379     33378     33379     33380     33381
     33380     33382     33381     33382     33383     33384     33383     33385
     33384     33385     33386     33387     33386     33388     33387     33388
     33389     33390     33389     33391     33390     33391     33392     33393
     33392     33394     33393     33394     33395     33396     33395     33397
     33396     33397     33398     33399     33398     33400     33399     33400
     33401     33402     33401     33403     33402     33403     33404     33405
     33404     33406     33405     33406     33407     33408     33407     33409
     33408     33409     33410     33411     33410     33412     33411     33412
     33413     33414     33413     33415     33414     33415     33416     33417
     33416     33418     33417     33418     33419     33420     33419     33421
     33420     33421     33422     33423     33422     33424     33423     33424
     33425     33426     33425     33427     33426     33427     33428     33429
     33428     33430     33429     33430     33431     33432     33431     33433
     33432     33433     33434     33435     33434     33436     33435     33436
     33437     33438     33437     33439     33438     33439     33440     33441
     33440     33442     33441     33442     33443     33444     33443     33445
     33444     33445     33446     33447     33446     33448     33447     33448
     33449     33450     33449     33451     33450     33451     33452     33453
     33452     33454     33453     33454     33455     33456     33455     33457
     33456     33457     33458     33459     33458     33460     33459     33460
     33461     33462     33461     33463     33462     33463     33464     33465
     33464     33466     33465     33466     33467     33468     33467     33469
     33468     33469     33470     33471     33470     33472     33471     33472
     33473     33474     33473     33475     33474     33475     33476     33477
     33476     33478     33477     33478     33479     33480     33479     33481
     33480     33481     33482     33483     33482     33484     33483     33484
     33485     33486     33485     33487     33486     33487     33488     33489
     33488     33490     33489     33490     33491     33492     33491     33493
     33492     33493     33494     33495     33494     33496     33495     33496
     33497     33498     33497     33499     33498     33499     33500     33501
     33500     33502     33501     33502     33503     33504     33503     33505
     33504     33505     33506     33507     33506     33508     33507     33508
     33509     33510     33509     33511     33510     33511     33512     33513
     33512     33514     33513     33514     33515     33516     33515     33517
     33516     33517     33518     33519     33518     33520     33519     33520
     33521     33522     33521     33523     33522     33523     33524     33525
     33524     33526     33525     33526     33527     33528     33527     33529
     33528     33529     33530     33531     33530     33532     33531     33532
     33533     33534     33533     33535     33534     33535     33536     33537
     33536     33538     33537     33538     33539     33540     33539     33541
     33540     33541     33542     33543     33542     33544     33543     33544
     33545     33546     33545     33547     33546     33547     33548     33549
     33548     33550     33549     33550     33551     33552     33551     33553
     33552     33553     33554     33555     33554     33556     33555     33556
     33557     33558     33557     33559     33558     33559     33560     33561
     33560     33562     33561     33562     33563     33564     33563     33565
     33564     33565     33566     33567     33566     33568     33567     33568
     33569     33570     33569     33571     33570     33571     33572     33573
     33572     33574     33573     33574     33575     33576     33575     33577
     33576     33577     33578     33579     33578     33580     33579     33580
     33581     33582     33581     33583     33582     33583     33584     33585
     33584     33586     33585     33586     33587     33588     33587     33589
     33588     33589     33590     33591     33590     33592     33591     33592
     33593     33594     33593     33595     33594     33595     33596     33597
     33596     33598     33597     33598     33599     33600     33599     33601
     33600     33601     33602     33603     33602     33604     33603     33604
     33605     33606     33605     33607     33606     33607     33608     33609
     33608     33610     33609     33610     33611     33612     33611     33613
     33612     33613     33614     33615     33614     33616     33615     33616
     33617     33618     33617     33619     33618     33619     33620     33621
     33620     33622     33621     33622     33623     33624     33623     33625
     33624     33625     33626     33627     33626     33628     33627     33628
     33629     33630     33629     33631     33630     33631     33632     33633
     33632     33634     33633     33634     33635     33636     33635     33637
     33636     33637     33638     33639     33638     33640     33639     33640
     33641     33642     33641     33643     33642     33643     33644     33645
     33644     33646     33645     33646     33647     33648     33647     33649
     33648     33649     33650     33651     33650     33652     33651     33652
     33653     33654     33653     33655     33654     33655     33656     33657
     33656     33658     33657     33658     33659     33660     33659     33661
     33660     33661     33662     33663     33662     33664     33663     33664
     33665     33666     33665     33667     33666     33667     33668     33669
     33668     33670     33669     33670     33671     33672     33671     33673
     33672     33673     33674     33675     33674     33676     33675     33676
     33677     33678     33677     33679     33678     33679     33680     33681
     33680     33682     33681     33682     33683     33684     33683     33685
     33684     33685     33686     33687     33686     33688     33687     33688
     33689     33690     33689     33691     33690     33691     33692     33693
     33692     33694     33693     33694     33695     33696     33695     33697
     33696     33697     33698     33699     33698     33700     33699     33700
     33701     33702     33701     33703     33702     33703     33704     33705
     33704     33706     33705     33706     33707     33708     33707     33709
     33708     33709     33710     33711     33710     33712     33711     33712
     33713     33714     33713     33715     33714     33715     33716     33717
     33716     33718     33717     33718     33719     33720     33719     33721
     33720     33721     33722     33723     33722     33724     33723     33724
     33725     33726     33725     33727     33726     33727     33728     33729
     33728     33730     33729     33730     33731     33732     33731     33733
     33732     33733     33734     33735     33734     33736     33735     33736
     33737     33738     33737     33739     33738     33739     33740     33741
     33740     33742     33741     33742     33743     33744     33743     33745
     33744     33745     33746     33747     33746     33748     33747     33748
     33749     33750     33749     33751     33750     33751     33752     33753
     33752     33754     33753     33754     33755     33756     33755     33757
     33756     33757     33758     33759     33758     33760     33759     33760
     33761     33762     33761     33763     33762     33763     33764     33765
     33764     33766     33765     33766     33767     33768     33767     33769
     33768     33769     33770     33771     33770     33772     33771     33772
     33773     33774     33773     33775     33774     33775     33776     33777
     33776     33778     33777     33778     33779     33780     33779     33781
     33780     33781     33782     33783     33782     33784     33783     33784
     33785     33786     33785     33787     33786     33787     33788     33789
     33788     33790     33789     33790     33791     33792     33791     33793
     33792     33793     33794     33795     33794     33796     33795     33796
     33797     33798     33797     33799     33798     33799     33800     33801
     33800     33802     33801     33802     33803     33804     33803     33805
     33804     33805     33806     33807     33806     33808     33807     33808
     33809     33810     33809     33811     33810     33811     33812     33813
     33812     33814     33813     33814     33815     33816     33815     33817
     33816     33817     33818     33819     33818     33820     33819     33820
     33821     33822     33821     33823     33822     33823     33824     33825
     33824     33826     33825     33826     33827     33828     33827     33829
     33828     33829     33830     33831     33830     33832     33831     33832
     33833     33834     33833     33835     33834     33835     33836     33837
     33836     33838     33837     33838     33839     33840     33839     33841
     33840     33841     33842     33843     33842     33844     33843     33844
     33845     33846     33845     33847     33846     33847     33848     33849
     33848     33850     33849     33850     33851     33852     33851     33853
     33852     33853     33854     33855     33854     33856     33855     33856
     33857     33858     33857     33859     33858     33859     33860     33861
     33860     33862     33861     33862     33863     33864     33863     33865
     33864     33865     33866     33867     33866     33868     33867     33868
     33869     33870     33869     33871     33870     33871     33872     33873
     33872     33874     33873     33874     33875     33876     33875     33877
     33876     33877     33878     33879     33878     33880     33879     33880
     33881     33882     33881     33883     33882     33883     33884     33885
     33884     33886     33885     33886     33887     33888     33887     33889
     33888     33889     33890     33891     33890     33892     33891     33892
     33893     33894     33893     33895     33894     33895     33896     33897
     33896     33898     33897     33898     33899     33900     33899     33901
     33900     33901     33902     33903     33902     33904     33903     33904
     33905     33906     33905     33907     33906     33907     33908     33909
     33908     33910     33909     33910     33911     33912     33911     33913
     33912     33913     33914     33915     33914     33916     33915     33916
     33917     33918     33917     33919     33918     33919     33920     33921
     33920     33922     33921     33922     33923     33924     33923     33925
     33924     33925     33926     33927     33926     33928     33927     33928
     33929     33930     33929     33931     33930     33931     33932     33933
     33932     33934     33933     33934     33935     33936     33935     33937
     33936     33937     33938     33939     33938     33940     33939     33940
     33941     33942     33941     33943     33942     33943     33944     33945
     33944     33946     33945     33946     33947     33948     33947     33949
     33948     33949     33950     33951     33950     33952     33951     33952
     33953     33954     33953     33955     33954     33955     33956     33957
     33956     33958     33957     33958     33959     33960     33959     33961
     33960     33961     33962     33963     33962     33964     33963     33964
     33965     33966     33965     33967     33966     33967     33968     33969
     33968     33970     33969     33970     33971     33972     33971     33973
     33972     33973     33974     33975     33974     33976     33975     33976
     33977     33978     33977     33979     33978     33979     33980     33981
     33980     33982     33981     33982     33983     33984     33983     33985
     33984     33985     33986     33987     33986     33988     33987     33988
     33989     33990     33989     33991     33990     33991     33992     33993
     33992     33994     33993     33994     33995     33996     33995     33997
     33996     33997     33998     33999     33998     34000     33999     34000
     34001     34002     34001     34003     34002     34003     34004     34005
     34004     34006     34005     34006     34007     34008     34007     34009
     34008     34009     34010     34011     34010     34012     34011     34012
     34013     34014     34013     34015     34014     34015     34016     34017
     34016     34018     34017     34018     34019     34020     34019     34021
     34020     34021     34022     34023     34022     34024     34023     34024
     34025     34026     34025     34027     34026     34027     34028     34029
     34028     34030     34029     34030     34031     34032     34031     34033
     34032     34033     34034     34035     34034     34036     34035     34036
     34037     34038     34037     34039     34038     34039     34040     34041
     34040     34042     34041     34042     34043     34044     34043     34045
     34044     34045     34046     34047     34046     34048     34047     34048
     34049     34050     34049     34051     34050     34051     34052     34053
     34052     34054     34053     34054     34055     34056     34055     34057
     34056     34057     34058     34059     34058     34060     34059     34060
     34061     34062     34061     34063     34062     34063     34064     34065
     34064     34066     34065     34066     34067     34068     34067     34069
     34068     34069     34070     34071     34070     34072     34071     34072
     34073     34074     34073     34075     34074     34075     34076     34077
     34076     34078     34077     34078     34079     34080     34079     34081
     34080     34081     34082     34083     34082     34084     34083     34084
     34085     34086     34085     34087     34086     34087     34088     34089
     34088     34090     34089     34090     34091     34092     34091     34093
     34092     34093     34094     34095     34094     34096     34095     34096
     34097     34098     34097     34099     34098     34099     34100     34101
     34100     34102     34101     34102     34103     34104     34103     34105
     34104     34105     34106     34107     34106     34108     34107     34108
     34109     34110     34109     34111     34110     34111     34112     34113
     34112     34114     34113     34114     34115     34116     34115     34117
     34116     34117     34118     34119     34118     34120     34119     34120
     34121     34122     34121     34123     34122     34123     34124     34125
     34124     34126     34125     34126     34127     34128     34127     34129
     34128     34129     34130     34131     34130     34132     34131     34132
     34133     34134     34133     34135     34134     34135     34136     34137
     34136     34138     34137     34138     34139     34140     34139     34141
     34140     34141     34142     34143     34142     34144     34143     34144
     34145     34146     34145     34147     34146     34147     34148     34149
     34148     34150     34149     34150     34151     34152     34151     34153
     34152     34153     34154     34155     34154     34156     34155     34156
     34157     34158     34157     34159     34158     34159     34160     34161
     34160     34162     34161     34162     34163     34164     34163     34165
     34164     34165     34166     34167     34166     34168     34167     34168
     34169     34170     34169     34171     34170     34171     34172     34173
     34172     34174     34173     34174     34175     34176     34175     34177
     34176     34177     34178     34179     34178     34180     34179     34180
     34181     34182     34181     34183     34182     34183     34184     34185
     34184     34186     34185     34186     34187     34188     34187     34189
     34188     34189     34190     34191     34190     34192     34191     34192
     34193     34194     34193     34195     34194     34195     34196     34197
     34196     34198     34197     34198     34199     34200     34199     34201
     34200     34201     34202     34203     34202     34204     34203     34204
     34205     34206     34205     34207     34206     34207     34208     34209
     34208     34210     34209     34210     34211     34212     34211     34213
     34212     34213     34214     34215     34214     34216     34215     34216
     34217     34218     34217     34219     34218     34219     34220     34221
     34220     34222     34221     34222     34223     34224     34223     34225
     34224     34225     34226     34227     34226     34228     34227     34228
     34229     34230     34229     34231     34230     34231     34232     34233
     34232     34234     34233     34234     34235     34236     34235     34237
     34236     34237     34238     34239     34238     34240     34239     34240
     34241     34242     34241     34243     34242     34243     34244     34245
     34244     34246     34245     34246     34247     34248     34247     34249
     34248     34249     34250     34251     34250     34252     34251     34252
     34253     34254     34253     34255     34254     34255     34256     34257
     34256     34258     34257     34258     34259     34260     34259     34261
     34260     34261     34262     34263     34262     34264     34263     34264
     34265     34266     34265     34267     34266     34267     34268     34269
     34268     34270     34269     34270     34271     34272     34271     34273
     34272     34273     34274     34275     34274     34276     34275     34276
     34277     34278     34277     34279     34278     34279     34280     34281
     34280     34282     34281     34282     34283     34284     34283     34285
     34284     34285     34286     34287     34286     34288     34287     34288
     34289     34290     34289     34291     34290     34291     34292     34293
     34292     34294     34293     34294     34295     34296     34295     34297
     34296     34297     34298     34299     34298     34300     34299     34300
     34301     34302     34301     34303     34302     34303     34304     34305
     34304     34306     34305     34306     34307     34308     34307     34309
     34308     34309     34310     34311     34310     34312     34311     34312
     34313     34314     34313     34315     34314     34315     34316     34317
     34316     34318     34317     34318     34319     34320     34319     34321
     34320     34321     34322     34323     34322     34324     34323     34324
     34325     34326     34325     34327     34326     34327     34328     34329
     34328     34330     34329     34330     34331     34332     34331     34333
     34332     34333     34334     34335     34334     34336     34335     34336
     34337     34338     34337     34339     34338     34339     34340     34341
     34340     34342     34341     34342     34343     34344     34343     34345
     34344     34345     34346     34347     34346     34348     34347     34348
     34349     34350     34349     34351     34350     34351     34352     34353
     34352     34354     34353     34354     34355     34356     34355     34357
     34356     34357     34358     34359     34358     34360     34359     34360
     34361     34362     34361     34363     34362     34363     34364     34365
     34364     34366     34365     34366     34367     34368     34367     34369
     34368     34369     34370     34371     34370     34372     34371     34372
     34373     34374     34373     34375     34374     34375     34376     34377
     34376     34378     34377     34378     34379     34380     34379     34381
     34380     34381     34382     34383     34382     34384     34383     34384
     34385     34386     34385     34387     34386     34387     34388     34389
     34388     34390     34389     34390     34391     34392     34391     34393
     34392     34393     34394     34395     34394     34396     34395     34396
     34397     34398     34397     34399     34398     34399     34400     34401
     34400     34402     34401     34402     34403     34404     34403     34405
     34404     34405     34406     34407     34406     34408     34407     34408
     34409     34410     34409     34411     34410     34411     34412     34413
     34412     34414     34413     34414     34415     34416     34415     34417
     34416     34417     34418     34419     34418     34420     34419     34420
     34421     34422     34421     34423     34422     34423     34424     34425
     34424     34426     34425     34426     34427     34428     34427     34429
     34428     34429     34430     34431     34430     34432     34431     34432
     34433     34434     34433     34435     34434     34435     34436     34437
     34436     34438     34437     34438     34439     34440     34439     34441
     34440     34441     34442     34443     34442     34444     34443     34444
     34445     34446     34445     34447     34446     34447     34448     34449
     34448     34450     34449     34450     34451     34452     34451     34453
     34452     34453     34454     34455     34454     34456     34455     34456
     34457     34458     34457     34459     34458     34459     34460     34461
     34460     34462     34461     34462     34463     34464     34463     34465
     34464     34465     34466     34467     34466     34468     34467     34468
     34469     34470     34469     34471     34470     34471     34472     34473
     34472     34474     34473     34474     34475     34476     34475     34477
     34476     34477     34478     34479     34478     34480     34479     34480
     34481     34482     34481     34483     34482     34483     34484     34485
     34484     34486     34485     34486     34487     34488     34487     34489
     34488     34489     34490     34491     34490     34492     34491     34492
     34493     34494     34493     34495     34494     34495     34496     34497
     34496     34498     34497     34498     34499     34500     34499     34501
     34500     34501     34502     34503     34502     34504     34503     34504
     34505     34506     34505     34507     34506     34507     34508     34509
     34508     34510     34509     34510     34511     34512     34511     34513
     34512     34513     34514     34515     34514     34516     34515     34516
     34517     34518     34517     34519     34518     34519     34520     34521
     34520     34522     34521     34522     34523     34524     34523     34525
     34524     34525     34526     34527     34526     34528     34527     34528
     34529     34530     34529     34531     34530     34531     34532     34533
     34532     34534     34533     34534     34535     34536     34535     34537
     34536     34537     34538     34539     34538     34540     34539     34540
     34541     34542     34541     34543     34542     34543     34544     34545
     34544     34546     34545     34546     34547     34548     34547     34549
     34548     34549     34550     34551     34550     34552     34551     34552
     34553     34554     34553     34555     34554     34555     34556     34557
     34556     34558     34557     34558     34559     34560     34559     34561
     34560     34561     34562     34563     34562     34564     34563     34564
     34565     34566     34565     34567     34566     34567     34568     34569
     34568     34570     34569     34570     34571     34572     34571     34573
     34572     34573     34574     34575     34574     34576     34575     34576
     34577     34578     34577     34579     34578     34579     34580     34581
     34580     34582     34581     34582     34583     34584     34583     34585
     34584     34585     34586     34587     34586     34588     34587     34588
     34589     34590     34589     34591     34590     34591     34592     34593
     34592     34594     34593     34594     34595     34596     34595     34597
     34596     34597     34598     34599     34598     34600     34599     34600
     34601     34602     34601     34603     34602     34603     34604     34605
     34604     34606     34605     34606     34607     34608     34607     34609
     34608     34609     34610     34611     34610     34612     34611     34612
     34613     34614     34613     34615     34614     34615     34616     34617
     34616     34618     34617     34618     34619     34620     34619     34621
     34620     34621     34622     34623     34622     34624     34623     34624
     34625     34626     34625     34627     34626     34627     34628     34629
     34628     34630     34629     34630     34631     34632     34631     34633
     34632     34633     34634     34635     34634     34636     34635     34636
     34637     34638     34637     34639     34638     34639     34640     34641
     34640     34642     34641     34642     34643     34644     34643     34645
     34644     34645     34646     34647     34646     34648     34647     34648
     34649     34650     34649     34651     34650     34651     34652     34653
     34652     34654     34653     34654     34655     34656     34655     34657
     34656     34657     34658     34659     34658     34660     34659     34660
     34661     34662     34661     34663     34662     34663     34664     34665
     34664     34666     34665     34666     34667     34668     34667     34669
     34668     34669     34670     34671     34670     34672     34671     34672
     34673     34674     34673     34675     34674     34675     34676     34677
     34676     34678     34677     34678     34679     34680     34679     34681
     34680     34681     34682     34683     34682     34684     34683     34684
     34685     34686     34685     34687     34686     34687     34688     34689
     34688     34690     34689     34690     34691     34692     34691     34693
     34692     34693     34694     34695     34694     34696     34695     34696
     34697     34698     34697     34699     34698     34699     34700     34701
     34700     34702     34701     34702     34703     34704     34703     34705
     34704     34705     34706     34707     34706     34708     34707     34708
     34709     34710     34709     34711     34710     34711     34712     34713
     34712     34714     34713     34714     34715     34716     34715     34717
     34716     34717     34718     34719     34718     34720     34719     34720
     34721     34722     34721     34723     34722     34723     34724     34725
     34724     34726     34725     34726     34727     34728     34727     34729
     34728     34729     34730     34731     34730     34732     34731     34732
     34733     34734     34733     34735     34734     34735     34736     34737
     34736     34738     34737     34738     34739     34740     34739     34741
     34740     34741     34742     34743     34742     34744     34743     34744
     34745     34746     34745     34747     34746     34747     34748     34749
     34748     34750     34749     34750     34751     34752     34751     34753
     34752     34753     34754     34755     34754     34756     34755     34756
     34757     34758     34757     34759     34758     34759     34760     34761
     34760     34762     34761     34762     34763     34764     34763     34765
     34764     34765     34766     34767     34766     34768     34767     34768
     34769     34770     34769     34771     34770     34771     34772     34773
     34772     34774     34773     34774     34775     34776     34775     34777
     34776     34777     34778     34779     34778     34780     34779     34780
     34781     34782     34781     34783     34782     34783     34784     34785
     34784     34786     34785     34786     34787     34788     34787     34789
     34788     34789     34790     34791     34790     34792     34791     34792
     34793     34794     34793     34795     34794     34795     34796     34797
     34796     34798     34797     34798     34799     34800     34799     34801
     34800     34801     34802     34803     34802     34804     34803     34804
     34805     34806     34805     34807     34806     34807     34808     34809
     34808     34810     34809     34810     34811     34812     34811     34813
     34812     34813     34814     34815     34814     34816     34815     34816
     34817     34818     34817     34819     34818     34819     34820     34821
     34820     34822     34821     34822     34823     34824     34823     34825
     34824     34825     34826     34827     34826     34828     34827     34828
     34829     34830     34829     34831     34830     34831     34832     34833
     34832     34834     34833     34834     34835     34836     34835     34837
     34836     34837     34838     34839     34838     34840     34839     34840
     34841     34842     34841     34843     34842     34843     34844     34845
     34844     34846     34845     34846     34847     34848     34847     34849
     34848     34849     34850     34851     34850     34852     34851     34852
     34853     34854     34853     34855     34854     34855     34856     34857
     34856     34858     34857     34858     34859     34860     34859     34861
     34860     34861     34862     34863     34862     34864     34863     34864
     34865     34866     34865     34867     34866     34867     34868     34869
     34868     34870     34869     34870     34871     34872     34871     34873
     34872     34873     34874     34875     34874     34876     34875     34876
     34877     34878     34877     34879     34878     34879     34880     34881
     34880     34882     34881     34882     34883     34884     34883     34885
     34884     34885     34886     34887     34886     34888     34887     34888
     34889     34890     34889     34891     34890     34891     34892     34893
     34892     34894     34893     34894     34895     34896     34895     34897
     34896     34897     34898     34899     34898     34900     34899     34900
     34901     34902     34901     34903     34902     34903     34904     34905
     34904     34906     34905     34906     34907     34908     34907     34909
     34908     34909     34910     34911     34910     34912     34911     34912
     34913     34914     34913     34915     34914     34915     34916     34917
     34916     34918     34917     34918     34919     34920     34919     34921
     34920     34921     34922     34923     34922     34924     34923     34924
     34925     34926     34925     34927     34926     34927     34928     34929
     34928     34930     34929     34930     34931     34932     34931     34933
     34932     34933     34934     34935     34934     34936     34935     34936
     34937     34938     34937     34939     34938     34939     34940     34941
     34940     34942     34941     34942     34943     34944     34943     34945
     34944     34945     34946     34947     34946     34948     34947     34948
     34949     34950     34949     34951     34950     34951     34952     34953
     34952     34954     34953     34954     34955     34956     34955     34957
     34956     34957     34958     34959     34958     34960     34959     34960
     34961     34962     34961     34963     34962     34963     34964     34965
     34964     34966     34965     34966     34967     34968     34967     34969
     34968     34969     34970     34971     34970     34972     34971     34972
     34973     34974     34973     34975     34974     34975     34976     34977
     34976     34978     34977     34978     34979     34980     34979     34981
     34980     34981     34982     34983     34982     34984     34983     34984
     34985     34986     34985     34987     34986     34987     34988     34989
     34988     34990     34989     34990     34991     34992     34991     34993
     34992     34993     34994     34995     34994     34996     34995     34996
     34997     34998     34997     34999     34998     34999     35000     35001
     35000     35002     35001     35002     35003     35004     35003     35005
     35004     35005     35006     35007     35006     35008     35007     35008
     35009     35010     35009     35011     35010     35011     35012     35013
     35012     35014     35013     35014     35015     35016     35015     35017
     35016     35017     35018     35019     35018     35020     35019     35020
     35021     35022     35021     35023     35022     35023     35024     35025
     35024     35026     35025     35026     35027     35028     35027     35029
     35028     35029     35030     35031     35030     35032     35031     35032
     35033     35034     35033     35035     35034     35035     35036     35037
     35036     35038     35037     35038     35039     35040     35039     35041
     35040     35041     35042     35043     35042     35044     35043     35044
     35045     35046     35045     35047     35046     35047     35048     35049
     35048     35050     35049     35050     35051     35052     35051     35053
     35052     35053     35054     35055     35054     35056     35055     35056
     35057     35058     35057     35059     35058     35059     35060     35061
     35060     35062     35061     35062     35063     35064     35063     35065
     35064     35065     35066     35067     35066     35068     35067     35068
     35069     35070     35069     35071     35070     35071     35072     35073
     35072     35074     35073     35074     35075     35076     35075     35077
     35076     35077     35078     35079     35078     35080     35079     35080
     35081     35082     35081     35083     35082     35083     35084     35085
     35084     35086     35085     35086     35087     35088     35087     35089
     35088     35089     35090     35091     35090     35092     35091     35092
     35093     35094     35093     35095     35094     35095     35096     35097
     35096     35098     35097     35098     35099     35100     35099     35101
     35100     35101     35102     35103     35102     35104     35103     35104
     35105     35106     35105     35107     35106     35107     35108     35109
     35108     35110     35109     35110     35111     35112     35111     35113
     35112     35113     35114     35115     35114     35116     35115     35116
     35117     35118     35117     35119     35118     35119     35120     35121
     35120     35122     35121     35122     35123     35124     35123     35125
     35124     35125     35126     35127     35126     35128     35127     35128
     35129     35130     35129     35131     35130     35131     35132     35133
     35132     35134     35133     35134     35135     35136     35135     35137
     35136     35137     35138     35139     35138     35140     35139     35140
     35141     35142     35141     35143     35142     35143     35144     35145
     35144     35146     35145     35146     35147     35148     35147     35149
     35148     35149     35150     35151     35150     35152     35151     35152
     35153     35154     35153     35155     35154     35155     35156     35157
     35156     35158     35157     35158     35159     35160     35159     35161
     35160     35161     35162     35163     35162     35164     35163     35164
     35165     35166     35165     35167     35166     35167     35168     35169
     35168     35170     35169     35170     35171     35172     35171     35173
     35172     35173     35174     35175     35174     35176     35175     35176
     35177     35178     35177     35179     35178     35179     35180     35181
     35180     35182     35181     35182     35183     35184     35183     35185
     35184     35185     35186     35187     35186     35188     35187     35188
     35189     35190     35189     35191     35190     35191     35192     35193
     35192     35194     35193     35194     35195     35196     35195     35197
     35196     35197     35198     35199     35198     35200     35199     35200
     35201     35202     35201     35203     35202     35203     35204     35205
     35204     35206     35205     35206     35207     35208     35207     35209
     35208     35209     35210     35211     35210     35212     35211     35212
     35213     35214     35213     35215     35214     35215     35216     35217
     35216     35218     35217     35218     35219     35220     35219     35221
     35220     35221     35222     35223     35222     35224     35223     35224
     35225     35226     35225     35227     35226     35227     35228     35229
     35228     35230     35229     35230     35231     35232     35231     35233
     35232     35233     35234     35235     35234     35236     35235     35236
     35237     35238     35237     35239     35238     35239     35240     35241
     35240     35242     35241     35242     35243     35244     35243     35245
     35244     35245     35246     35247     35246     35248     35247     35248
     35249     35250     35249     35251     35250     35251     35252     35253
     35252     35254     35253     35254     35255     35256     35255     35257
     35256     35257     35258     35259     35258     35260     35259     35260
     35261     35262     35261     35263     35262     35263     35264     35265
     35264     35266     35265     35266     35267     35268     35267     35269
     35268     35269     35270     35271     35270     35272     35271     35272
     35273     35274     35273     35275     35274     35275     35276     35277
     35276     35278     35277     35278     35279     35280     35279     35281
     35280     35281     35282     35283     35282     35284     35283     35284
     35285     35286     35285     35287     35286     35287     35288     35289
     35288     35290     35289     35290     35291     35292     35291     35293
     35292     35293     35294     35295     35294     35296     35295     35296
     35297     35298     35297     35299     35298     35299     35300     35301
     35300     35302     35301     35302     35303     35304     35303     35305
     35304     35305     35306     35307     35306     35308     35307     35308
     35309     35310     35309     35311     35310     35311     35312     35313
     35312     35314     35313     35314     35315     35316     35315     35317
     35316     35317     35318     35319     35318     35320     35319     35320
     35321     35322     35321     35323     35322     35323     35324     35325
     35324     35326     35325     35326     35327     35328     35327     35329
     35328     35329     35330     35331     35330     35332     35331     35332
     35333     35334     35333     35335     35334     35335     35336     35337
     35336     35338     35337     35338     35339     35340     35339     35341
     35340     35341     35342     35343     35342     35344     35343     35344
     35345     35346     35345     35347     35346     35347     35348     35349
     35348     35350     35349     35350     35351     35352     35351     35353
     35352     35353     35354     35355     35354     35356     35355     35356
     35357     35358     35357     35359     35358     35359     35360     35361
     35360     35362     35361     35362     35363     35364     35363     35365
     35364     35365     35366     35367     35366     35368     35367     35368
     35369     35370     35369     35371     35370     35371     35372     35373
     35372     35374     35373     35374     35375     35376     35375     35377
     35376     35377     35378     35379     35378     35380     35379     35380
     35381     35382     35381     35383     35382     35383     35384     35385
     35384     35386     35385     35386     35387     35388     35387     35389
     35388     35389     35390     35391     35390     35392     35391     35392
     35393     35394     35393     35395     35394     35395     35396     35397
     35396     35398     35397     35398     35399     35400     35399     35401
     35400     35401     35402     35403     35402     35404     35403     35404
     35405     35406     35405     35407     35406     35407     35408     35409
     35408     35410     35409     35410     35411     35412     35411     35413
     35412     35413     35414     35415     35414     35416     35415     35416
     35417     35418     35417     35419     35418     35419     35420     35421
     35420     35422     35421     35422     35423     35424     35423     35425
     35424     35425     35426     35427     35426     35428     35427     35428
     35429     35430     35429     35431     35430     35431     35432     35433
     35432     35434     35433     35434     35435     35436     35435     35437
     35436     35437     35438     35439     35438     35440     35439     35440
     35441     35442     35441     35443     35442     35443     35444     35445
     35444     35446     35445     35446     35447     35448     35447     35449
     35448     35449     35450     35451     35450     35452     35451     35452
     35453     35454     35453     35455     35454     35455     35456     35457
     35456     35458     35457     35458     35459     35460     35459     35461
     35460     35461     35462     35463     35462     35464     35463     35464
     35465     35466     35465     35467     35466     35467     35468     35469
     35468     35470     35469     35470     35471     35472     35471     35473
     35472     35473     35474     35475     35474     35476     35475     35476
     35477     35478     35477     35479     35478     35479     35480     35481
     35480     35482     35481     35482     35483     35484     35483     35485
     35484     35485     35486     35487     35486     35488     35487     35488
     35489     35490     35489     35491     35490     35491     35492     35493
     35492     35494     35493     35494     35495     35496     35495     35497
     35496     35497     35498     35499     35498     35500     35499     35500
     35501     35502     35501     35503     35502     35503     35504     35505
     35504     35506     35505     35506     35507     35508     35507     35509
     35508     35509     35510     35511     35510     35512     35511     35512
     35513     35514     35513     35515     35514     35515     35516     35517
     35516     35518     35517     35518     35519     35520     35519     35521
     35520     35521     35522     35523     35522     35524     35523     35524
     35525     35526     35525     35527     35526     35527     35528     35529
     35528     35530     35529     35530     35531     35532     35531     35533
     35532     35533     35534     35535     35534     35536     35535     35536
     35537     35538     35537     35539     35538     35539     35540     35541
     35540     35542     35541     35542     35543     35544     35543     35545
     35544     35545     35546     35547     35546     35548     35547     35548
     35549     35550     35549     35551     35550     35551     35552     35553
     35552     35554     35553     35554     35555     35556     35555     35557
     35556     35557     35558     35559     35558     35560     35559     35560
     35561     35562     35561     35563     35562     35563     35564     35565
     35564     35566     35565     35566     35567     35568     35567     35569
     35568     35569     35570     35571     35570     35572     35571     35572
     35573     35574     35573     35575     35574     35575     35576     35577
     35576     35578     35577     35578     35579     35580     35579     35581
     35580     35581     35582     35583     35582     35584     35583     35584
     35585     35586     35585     35587     35586     35587     35588     35589
     35588     35590     35589     35590     35591     35592     35591     35593
     35592     35593     35594     35595     35594     35596     35595     35596
     35597     35598     35597     35599     35598     35599     35600     35601
     35600     35602     35601     35602     35603     35604     35603     35605
     35604     35605     35606     35607     35606     35608     35607     35608
     35609     35610     35609     35611     35610     35611     35612     35613
     35612     35614     35613     35614     35615     35616     35615     35617
     35616     35617     35618     35619     35618     35620     35619     35620
     35621     35622     35621     35623     35622     35623     35624     35625
     35624     35626     35625     35626     35627     35628     35627     35629
     35628     35629     35630     35631     35630     35632     35631     35632
     35633     35634     35633     35635     35634     35635     35636     35637
     35636     35638     35637     35638     35639     35640     35639     35641
     35640     35641     35642     35643     35642     35644     35643     35644
     35645     35646     35645     35647     35646     35647     35648     35649
     35648     35650     35649     35650     35651     35652     35651     35653
     35652     35653     35654     35655     35654     35656     35655     35656
     35657     35658     35657     35659     35658     35659     35660     35661
     35660     35662     35661     35662     35663     35664     35663     35665
     35664     35665     35666     35667     35666     35668     35667     35668
     35669     35670     35669     35671     35670     35671     35672     35673
     35672     35674     35673     35674     35675     35676     35675     35677
     35676     35677     35678     35679     35678     35680     35679     35680
     35681     35682     35681     35683     35682     35683     35684     35685
     35684     35686     35685     35686     35687     35688     35687     35689
     35688     35689     35690     35691     35690     35692     35691     35692
     35693     35694     35693     35695     35694     35695     35696     35697
     35696     35698     35697     35698     35699     35700     35699     35701
     35700     35701     35702     35703     35702     35704     35703     35704
     35705     35706     35705     35707     35706     35707     35708     35709
     35708     35710     35709     35710     35711     35712     35711     35713
     35712     35713     35714     35715     35714     35716     35715     35716
     35717     35718     35717     35719     35718     35719     35720     35721
     35720     35722     35721     35722     35723     35724     35723     35725
     35724     35725     35726     35727     35726     35728     35727     35728
     35729     35730     35729     35731     35730     35731     35732     35733
     35732     35734     35733     35734     35735     35736     35735     35737
     35736     35737     35738     35739     35738     35740     35739     35740
     35741     35742     35741     35743     35742     35743     35744     35745
     35744     35746     35745     35746     35747     35748     35747     35749
     35748     35749     35750     35751     35750     35752     35751     35752
     35753     35754     35753     35755     35754     35755     35756     35757
     35756     35758     35757     35758     35759     35760     35759     35761
     35760     35761     35762     35763     35762     35764     35763     35764
     35765     35766     35765     35767     35766     35767     35768     35769
     35768     35770     35769     35770     35771     35772     35771     35773
     35772     35773     35774     35775     35774     35776     35775     35776
     35777     35778     35777     35779     35778     35779     35780     35781
     35780     35782     35781     35782     35783     35784     35783     35785
     35784     35785     35786     35787     35786     35788     35787     35788
     35789     35790     35789     35791     35790     35791     35792     35793
     35792     35794     35793     35794     35795     35796     35795     35797
     35796     35797     35798     35799     35798     35800     35799     35800
     35801     35802     35801     35803     35802     35803     35804     35805
     35804     35806     35805     35806     35807     35808     35807     35809
     35808     35809     35810     35811     35810     35812     35811     35812
     35813     35814     35813     35815     35814     35815     35816     35817
     35816     35818     35817     35818     35819     35820     35819     35821
     35820     35821     35822     35823     35822     35824     35823     35824
     35825     35826     35825     35827     35826     35827     35828     35829
     35828     35830     35829     35830     35831     35832     35831     35833
     35832     35833     35834     35835     35834     35836     35835     35836
     35837     35838     35837     35839     35838     35839     35840     35841
     35840     35842     35841     35842     35843     35844     35843     35845
     35844     35845     35846     35847     35846     35848     35847     35848
     35849     35850     35849     35851     35850     35851     35852     35853
     35852     35854     35853     35854     35855     35856     35855     35857
     35856     35857     35858     35859     35858     35860     35859     35860
     35861     35862     35861     35863     35862     35863     35864     35865
     35864     35866     35865     35866     35867     35868     35867     35869
     35868     35869     35870     35871     35870     35872     35871     35872
     35873     35874     35873     35875     35874     35875     35876     35877
     35876     35878     35877     35878     35879     35880     35879     35881
     35880     35881     35882     35883     35882     35884     35883     35884
     35885     35886     35885     35887     35886     35887     35888     35889
     35888     35890     35889     35890     35891     35892     35891     35893
     35892     35893     35894     35895     35894     35896     35895     35896
     35897     35898     35897     35899     35898     35899     35900     35901
     35900     35902     35901     35902     35903     35904     35903     35905
     35904     35905     35906     35907     35906     35908     35907     35908
     35909     35910     35909     35911     35910     35911     35912     35913
     35912     35914     35913     35914     35915     35916     35915     35917
     35916     35917     35918     35919     35918     35920     35919     35920
     35921     35922     35921     35923     35922     35923     35924     35925
     35924     35926     35925     35926     35927     35928     35927     35929
     35928     35929     35930     35931     35930     35932     35931     35932
     35933     35934     35933     35935     35934     35935     35936     35937
     35936     35938     35937     35938     35939     35940     35939     35941
     35940     35941     35942     35943     35942     35944     35943     35944
     35945     35946     35945     35947     35946     35947     35948     35949
     35948     35950     35949     35950     35951     35952     35951     35953
     35952     35953     35954     35955     35954     35956     35955     35956
     35957     35958     35957     35959     35958     35959     35960     35961
     35960     35962     35961     35962     35963     35964     35963     35965
     35964     35965     35966     35967     35966     35968     35967     35968
     35969     35970     35969     35971     35970     35971     35972     35973
     35972     35974     35973     35974     35975     35976     35975     35977
     35976     35977     35978     35979     35978     35980     35979     35980
     35981     35982     35981     35983     35982     35983     35984     35985
     35984     35986     35985     35986     35987     35988     35987     35989
     35988     35989     35990     35991     35990     35992     35991     35992
     35993     35994     35993     35995     35994     35995     35996     35997
     35996     35998     35997     35998     35999     36000     35999     36001
     36000     36001     36002     36003     36002     36004     36003     36004
     36005     36006     36005     36007     36006     36007     36008     36009
     36008     36010     36009     36010     36011     36012     36011     36013
     36012     36013     36014     36015     36014     36016     36015     36016
     36017     36018     36017     36019     36018     36019     36020     36021
     36020     36022     36021     36022     36023     36024     36023     36025
     36024     36025     36026     36027     36026     36028     36027     36028
     36029     36030     36029     36031     36030     36031     36032     36033
     36032     36034     36033     36034     36035     36036     36035     36037
     36036     36037     36038     36039     36038     36040     36039     36040
     36041     36042     36041     36043     36042     36043     36044     36045
     36044     36046     36045     36046     36047     36048     36047     36049
     36048     36049     36050     36051     36050     36052     36051     36052
     36053     36054     36053     36055     36054     36055     36056     36057
     36056     36058     36057     36058     36059     36060     36059     36061
     36060     36061     36062     36063     36062     36064     36063     36064
     36065     36066     36065     36067     36066     36067     36068     36069
     36068     36070     36069     36070     36071     36072     36071     36073
     36072     36073     36074     36075     36074     36076     36075     36076
     36077     36078     36077     36079     36078     36079     36080     36081
     36080     36082     36081     36082     36083     36084     36083     36085
     36084     36085     36086     36087     36086     36088     36087     36088
     36089     36090     36089     36091     36090     36091     36092     36093
     36092     36094     36093     36094     36095     36096     36095     36097
     36096     36097     36098     36099     36098     36100     36099     36100
     36101     36102     36101     36103     36102     36103     36104     36105
     36104     36106     36105     36106     36107     36108     36107     36109
     36108     36109     36110     36111     36110     36112     36111     36112
     36113     36114     36113     36115     36114     36115     36116     36117
     36116     36118     36117     36118     36119     36120     36119     36121
     36120     36121     36122     36123     36122     36124     36123     36124
     36125     36126     36125     36127     36126     36127     36128     36129
     36128     36130     36129     36130     36131     36132     36131     36133
     36132     36133     36134     36135     36134     36136     36135     36136
     36137     36138     36137     36139     36138     36139     36140     36141
     36140     36142     36141     36142     36143     36144     36143     36145
     36144     36145     36146     36147     36146     36148     36147     36148
     36149     36150     36149     36151     36150     36151     36152     36153
     36152     36154     36153     36154     36155     36156     36155     36157
     36156     36157     36158     36159     36158     36160     36159     36160
     36161     36162     36161     36163     36162     36163     36164     36165
     36164     36166     36165     36166     36167     36168     36167     36169
     36168     36169     36170     36171     36170     36172     36171     36172
     36173     36174     36173     36175     36174     36175     36176     36177
     36176     36178     36177     36178     36179     36180     36179     36181
     36180     36181     36182     36183     36182     36184     36183     36184
     36185     36186     36185     36187     36186     36187     36188     36189
     36188     36190     36189     36190     36191     36192     36191     36193
     36192     36193     36194     36195     36194     36196     36195     36196
     36197     36198     36197     36199     36198     36199     36200     36201
     36200     36202     36201     36202     36203     36204     36203     36205
     36204     36205     36206     36207     36206     36208     36207     36208
     36209     36210     36209     36211     36210     36211     36212     36213
     36212     36214     36213     36214     36215     36216     36215     36217
     36216     36217     36218     36219     36218     36220     36219     36220
     36221     36222     36221     36223     36222     36223     36224     36225
     36224     36226     36225     36226     36227     36228     36227     36229
     36228     36229     36230     36231     36230     36232     36231     36232
     36233     36234     36233     36235     36234     36235     36236     36237
     36236     36238     36237     36238     36239     36240     36239     36241
     36240     36241     36242     36243     36242     36244     36243     36244
     36245     36246     36245     36247     36246     36247     36248     36249
     36248     36250     36249     36250     36251     36252     36251     36253
     36252     36253     36254     36255     36254     36256     36255     36256
     36257     36258     36257     36259     36258     36259     36260     36261
     36260     36262     36261     36262     36263     36264     36263     36265
     36264     36265     36266     36267     36266     36268     36267     36268
     36269     36270     36269     36271     36270     36271     36272     36273
     36272     36274     36273     36274     36275     36276     36275     36277
     36276     36277     36278     36279     36278     36280     36279     36280
     36281     36282     36281     36283     36282     36283     36284     36285
     36284     36286     36285     36286     36287     36288     36287     36289
     36288     36289     36290     36291     36290     36292     36291     36292
     36293     36294     36293     36295     36294     36295     36296     36297
     36296     36298     36297     36298     36299     36300     36299     36301
     36300     36301     36302     36303     36302     36304     36303     36304
     36305     36306     36305     36307     36306     36307     36308     36309
     36308     36310     36309     36310     36311     36312     36311     36313
     36312     36313     36314     36315     36314     36316     36315     36316
     36317     36318     36317     36319     36318     36319     36320     36321
     36320     36322     36321     36322     36323     36324     36323     36325
     36324     36325     36326     36327     36326     36328     36327     36328
     36329     36330     36329     36331     36330     36331     36332     36333
     36332     36334     36333     36334     36335     36336     36335     36337
     36336     36337     36338     36339     36338     36340     36339     36340
     36341     36342     36341     36343     36342     36343     36344     36345
     36344     36346     36345     36346     36347     36348     36347     36349
     36348     36349     36350     36351     36350     36352     36351     36352
     36353     36354     36353     36355     36354     36355     36356     36357
     36356     36358     36357     36358     36359     36360     36359     36361
     36360     36361     36362     36363     36362     36364     36363     36364
     36365     36366     36365     36367     36366     36367     36368     36369
     36368     36370     36369     36370     36371     36372     36371     36373
     36372     36373     36374     36375     36374     36376     36375     36376
     36377     36378     36377     36379     36378     36379     36380     36381
     36380     36382     36381     36382     36383     36384     36383     36385
     36384     36385     36386     36387     36386     36388     36387     36388
     36389     36390     36389     36391     36390     36391     36392     36393
     36392     36394     36393     36394     36395     36396     36395     36397
     36396     36397     36398     36399     36398     36400     36399     36400
     36401     36402     36401     36403     36402     36403     36404     36405
     36404     36406     36405     36406     36407     36408     36407     36409
     36408     36409     36410     36411     36410     36412     36411     36412
     36413     36414     36413     36415     36414     36415     36416     36417
     36416     36418     36417     36418     36419     36420     36419     36421
     36420     36421     36422     36423     36422     36424     36423     36424
     36425     36426     36425     36427     36426     36427     36428     36429
     36428     36430     36429     36430     36431     36432     36431     36433
     36432     36433     36434     36435     36434     36436     36435     36436
     36437     36438     36437     36439     36438     36439     36440     36441
     36440     36442     36441     36442     36443     36444     36443     36445
     36444     36445     36446     36447     36446     36448     36447     36448
     36449     36450     36449     36451     36450     36451     36452     36453
     36452     36454     36453     36454     36455     36456     36455     36457
     36456     36457     36458     36459     36458     36460     36459     36460
     36461     36462     36461     36463     36462     36463     36464     36465
     36464     36466     36465     36466     36467     36468     36467     36469
     36468     36469     36470     36471     36470     36472     36471     36472
     36473     36474     36473     36475     36474     36475     36476     36477
     36476     36478     36477     36478     36479     36480     36479     36481
     36480     36481     36482     36483     36482     36484     36483     36484
     36485     36486     36485     36487     36486     36487     36488     36489
     36488     36490     36489     36490     36491     36492     36491     36493
     36492     36493     36494     36495     36494     36496     36495     36496
     36497     36498     36497     36499     36498     36499     36500     36501
     36500     36502     36501     36502     36503     36504     36503     36505
     36504     36505     36506     36507     36506     36508     36507     36508
     36509     36510     36509     36511     36510     36511     36512     36513
     36512     36514     36513     36514     36515     36516     36515     36517
     36516     36517     36518     36519     36518     36520     36519     36520
     36521     36522     36521     36523     36522     36523     36524     36525
     36524     36526     36525     36526     36527     36528     36527     36529
     36528     36529     36530     36531     36530     36532     36531     36532
     36533     36534     36533     36535     36534     36535     36536     36537
     36536     36538     36537     36538     36539     36540     36539     36541
     36540     36541     36542     36543     36542     36544     36543     36544
     36545     36546     36545     36547     36546     36547     36548     36549
     36548     36550     36549     36550     36551     36552     36551     36553
     36552     36553     36554     36555     36554     36556     36555     36556
     36557     36558     36557     36559     36558     36559     36560     36561
     36560     36562     36561     36562     36563     36564     36563     36565
     36564     36565     36566     36567     36566     36568     36567     36568
     36569     36570     36569     36571     36570     36571     36572     36573
     36572     36574     36573     36574     36575     36576     36575     36577
     36576     36577     36578     36579     36578     36580     36579     36580
     36581     36582     36581     36583     36582     36583     36584     36585
     36584     36586     36585     36586     36587     36588     36587     36589
     36588     36589     36590     36591     36590     36592     36591     36592
     36593     36594     36593     36595     36594     36595     36596     36597
     36596     36598     36597     36598     36599     36600     36599     36601
     36600     36601     36602     36603     36602     36604     36603     36604
     36605     36606     36605     36607     36606     36607     36608     36609
     36608     36610     36609     36610     36611     36612     36611     36613
     36612     36613     36614     36615     36614     36616     36615     36616
     36617     36618     36617     36619     36618     36619     36620     36621
     36620     36622     36621     36622     36623     36624     36623     36625
     36624     36625     36626     36627     36626     36628     36627     36628
     36629     36630     36629     36631     36630     36631     36632     36633
     36632     36634     36633     36634     36635     36636     36635     36637
     36636     36637     36638     36639     36638     36640     36639     36640
     36641     36642     36641     36643     36642     36643     36644     36645
     36644     36646     36645     36646     36647     36648     36647     36649
     36648     36649     36650     36651     36650     36652     36651     36652
     36653     36654     36653     36655     36654     36655     36656     36657
     36656     36658     36657     36658     36659     36660     36659     36661
     36660     36661     36662     36663     36662     36664     36663     36664
     36665     36666     36665     36667     36666     36667     36668     36669
     36668     36670     36669     36670     36671     36672     36671     36673
     36672     36673     36674     36675     36674     36676     36675     36676
     36677     36678     36677     36679     36678     36679     36680     36681
     36680     36682     36681     36682     36683     36684     36683     36685
     36684     36685     36686     36687     36686     36688     36687     36688
     36689     36690     36689     36691     36690     36691     36692     36693
     36692     36694     36693     36694     36695     36696     36695     36697
     36696     36697     36698     36699     36698     36700     36699     36700
     36701     36702     36701     36703     36702     36703     36704     36705
     36704     36706     36705     36706     36707     36708     36707     36709
     36708     36709     36710     36711     36710     36712     36711     36712
     36713     36714     36713     36715     36714     36715     36716     36717
     36716     36718     36717     36718     36719     36720     36719     36721
     36720     36721     36722     36723     36722     36724     36723     36724
     36725     36726     36725     36727     36726     36727     36728     36729
     36728     36730     36729     36730     36731     36732     36731     36733
     36732     36733     36734     36735     36734     36736     36735     36736
     36737     36738     36737     36739     36738     36739     36740     36741
     36740     36742     36741     36742     36743     36744     36743     36745
     36744     36745     36746     36747     36746     36748     36747     36748
     36749     36750     36749     36751     36750     36751     36752     36753
     36752     36754     36753     36754     36755     36756     36755     36757
     36756     36757     36758     36759     36758     36760     36759     36760
     36761     36762     36761     36763     36762     36763     36764     36765
     36764     36766     36765     36766     36767     36768     36767     36769
     36768     36769     36770     36771     36770     36772     36771     36772
     36773     36774     36773     36775     36774     36775     36776     36777
     36776     36778     36777     36778     36779     36780     36779     36781
     36780     36781     36782     36783     36782     36784     36783     36784
     36785     36786     36785     36787     36786     36787     36788     36789
     36788     36790     36789     36790     36791     36792     36791     36793
     36792     36793     36794     36795     36794     36796     36795     36796
     36797     36798     36797     36799     36798     36799     36800     36801
     36800     36802     36801     36802     36803     36804     36803     36805
     36804     36805     36806     36807     36806     36808     36807     36808
     36809     36810     36809     36811     36810     36811     36812     36813
     36812     36814     36813     36814     36815     36816     36815     36817
     36816     36817     36818     36819     36818     36820     36819     36820
     36821     36822     36821     36823     36822     36823     36824     36825
     36824     36826     36825     36826     36827     36828     36827     36829
     36828     36829     36830     36831     36830     36832     36831     36832
     36833     36834     36833     36835     36834     36835     36836     36837
     36836     36838     36837     36838     36839     36840     36839     36841
     36840     36841     36842     36843     36842     36844     36843     36844
     36845     36846     36845     36847     36846     36847     36848     36849
     36848     36850     36849     36850     36851     36852     36851     36853
     36852     36853     36854     36855     36854     36856     36855     36856
     36857     36858     36857     36859     36858     36859     36860     36861
     36860     36862     36861     36862     36863     36864     36863     36865
     36864     36865     36866     36867     36866     36868     36867     36868
     36869     36870     36869     36871     36870     36871     36872     36873
     36872     36874     36873     36874     36875     36876     36875     36877
     36876     36877     36878     36879     36878     36880     36879     36880
     36881     36882     36881     36883     36882     36883     36884     36885
     36884     36886     36885     36886     36887     36888     36887     36889
     36888     36889     36890     36891     36890     36892     36891     36892
     36893     36894     36893     36895     36894     36895     36896     36897
     36896     36898     36897     36898     36899     36900     36899     36901
     36900     36901     36902     36903     36902     36904     36903     36904
     36905     36906     36905     36907     36906     36907     36908     36909
     36908     36910     36909     36910     36911     36912     36911     36913
     36912     36913     36914     36915     36914     36916     36915     36916
     36917     36918     36917     36919     36918     36919     36920     36921
     36920     36922     36921     36922     36923     36924     36923     36925
     36924     36925     36926     36927     36926     36928     36927     36928
     36929     36930     36929     36931     36930     36931     36932     36933
     36932     36934     36933     36934     36935     36936     36935     36937
     36936     36937     36938     36939     36938     36940     36939     36940
     36941     36942     36941     36943     36942     36943     36944     36945
     36944     36946     36945     36946     36947     36948     36947     36949
     36948     36949     36950     36951     36950     36952     36951     36952
     36953     36954     36953     36955     36954     36955     36956     36957
     36956     36958     36957     36958     36959     36960     36959     36961
     36960     36961     36962     36963     36962     36964     36963     36964
     36965     36966     36965     36967     36966     36967     36968     36969
     36968     36970     36969     36970     36971     36972     36971     36973
     36972     36973     36974     36975     36974     36976     36975     36976
     36977     36978     36977     36979     36978     36979     36980     36981
     36980     36982     36981     36982     36983     36984     36983     36985
     36984     36985     36986     36987     36986     36988     36987     36988
     36989     36990     36989     36991     36990     36991     36992     36993
     36992     36994     36993     36994     36995     36996     36995     36997
     36996     36997     36998     36999     36998     37000     36999     37000
     37001     37002     37001     37003     37002     37003     37004     37005
     37004     37006     37005     37006     37007     37008     37007     37009
     37008     37009     37010     37011     37010     37012     37011     37012
     37013     37014     37013     37015     37014     37015     37016     37017
     37016     37018     37017     37018     37019     37020     37019     37021
     37020     37021     37022     37023     37022     37024     37023     37024
     37025     37026     37025     37027     37026     37027     37028     37029
     37028     37030     37029     37030     37031     37032     37031     37033
     37032     37033     37034     37035     37034     37036     37035     37036
     37037     37038     37037     37039     37038     37039     37040     37041
     37040     37042     37041     37042     37043     37044     37043     37045
     37044     37045     37046     37047     37046     37048     37047     37048
     37049     37050     37049     37051     37050     37051     37052     37053
     37052     37054     37053     37054     37055     37056     37055     37057
     37056     37057     37058     37059     37058     37060     37059     37060
     37061     37062     37061     37063     37062     37063     37064     37065
     37064     37066     37065     37066     37067     37068     37067     37069
     37068     37069     37070     37071     37070     37072     37071     37072
     37073     37074     37073     37075     37074     37075     37076     37077
     37076     37078     37077     37078     37079     37080     37079     37081
     37080     37081     37082     37083     37082     37084     37083     37084
     37085     37086     37085     37087     37086     37087     37088     37089
     37088     37090     37089     37090     37091     37092     37091     37093
     37092     37093     37094     37095     37094     37096     37095     37096
     37097     37098     37097     37099     37098     37099     37100     37101
     37100     37102     37101     37102     37103     37104     37103     37105
     37104     37105     37106     37107     37106     37108     37107     37108
     37109     37110     37109     37111     37110     37111     37112     37113
     37112     37114     37113     37114     37115     37116     37115     37117
     37116     37117     37118     37119     37118     37120     37119     37120
     37121     37122     37121     37123     37122     37123     37124     37125
     37124     37126     37125     37126     37127     37128     37127     37129
     37128     37129     37130     37131     37130     37132     37131     37132
     37133     37134     37133     37135     37134     37135     37136     37137
     37136     37138     37137     37138     37139     37140     37139     37141
     37140     37141     37142     37143     37142     37144     37143     37144
     37145     37146     37145     37147     37146     37147     37148     37149
     37148     37150     37149     37150     37151     37152     37151     37153
     37152     37153     37154     37155     37154     37156     37155     37156
     37157     37158     37157     37159     37158     37159     37160     37161
     37160     37162     37161     37162     37163     37164     37163     37165
     37164     37165     37166     37167     37166     37168     37167     37168
     37169     37170     37169     37171     37170     37171     37172     37173
     37172     37174     37173     37174     37175     37176     37175     37177
     37176     37177     37178     37179     37178     37180     37179     37180
     37181     37182     37181     37183     37182     37183     37184     37185
     37184     37186     37185     37186     37187     37188     37187     37189
     37188     37189     37190     37191     37190     37192     37191     37192
     37193     37194     37193     37195     37194     37195     37196     37197
     37196     37198     37197     37198     37199     37200     37199     37201
     37200     37201     37202     37203     37202     37204     37203     37204
     37205     37206     37205     37207     37206     37207     37208     37209
     37208     37210     37209     37210     37211     37212     37211     37213
     37212     37213     37214     37215     37214     37216     37215     37216
     37217     37218     37217     37219     37218     37219     37220     37221
     37220     37222     37221     37222     37223     37224     37223     37225
     37224     37225     37226     37227     37226     37228     37227     37228
     37229     37230     37229     37231     37230     37231     37232     37233
     37232     37234     37233     37234     37235     37236     37235     37237
     37236     37237     37238     37239     37238     37240     37239     37240
     37241     37242     37241     37243     37242     37243     37244     37245
     37244     37246     37245     37246     37247     37248     37247     37249
     37248     37249     37250     37251     37250     37252     37251     37252
     37253     37254     37253     37255     37254     37255     37256     37257
     37256     37258     37257     37258     37259     37260     37259     37261
     37260     37261     37262     37263     37262     37264     37263     37264
     37265     37266     37265     37267     37266     37267     37268     37269
     37268     37270     37269     37270     37271     37272     37271     37273
     37272     37273     37274     37275     37274     37276     37275     37276
     37277     37278     37277     37279     37278     37279     37280     37281
     37280     37282     37281     37282     37283     37284     37283     37285
     37284     37285     37286     37287     37286     37288     37287     37288
     37289     37290     37289     37291     37290     37291     37292     37293
     37292     37294     37293     37294     37295     37296     37295     37297
     37296     37297     37298     37299     37298     37300     37299     37300
     37301     37302     37301     37303     37302     37303     37304     37305
     37304     37306     37305     37306     37307     37308     37307     37309
     37308     37309     37310     37311     37310     37312     37311     37312
     37313     37314     37313     37315     37314     37315     37316     37317
     37316     37318     37317     37318     37319     37320     37319     37321
     37320     37321     37322     37323     37322     37324     37323     37324
     37325     37326     37325     37327     37326     37327     37328     37329
     37328     37330     37329     37330     37331     37332     37331     37333
     37332     37333     37334     37335     37334     37336     37335     37336
     37337     37338     37337     37339     37338     37339     37340     37341
     37340     37342     37341     37342     37343     37344     37343     37345
     37344     37345     37346     37347     37346     37348     37347     37348
     37349     37350     37349     37351     37350     37351     37352     37353
     37352     37354     37353     37354     37355     37356     37355     37357
     37356     37357     37358     37359     37358     37360     37359     37360
     37361     37362     37361     37363     37362     37363     37364     37365
     37364     37366     37365     37366     37367     37368     37367     37369
     37368     37369     37370     37371     37370     37372     37371     37372
     37373     37374     37373     37375     37374     37375     37376     37377
     37376     37378     37377     37378     37379     37380     37379     37381
     37380     37381     37382     37383     37382     37384     37383     37384
     37385     37386     37385     37387     37386     37387     37388     37389
     37388     37390     37389     37390     37391     37392     37391     37393
     37392     37393     37394     37395     37394     37396     37395     37396
     37397     37398     37397     37399     37398     37399     37400     37401
     37400     37402     37401     37402     37403     37404     37403     37405
     37404     37405     37406     37407     37406     37408     37407     37408
     37409     37410     37409     37411     37410     37411     37412     37413
     37412     37414     37413     37414     37415     37416     37415     37417
     37416     37417     37418     37419     37418     37420     37419     37420
     37421     37422     37421     37423     37422     37423     37424     37425
     37424     37426     37425     37426     37427     37428     37427     37429
     37428     37429     37430     37431     37430     37432     37431     37432
     37433     37434     37433     37435     37434     37435     37436     37437
     37436     37438     37437     37438     37439     37440     37439     37441
     37440     37441     37442     37443     37442     37444     37443     37444
     37445     37446     37445     37447     37446     37447     37448     37449
     37448     37450     37449     37450     37451     37452     37451     37453
     37452     37453     37454     37455     37454     37456     37455     37456
     37457     37458     37457     37459     37458     37459     37460     37461
     37460     37462     37461     37462     37463     37464     37463     37465
     37464     37465     37466     37467     37466     37468     37467     37468
     37469     37470     37469     37471     37470     37471     37472     37473
     37472     37474     37473     37474     37475     37476     37475     37477
     37476     37477     37478     37479     37478     37480     37479     37480
     37481     37482     37481     37483     37482     37483     37484     37485
     37484     37486     37485     37486     37487     37488     37487     37489
     37488     37489     37490     37491     37490     37492     37491     37492
     37493     37494     37493     37495     37494     37495     37496     37497
     37496     37498     37497     37498     37499     37500     37499     37501
     37500     37501     37502     37503     37502     37504     37503     37504
     37505     37506     37505     37507     37506     37507     37508     37509
     37508     37510     37509     37510     37511     37512     37511     37513
     37512     37513     37514     37515     37514     37516     37515     37516
     37517     37518     37517     37519     37518     37519     37520     37521
     37520     37522     37521     37522     37523     37524     37523     37525
     37524     37525     37526     37527     37526     37528     37527     37528
     37529     37530     37529     37531     37530     37531     37532     37533
     37532     37534     37533     37534     37535     37536     37535     37537
     37536     37537     37538     37539     37538     37540     37539     37540
     37541     37542     37541     37543     37542     37543     37544     37545
     37544     37546     37545     37546     37547     37548     37547     37549
     37548     37549     37550     37551     37550     37552     37551     37552
     37553     37554     37553     37555     37554     37555     37556     37557
     37556     37558     37557     37558     37559     37560     37559     37561
     37560     37561     37562     37563     37562     37564     37563     37564
     37565     37566     37565     37567     37566     37567     37568     37569
     37568     37570     37569     37570     37571     37572     37571     37573
     37572     37573     37574     37575     37574     37576     37575     37576
     37577     37578     37577     37579     37578     37579     37580     37581
     37580     37582     37581     37582     37583     37584     37583     37585
     37584     37585     37586     37587     37586     37588     37587     37588
     37589     37590     37589     37591     37590     37591     37592     37593
     37592     37594     37593     37594     37595     37596     37595     37597
     37596     37597     37598     37599     37598     37600     37599     37600
     37601     37602     37601     37603     37602     37603     37604     37605
     37604     37606     37605     37606     37607     37608     37607     37609
     37608     37609     37610     37611     37610     37612     37611     37612
     37613     37614     37613     37615     37614     37615     37616     37617
     37616     37618     37617     37618     37619     37620     37619     37621
     37620     37621     37622     37623     37622     37624     37623     37624
     37625     37626     37625     37627     37626     37627     37628     37629
     37628     37630     37629     37630     37631     37632     37631     37633
     37632     37633     37634     37635     37634     37636     37635     37636
     37637     37638     37637     37639     37638     37639     37640     37641
     37640     37642     37641     37642     37643     37644     37643     37645
     37644     37645     37646     37647     37646     37648     37647     37648
     37649     37650     37649     37651     37650     37651     37652     37653
     37652     37654     37653     37654     37655     37656     37655     37657
     37656     37657     37658     37659     37658     37660     37659     37660
     37661     37662     37661     37663     37662     37663     37664     37665
     37664     37666     37665     37666     37667     37668     37667     37669
     37668     37669     37670     37671     37670     37672     37671     37672
     37673     37674     37673     37675     37674     37675     37676     37677
     37676     37678     37677     37678     37679     37680     37679     37681
     37680     37681     37682     37683     37682     37684     37683     37684
     37685     37686     37685     37687     37686     37687     37688     37689
     37688     37690     37689     37690     37691     37692     37691     37693
     37692     37693     37694     37695     37694     37696     37695     37696
     37697     37698     37697     37699     37698     37699     37700     37701
     37700     37702     37701     37702     37703     37704     37703     37705
     37704     37705     37706     37707     37706     37708     37707     37708
     37709     37710     37709     37711     37710     37711     37712     37713
     37712     37714     37713     37714     37715     37716     37715     37717
     37716     37717     37718     37719     37718     37720     37719     37720
     37721     37722     37721     37723     37722     37723     37724     37725
     37724     37726     37725     37726     37727     37728     37727     37729
     37728     37729     37730     37731     37730     37732     37731     37732
     37733     37734     37733     37735     37734     37735     37736     37737
     37736     37738     37737     37738     37739     37740     37739     37741
     37740     37741     37742     37743     37742     37744     37743     37744
     37745     37746     37745     37747     37746     37747     37748     37749
     37748     37750     37749     37750     37751     37752     37751     37753
     37752     37753     37754     37755     37754     37756     37755     37756
     37757     37758     37757     37759     37758     37759     37760     37761
     37760     37762     37761     37762     37763     37764     37763     37765
     37764     37765     37766     37767     37766     37768     37767     37768
     37769     37770     37769     37771     37770     37771     37772     37773
     37772     37774     37773     37774     37775     37776     37775     37777
     37776     37777     37778     37779     37778     37780     37779     37780
     37781     37782     37781     37783     37782     37783     37784     37785
     37784     37786     37785     37786     37787     37788     37787     37789
     37788     37789     37790     37791     37790     37792     37791     37792
     37793     37794     37793     37795     37794     37795     37796     37797
     37796     37798     37797     37798     37799     37800     37799     37801
     37800     37801     37802     37803     37802     37804     37803     37804
     37805     37806     37805     37807     37806     37807     37808     37809
     37808     37810     37809     37810     37811     37812     37811     37813
     37812     37813     37814     37815     37814     37816     37815     37816
     37817     37818     37817     37819     37818     37819     37820     37821
     37820     37822     37821     37822     37823     37824     37823     37825
     37824     37825     37826     37827     37826     37828     37827     37828
     37829     37830     37829     37831     37830     37831     37832     37833
     37832     37834     37833     37834     37835     37836     37835     37837
     37836     37837     37838     37839     37838     37840     37839     37840
     37841     37842     37841     37843     37842     37843     37844     37845
     37844     37846     37845     37846     37847     37848     37847     37849
     37848     37849     37850     37851     37850     37852     37851     37852
     37853     37854     37853     37855     37854     37855     37856     37857
     37856     37858     37857     37858     37859     37860     37859     37861
     37860     37861     37862     37863     37862     37864     37863     37864
     37865     37866     37865     37867     37866     37867     37868     37869
     37868     37870     37869     37870     37871     37872     37871     37873
     37872     37873     37874     37875     37874     37876     37875     37876
     37877     37878     37877     37879     37878     37879     37880     37881
     37880     37882     37881     37882     37883     37884     37883     37885
     37884     37885     37886     37887     37886     37888     37887     37888
     37889     37890     37889     37891     37890     37891     37892     37893
     37892     37894     37893     37894     37895     37896     37895     37897
     37896     37897     37898     37899     37898     37900     37899     37900
     37901     37902     37901     37903     37902     37903     37904     37905
     37904     37906     37905     37906     37907     37908     37907     37909
     37908     37909     37910     37911     37910     37912     37911     37912
     37913     37914     37913     37915     37914     37915     37916     37917
     37916     37918     37917     37918     37919     37920     37919     37921
     37920     37921     37922     37923     37922     37924     37923     37924
     37925     37926     37925     37927     37926     37927     37928     37929
     37928     37930     37929     37930     37931     37932     37931     37933
     37932     37933     37934     37935     37934     37936     37935     37936
     37937     37938     37937     37939     37938     37939     37940     37941
     37940     37942     37941     37942     37943     37944     37943     37945
     37944     37945     37946     37947     37946     37948     37947     37948
     37949     37950     37949     37951     37950     37951     37952     37953
     37952     37954     37953     37954     37955     37956     37955     37957
     37956     37957     37958     37959     37958     37960     37959     37960
     37961     37962     37961     37963     37962     37963     37964     37965
     37964     37966     37965     37966     37967     37968     37967     37969
     37968     37969     37970     37971     37970     37972     37971     37972
     37973     37974     37973     37975     37974     37975     37976     37977
     37976     37978     37977     37978     37979     37980     37979     37981
     37980     37981     37982     37983     37982     37984     37983     37984
     37985     37986     37985     37987     37986     37987     37988     37989
     37988     37990     37989     37990     37991     37992     37991     37993
     37992     37993     37994     37995     37994     37996     37995     37996
     37997     37998     37997     37999     37998     37999     38000     38001
     38000     38002     38001     38002     38003     38004     38003     38005
     38004     38005     38006     38007     38006     38008     38007     38008
     38009     38010     38009     38011     38010     38011     38012     38013
     38012     38014     38013     38014     38015     38016     38015     38017
     38016     38017     38018     38019     38018     38020     38019     38020
     38021     38022     38021     38023     38022     38023     38024     38025
     38024     38026     38025     38026     38027     38028     38027     38029
     38028     38029     38030     38031     38030     38032     38031     38032
     38033     38034     38033     38035     38034     38035     38036     38037
     38036     38038     38037     38038     38039     38040     38039     38041
     38040     38041     38042     38043     38042     38044     38043     38044
     38045     38046     38045     38047     38046     38047     38048     38049
     38048     38050     38049     38050     38051     38052     38051     38053
     38052     38053     38054     38055     38054     38056     38055     38056
     38057     38058     38057     38059     38058     38059     38060     38061
     38060     38062     38061     38062     38063     38064     38063     38065
     38064     38065     38066     38067     38066     38068     38067     38068
     38069     38070     38069     38071     38070     38071     38072     38073
     38072     38074     38073     38074     38075     38076     38075     38077
     38076     38077     38078     38079     38078     38080     38079     38080
     38081     38082     38081     38083     38082     38083     38084     38085
     38084     38086     38085     38086     38087     38088     38087     38089
     38088     38089     38090     38091     38090     38092     38091     38092
     38093     38094     38093     38095     38094     38095     38096     38097
     38096     38098     38097     38098     38099     38100     38099     38101
     38100     38101     38102     38103     38102     38104     38103     38104
     38105     38106     38105     38107     38106     38107     38108     38109
     38108     38110     38109     38110     38111     38112     38111     38113
     38112     38113     38114     38115     38114     38116     38115     38116
     38117     38118     38117     38119     38118     38119     38120     38121
     38120     38122     38121     38122     38123     38124     38123     38125
     38124     38125     38126     38127     38126     38128     38127     38128
     38129     38130     38129     38131     38130     38131     38132     38133
     38132     38134     38133     38134     38135     38136     38135     38137
     38136     38137     38138     38139     38138     38140     38139     38140
     38141     38142     38141     38143     38142     38143     38144     38145
     38144     38146     38145     38146     38147     38148     38147     38149
     38148     38149     38150     38151     38150     38152     38151     38152
     38153     38154     38153     38155     38154     38155     38156     38157
     38156     38158     38157     38158     38159     38160     38159     38161
     38160     38161     38162     38163     38162     38164     38163     38164
     38165     38166     38165     38167     38166     38167     38168     38169
     38168     38170     38169     38170     38171     38172     38171     38173
     38172     38173     38174     38175     38174     38176     38175     38176
     38177     38178     38177     38179     38178     38179     38180     38181
     38180     38182     38181     38182     38183     38184     38183     38185
     38184     38185     38186     38187     38186     38188     38187     38188
     38189     38190     38189     38191     38190     38191     38192     38193
     38192     38194     38193     38194     38195     38196     38195     38197
     38196     38197     38198     38199     38198     38200     38199     38200
     38201     38202     38201     38203     38202     38203     38204     38205
     38204     38206     38205     38206     38207     38208     38207     38209
     38208     38209     38210     38211     38210     38212     38211     38212
     38213     38214     38213     38215     38214     38215     38216     38217
     38216     38218     38217     38218     38219     38220     38219     38221
     38220     38221     38222     38223     38222     38224     38223     38224
     38225     38226     38225     38227     38226     38227     38228     38229
     38228     38230     38229     38230     38231     38232     38231     38233
     38232     38233     38234     38235     38234     38236     38235     38236
     38237     38238     38237     38239     38238     38239     38240     38241
     38240     38242     38241     38242     38243     38244     38243     38245
     38244     38245     38246     38247     38246     38248     38247     38248
     38249     38250     38249     38251     38250     38251     38252     38253
     38252     38254     38253     38254     38255     38256     38255     38257
     38256     38257     38258     38259     38258     38260     38259     38260
     38261     38262     38261     38263     38262     38263     38264     38265
     38264     38266     38265     38266     38267     38268     38267     38269
     38268     38269     38270     38271     38270     38272     38271     38272
     38273     38274     38273     38275     38274     38275     38276     38277
     38276     38278     38277     38278     38279     38280     38279     38281
     38280     38281     38282     38283     38282     38284     38283     38284
     38285     38286     38285     38287     38286     38287     38288     38289
     38288     38290     38289     38290     38291     38292     38291     38293
     38292     38293     38294     38295     38294     38296     38295     38296
     38297     38298     38297     38299     38298     38299     38300     38301
     38300     38302     38301     38302     38303     38304     38303     38305
     38304     38305     38306     38307     38306     38308     38307     38308
     38309     38310     38309     38311     38310     38311     38312     38313
     38312     38314     38313     38314     38315     38316     38315     38317
     38316     38317     38318     38319     38318     38320     38319     38320
     38321     38322     38321     38323     38322     38323     38324     38325
     38324     38326     38325     38326     38327     38328     38327     38329
     38328     38329     38330     38331     38330     38332     38331     38332
     38333     38334     38333     38335     38334     38335     38336     38337
     38336     38338     38337     38338     38339     38340     38339     38341
     38340     38341     38342     38343     38342     38344     38343     38344
     38345     38346     38345     38347     38346     38347     38348     38349
     38348     38350     38349     38350     38351     38352     38351     38353
     38352     38353     38354     38355     38354     38356     38355     38356
     38357     38358     38357     38359     38358     38359     38360     38361
     38360     38362     38361     38362     38363     38364     38363     38365
     38364     38365     38366     38367     38366     38368     38367     38368
     38369     38370     38369     38371     38370     38371     38372     38373
     38372     38374     38373     38374     38375     38376     38375     38377
     38376     38377     38378     38379     38378     38380     38379     38380
     38381     38382     38381     38383     38382     38383     38384     38385
     38384     38386     38385     38386     38387     38388     38387     38389
     38388     38389     38390     38391     38390     38392     38391     38392
     38393     38394     38393     38395     38394     38395     38396     38397
     38396     38398     38397     38398     38399     38400     38399     38401
     38400     38401     38402     38403     38402     38404     38403     38404
     38405     38406     38405     38407     38406     38407     38408     38409
     38408     38410     38409     38410     38411     38412     38411     38413
     38412     38413     38414     38415     38414     38416     38415     38416
     38417     38418     38417     38419     38418     38419     38420     38421
     38420     38422     38421     38422     38423     38424     38423     38425
     38424     38425     38426     38427     38426     38428     38427     38428
     38429     38430     38429     38431     38430     38431     38432     38433
     38432     38434     38433     38434     38435     38436     38435     38437
     38436     38437     38438     38439     38438     38440     38439     38440
     38441     38442     38441     38443     38442     38443     38444     38445
     38444     38446     38445     38446     38447     38448     38447     38449
     38448     38449     38450     38451     38450     38452     38451     38452
     38453     38454     38453     38455     38454     38455     38456     38457
     38456     38458     38457     38458     38459     38460     38459     38461
     38460     38461     38462     38463     38462     38464     38463     38464
     38465     38466     38465     38467     38466     38467     38468     38469
     38468     38470     38469     38470     38471     38472     38471     38473
     38472     38473     38474     38475     38474     38476     38475     38476
     38477     38478     38477     38479     38478     38479     38480     38481
     38480     38482     38481     38482     38483     38484     38483     38485
     38484     38485     38486     38487     38486     38488     38487     38488
     38489     38490     38489     38491     38490     38491     38492     38493
     38492     38494     38493     38494     38495     38496     38495     38497
     38496     38497     38498     38499     38498     38500     38499     38500
     38501     38502     38501     38503     38502     38503     38504     38505
     38504     38506     38505     38506     38507     38508     38507     38509
     38508     38509     38510     38511     38510     38512     38511     38512
     38513     38514     38513     38515     38514     38515     38516     38517
     38516     38518     38517     38518     38519     38520     38519     38521
     38520     38521     38522     38523     38522     38524     38523     38524
     38525     38526     38525     38527     38526     38527     38528     38529
     38528     38530     38529     38530     38531     38532     38531     38533
     38532     38533     38534     38535     38534     38536     38535     38536
     38537     38538     38537     38539     38538     38539     38540     38541
     38540     38542     38541     38542     38543     38544     38543     38545
     38544     38545     38546     38547     38546     38548     38547     38548
     38549     38550     38549     38551     38550     38551     38552     38553
     38552     38554     38553     38554     38555     38556     38555     38557
     38556     38557     38558     38559     38558     38560     38559     38560
     38561     38562     38561     38563     38562     38563     38564     38565
     38564     38566     38565     38566     38567     38568     38567     38569
     38568     38569     38570     38571     38570     38572     38571     38572
     38573     38574     38573     38575     38574     38575     38576     38577
     38576     38578     38577     38578     38579     38580     38579     38581
     38580     38581     38582     38583     38582     38584     38583     38584
     38585     38586     38585     38587     38586     38587     38588     38589
     38588     38590     38589     38590     38591     38592     38591     38593
     38592     38593     38594     38595     38594     38596     38595     38596
     38597     38598     38597     38599     38598     38599     38600     38601
     38600     38602     38601     38602     38603     38604     38603     38605
     38604     38605     38606     38607     38606     38608     38607     38608
     38609     38610     38609     38611     38610     38611     38612     38613
     38612     38614     38613     38614     38615     38616     38615     38617
     38616     38617     38618     38619     38618     38620     38619     38620
     38621     38622     38621     38623     38622     38623     38624     38625
     38624     38626     38625     38626     38627     38628     38627     38629
     38628     38629     38630     38631     38630     38632     38631     38632
     38633     38634     38633     38635     38634     38635     38636     38637
     38636     38638     38637     38638     38639     38640     38639     38641
     38640     38641     38642     38643     38642     38644     38643     38644
     38645     38646     38645     38647     38646     38647     38648     38649
     38648     38650     38649     38650     38651     38652     38651     38653
     38652     38653     38654     38655     38654     38656     38655     38656
     38657     38658     38657     38659     38658     38659     38660     38661
     38660     38662     38661     38662     38663     38664     38663     38665
     38664     38665     38666     38667     38666     38668     38667     38668
     38669     38670     38669     38671     38670     38671     38672     38673
     38672     38674     38673     38674     38675     38676     38675     38677
     38676     38677     38678     38679     38678     38680     38679     38680
     38681     38682     38681     38683     38682     38683     38684     38685
     38684     38686     38685     38686     38687     38688     38687     38689
     38688     38689     38690     38691     38690     38692     38691     38692
     38693     38694     38693     38695     38694     38695     38696     38697
     38696     38698     38697     38698     38699     38700     38699     38701
     38700     38701     38702     38703     38702     38704     38703     38704
     38705     38706     38705     38707     38706     38707     38708     38709
     38708     38710     38709     38710     38711     38712     38711     38713
     38712     38713     38714     38715     38714     38716     38715     38716
     38717     38718     38717     38719     38718     38719     38720     38721
     38720     38722     38721     38722     38723     38724     38723     38725
     38724     38725     38726     38727     38726     38728     38727     38728
     38729     38730     38729     38731     38730     38731     38732     38733
     38732     38734     38733     38734     38735     38736     38735     38737
     38736     38737     38738     38739     38738     38740     38739     38740
     38741     38742     38741     38743     38742     38743     38744     38745
     38744     38746     38745     38746     38747     38748     38747     38749
     38748     38749     38750     38751     38750     38752     38751     38752
     38753     38754     38753     38755     38754     38755     38756     38757
     38756     38758     38757     38758     38759     38760     38759     38761
     38760     38761     38762     38763     38762     38764     38763     38764
     38765     38766     38765     38767     38766     38767     38768     38769
     38768     38770     38769     38770     38771     38772     38771     38773
     38772     38773     38774     38775     38774     38776     38775     38776
     38777     38778     38777     38779     38778     38779     38780     38781
     38780     38782     38781     38782     38783     38784     38783     38785
     38784     38785     38786     38787     38786     38788     38787     38788
     38789     38790     38789     38791     38790     38791     38792     38793
     38792     38794     38793     38794     38795     38796     38795     38797
     38796     38797     38798     38799     38798     38800     38799     38800
     38801     38802     38801     38803     38802     38803     38804     38805
     38804     38806     38805     38806     38807     38808     38807     38809
     38808     38809     38810     38811     38810     38812     38811     38812
     38813     38814     38813     38815     38814     38815     38816     38817
     38816     38818     38817     38818     38819     38820     38819     38821
     38820     38821     38822     38823     38822     38824     38823     38824
     38825     38826     38825     38827     38826     38827     38828     38829
     38828     38830     38829     38830     38831     38832     38831     38833
     38832     38833     38834     38835     38834     38836     38835     38836
     38837     38838     38837     38839     38838     38839     38840     38841
     38840     38842     38841     38842     38843     38844     38843     38845
     38844     38845     38846     38847     38846     38848     38847     38848
     38849     38850     38849     38851     38850     38851     38852     38853
     38852     38854     38853     38854     38855     38856     38855     38857
     38856     38857     38858     38859     38858     38860     38859     38860
     38861     38862     38861     38863     38862     38863     38864     38865
     38864     38866     38865     38866     38867     38868     38867     38869
     38868     38869     38870     38871     38870     38872     38871     38872
     38873     38874     38873     38875     38874     38875     38876     38877
     38876     38878     38877     38878     38879     38880     38879     38881
     38880     38881     38882     38883     38882     38884     38883     38884
     38885     38886     38885     38887     38886     38887     38888     38889
     38888     38890     38889     38890     38891     38892     38891     38893
     38892     38893     38894     38895     38894     38896     38895     38896
     38897     38898     38897     38899     38898     38899     38900     38901
     38900     38902     38901     38902     38903     38904     38903     38905
     38904     38905     38906     38907     38906     38908     38907     38908
     38909     38910     38909     38911     38910     38911     38912     38913
     38912     38914     38913     38914     38915     38916     38915     38917
     38916     38917     38918     38919     38918     38920     38919     38920
     38921     38922     38921     38923     38922     38923     38924     38925
     38924     38926     38925     38926     38927     38928     38927     38929
     38928     38929     38930     38931     38930     38932     38931     38932
     38933     38934     38933     38935     38934     38935     38936     38937
     38936     38938     38937     38938     38939     38940     38939     38941
     38940     38941     38942     38943     38942     38944     38943     38944
     38945     38946     38945     38947     38946     38947     38948     38949
     38948     38950     38949     38950     38951     38952     38951     38953
     38952     38953     38954     38955     38954     38956     38955     38956
     38957     38958     38957     38959     38958     38959     38960     38961
     38960     38962     38961     38962     38963     38964     38963     38965
     38964     38965     38966     38967     38966     38968     38967     38968
     38969     38970     38969     38971     38970     38971     38972     38973
     38972     38974     38973     38974     38975     38976     38975     38977
     38976     38977     38978     38979     38978     38980     38979     38980
     38981     38982     38981     38983     38982     38983     38984     38985
     38984     38986     38985     38986     38987     38988     38987     38989
     38988     38989     38990     38991     38990     38992     38991     38992
     38993     38994     38993     38995     38994     38995     38996     38997
     38996     38998     38997     38998     38999     39000     38999     39001
     39000     39001     39002     39003     39002     39004     39003     39004
     39005     39006     39005     39007     39006     39007     39008     39009
     39008     39010     39009     39010     39011     39012     39011     39013
     39012     39013     39014     39015     39014     39016     39015     39016
     39017     39018     39017     39019     39018     39019     39020     39021
     39020     39022     39021     39022     39023     39024     39023     39025
     39024     39025     39026     39027     39026     39028     39027     39028
     39029     39030     39029     39031     39030     39031     39032     39033
     39032     39034     39033     39034     39035     39036     39035     39037
     39036     39037     39038     39039     39038     39040     39039     39040
     39041     39042     39041     39043     39042     39043     39044     39045
     39044     39046     39045     39046     39047     39048     39047     39049
     39048     39049     39050     39051     39050     39052     39051     39052
     39053     39054     39053     39055     39054     39055     39056     39057
     39056     39058     39057     39058     39059     39060     39059     39061
     39060     39061     39062     39063     39062     39064     39063     39064
     39065     39066     39065     39067     39066     39067     39068     39069
     39068     39070     39069     39070     39071     39072     39071     39073
     39072     39073     39074     39075     39074     39076     39075     39076
     39077     39078     39077     39079     39078     39079     39080     39081
     39080     39082     39081     39082     39083     39084     39083     39085
     39084     39085     39086     39087     39086     39088     39087     39088
     39089     39090     39089     39091     39090     39091     39092     39093
     39092     39094     39093     39094     39095     39096     39095     39097
     39096     39097     39098     39099     39098     39100     39099     39100
     39101     39102     39101     39103     39102     39103     39104     39105
     39104     39106     39105     39106     39107     39108     39107     39109
     39108     39109     39110     39111     39110     39112     39111     39112
     39113     39114     39113     39115     39114     39115     39116     39117
     39116     39118     39117     39118     39119     39120     39119     39121
     39120     39121     39122     39123     39122     39124     39123     39124
     39125     39126     39125     39127     39126     39127     39128     39129
     39128     39130     39129     39130     39131     39132     39131     39133
     39132     39133     39134     39135     39134     39136     39135     39136
     39137     39138     39137     39139     39138     39139     39140     39141
     39140     39142     39141     39142     39143     39144     39143     39145
     39144     39145     39146     39147     39146     39148     39147     39148
     39149     39150     39149     39151     39150     39151     39152     39153
     39152     39154     39153     39154     39155     39156     39155     39157
     39156     39157     39158     39159     39158     39160     39159     39160
     39161     39162     39161     39163     39162     39163     39164     39165
     39164     39166     39165     39166     39167     39168     39167     39169
     39168     39169     39170     39171     39170     39172     39171     39172
     39173     39174     39173     39175     39174     39175     39176     39177
     39176     39178     39177     39178     39179     39180     39179     39181
     39180     39181     39182     39183     39182     39184     39183     39184
     39185     39186     39185     39187     39186     39187     39188     39189
     39188     39190     39189     39190     39191     39192     39191     39193
     39192     39193     39194     39195     39194     39196     39195     39196
     39197     39198     39197     39199     39198     39199     39200     39201
     39200     39202     39201     39202     39203     39204     39203     39205
     39204     39205     39206     39207     39206     39208     39207     39208
     39209     39210     39209     39211     39210     39211     39212     39213
     39212     39214     39213     39214     39215     39216     39215     39217
     39216     39217     39218     39219     39218     39220     39219     39220
     39221     39222     39221     39223     39222     39223     39224     39225
     39224     39226     39225     39226     39227     39228     39227     39229
     39228     39229     39230     39231     39230     39232     39231     39232
     39233     39234     39233     39235     39234     39235     39236     39237
     39236     39238     39237     39238     39239     39240     39239     39241
     39240     39241     39242     39243     39242     39244     39243     39244
     39245     39246     39245     39247     39246     39247     39248     39249
     39248     39250     39249     39250     39251     39252     39251     39253
     39252     39253     39254     39255     39254     39256     39255     39256
     39257     39258     39257     39259     39258     39259     39260     39261
     39260     39262     39261     39262     39263     39264     39263     39265
     39264     39265     39266     39267     39266     39268     39267     39268
     39269     39270     39269     39271     39270     39271     39272     39273
     39272     39274     39273     39274     39275     39276     39275     39277
     39276     39277     39278     39279     39278     39280     39279     39280
     39281     39282     39281     39283     39282     39283     39284     39285
     39284     39286     39285     39286     39287     39288     39287     39289
     39288     39289     39290     39291     39290     39292     39291     39292
     39293     39294     39293     39295     39294     39295     39296     39297
     39296     39298     39297     39298     39299     39300     39299     39301
     39300     39301     39302     39303     39302     39304     39303     39304
     39305     39306     39305     39307     39306     39307     39308     39309
     39308     39310     39309     39310     39311     39312     39311     39313
     39312     39313     39314     39315     39314     39316     39315     39316
     39317     39318     39317     39319     39318     39319     39320     39321
     39320     39322     39321     39322     39323     39324     39323     39325
     39324     39325     39326     39327     39326     39328     39327     39328
     39329     39330     39329     39331     39330     39331     39332     39333
     39332     39334     39333     39334     39335     39336     39335     39337
     39336     39337     39338     39339     39338     39340     39339     39340
     39341     39342     39341     39343     39342     39343     39344     39345
     39344     39346     39345     39346     39347     39348     39347     39349
     39348     39349     39350     39351     39350     39352     39351     39352
     39353     39354     39353     39355     39354     39355     39356     39357
     39356     39358     39357     39358     39359     39360     39359     39361
     39360     39361     39362     39363     39362     39364     39363     39364
     39365     39366     39365     39367     39366     39367     39368     39369
     39368     39370     39369     39370     39371     39372     39371     39373
     39372     39373     39374     39375     39374     39376     39375     39376
     39377     39378     39377     39379     39378     39379     39380     39381
     39380     39382     39381     39382     39383     39384     39383     39385
     39384     39385     39386     39387     39386     39388     39387     39388
     39389     39390     39389     39391     39390     39391     39392     39393
     39392     39394     39393     39394     39395     39396     39395     39397
     39396     39397     39398     39399     39398     39400     39399     39400
     39401     39402     39401     39403     39402     39403     39404     39405
     39404     39406     39405     39406     39407     39408     39407     39409
     39408     39409     39410     39411     39410     39412     39411     39412
     39413     39414     39413     39415     39414     39415     39416     39417
     39416     39418     39417     39418     39419     39420     39419     39421
     39420     39421     39422     39423     39422     39424     39423     39424
     39425     39426     39425     39427     39426     39427     39428     39429
     39428     39430     39429     39430     39431     39432     39431     39433
     39432     39433     39434     39435     39434     39436     39435     39436
     39437     39438     39437     39439     39438     39439     39440     39441
     39440     39442     39441     39442     39443     39444     39443     39445
     39444     39445     39446     39447     39446     39448     39447     39448
     39449     39450     39449     39451     39450     39451     39452     39453
     39452     39454     39453     39454     39455     39456     39455     39457
     39456     39457     39458     39459     39458     39460     39459     39460
     39461     39462     39461     39463     39462     39463     39464     39465
     39464     39466     39465     39466     39467     39468     39467     39469
     39468     39469     39470     39471     39470     39472     39471     39472
     39473     39474     39473     39475     39474     39475     39476     39477
     39476     39478     39477     39478     39479     39480     39479     39481
     39480     39481     39482     39483     39482     39484     39483     39484
     39485     39486     39485     39487     39486     39487     39488     39489
     39488     39490     39489     39490     39491     39492     39491     39493
     39492     39493     39494     39495     39494     39496     39495     39496
     39497     39498     39497     39499     39498     39499     39500     39501
     39500     39502     39501     39502     39503     39504     39503     39505
     39504     39505     39506     39507     39506     39508     39507     39508
     39509     39510     39509     39511     39510     39511     39512     39513
     39512     39514     39513     39514     39515     39516     39515     39517
     39516     39517     39518     39519     39518     39520     39519     39520
     39521     39522     39521     39523     39522     39523     39524     39525
     39524     39526     39525     39526     39527     39528     39527     39529
     39528     39529     39530     39531     39530     39532     39531     39532
     39533     39534     39533     39535     39534     39535     39536     39537
     39536     39538     39537     39538     39539     39540     39539     39541
     39540     39541     39542     39543     39542     39544     39543     39544
     39545     39546     39545     39547     39546     39547     39548     39549
     39548     39550     39549     39550     39551     39552     39551     39553
     39552     39553     39554     39555     39554     39556     39555     39556
     39557     39558     39557     39559     39558     39559     39560     39561
     39560     39562     39561     39562     39563     39564     39563     39565
     39564     39565     39566     39567     39566     39568     39567     39568
     39569     39570     39569     39571     39570     39571     39572     39573
     39572     39574     39573     39574     39575     39576     39575     39577
     39576     39577     39578     39579     39578     39580     39579     39580
     39581     39582     39581     39583     39582     39583     39584     39585
     39584     39586     39585     39586     39587     39588     39587     39589
     39588     39589     39590     39591     39590     39592     39591     39592
     39593     39594     39593     39595     39594     39595     39596     39597
     39596     39598     39597     39598     39599     39600     39599     39601
     39600     39601     39602     39603     39602     39604     39603     39604
     39605     39606     39605     39607     39606     39607     39608     39609
     39608     39610     39609     39610     39611     39612     39611     39613
     39612     39613     39614     39615     39614     39616     39615     39616
     39617     39618     39617     39619     39618     39619     39620     39621
     39620     39622     39621     39622     39623     39624     39623     39625
     39624     39625     39626     39627     39626     39628     39627     39628
     39629     39630     39629     39631     39630     39631     39632     39633
     39632     39634     39633     39634     39635     39636     39635     39637
     39636     39637     39638     39639     39638     39640     39639     39640
     39641     39642     39641     39643     39642     39643     39644     39645
     39644     39646     39645     39646     39647     39648     39647     39649
     39648     39649     39650     39651     39650     39652     39651     39652
     39653     39654     39653     39655     39654     39655     39656     39657
     39656     39658     39657     39658     39659     39660     39659     39661
     39660     39661     39662     39663     39662     39664     39663     39664
     39665     39666     39665     39667     39666     39667     39668     39669
     39668     39670     39669     39670     39671     39672     39671     39673
     39672     39673     39674     39675     39674     39676     39675     39676
     39677     39678     39677     39679     39678     39679     39680     39681
     39680     39682     39681     39682     39683     39684     39683     39685
     39684     39685     39686     39687     39686     39688     39687     39688
     39689     39690     39689     39691     39690     39691     39692     39693
     39692     39694     39693     39694     39695     39696     39695     39697
     39696     39697     39698     39699     39698     39700     39699     39700
     39701     39702     39701     39703     39702     39703     39704     39705
     39704     39706     39705     39706     39707     39708     39707     39709
     39708     39709     39710     39711     39710     39712     39711     39712
     39713     39714     39713     39715     39714     39715     39716     39717
     39716     39718     39717     39718     39719     39720     39719     39721
     39720     39721     39722     39723     39722     39724     39723     39724
     39725     39726     39725     39727     39726     39727     39728     39729
     39728     39730     39729     39730     39731     39732     39731     39733
     39732     39733     39734     39735     39734     39736     39735     39736
     39737     39738     39737     39739     39738     39739     39740     39741
     39740     39742     39741     39742     39743     39744     39743     39745
     39744     39745     39746     39747     39746     39748     39747     39748
     39749     39750     39749     39751     39750     39751     39752     39753
     39752     39754     39753     39754     39755     39756     39755     39757
     39756     39757     39758     39759     39758     39760     39759     39760
     39761     39762     39761     39763     39762     39763     39764     39765
     39764     39766     39765     39766     39767     39768     39767     39769
     39768     39769     39770     39771     39770     39772     39771     39772
     39773     39774     39773     39775     39774     39775     39776     39777
     39776     39778     39777     39778     39779     39780     39779     39781
     39780     39781     39782     39783     39782     39784     39783     39784
     39785     39786     39785     39787     39786     39787     39788     39789
     39788     39790     39789     39790     39791     39792     39791     39793
     39792     39793     39794     39795     39794     39796     39795     39796
     39797     39798     39797     39799     39798     39799     39800     39801
     39800     39802     39801     39802     39803     39804     39803     39805
     39804     39805     39806     39807     39806     39808     39807     39808
     39809     39810     39809     39811     39810     39811     39812     39813
     39812     39814     39813     39814     39815     39816     39815     39817
     39816     39817     39818     39819     39818     39820     39819     39820
     39821     39822     39821     39823     39822     39823     39824     39825
     39824     39826     39825     39826     39827     39828     39827     39829
     39828     39829     39830     39831     39830     39832     39831     39832
     39833     39834     39833     39835     39834     39835     39836     39837
     39836     39838     39837     39838     39839     39840     39839     39841
     39840     39841     39842     39843     39842     39844     39843     39844
     39845     39846     39845     39847     39846     39847     39848     39849
     39848     39850     39849     39850     39851     39852     39851     39853
     39852     39853     39854     39855     39854     39856     39855     39856
     39857     39858     39857     39859     39858     39859     39860     39861
     39860     39862     39861     39862     39863     39864     39863     39865
     39864     39865     39866     39867     39866     39868     39867     39868
     39869     39870     39869     39871     39870     39871     39872     39873
     39872     39874     39873     39874     39875     39876     39875     39877
     39876     39877     39878     39879     39878     39880     39879     39880
     39881     39882     39881     39883     39882     39883     39884     39885
     39884     39886     39885     39886     39887     39888     39887     39889
     39888     39889     39890     39891     39890     39892     39891     39892
     39893     39894     39893     39895     39894     39895     39896     39897
     39896     39898     39897     39898     39899     39900     39899     39901
     39900     39901     39902     39903     39902     39904     39903     39904
     39905     39906     39905     39907     39906     39907     39908     39909
     39908     39910     39909     39910     39911     39912     39911     39913
     39912     39913     39914     39915     39914     39916     39915     39916
     39917     39918     39917     39919     39918     39919     39920     39921
     39920     39922     39921     39922     39923     39924     39923     39925
     39924     39925     39926     39927     39926     39928     39927     39928
     39929     39930     39929     39931     39930     39931     39932     39933
     39932     39934     39933     39934     39935     39936     39935     39937
     39936     39937     39938     39939     39938     39940     39939     39940
     39941     39942     39941     39943     39942     39943     39944     39945
     39944     39946     39945     39946     39947     39948     39947     39949
     39948     39949     39950     39951     39950     39952     39951     39952
     39953     39954     39953     39955     39954     39955     39956     39957
     39956     39958     39957     39958     39959     39960     39959     39961
     39960     39961     39962     39963     39962     39964     39963     39964
     39965     39966     39965     39967     39966     39967     39968     39969
     39968     39970     39969     39970     39971     39972     39971     39973
     39972     39973     39974     39975     39974     39976     39975     39976
     39977     39978     39977     39979     39978     39979     39980     39981
     39980     39982     39981     39982     39983     39984     39983     39985
     39984     39985     39986     39987     39986     39988     39987     39988
     39989     39990     39989     39991     39990     39991     39992     39993
     39992     39994     39993     39994     39995     39996     39995     39997
     39996     39997     39998     39999     39998     40000     39999     40000
     40001     40002     40001     40003     40002     40003     40004     40005
     40004     40006     40005     40006     40007     40008     40007     40009
     40008     40009     40010     40011     40010     40012     40011     40012
     40013     40014     40013     40015     40014     40015     40016     40017
     40016     40018     40017     40018     40019     40020     40019     40021
     40020     40021     40022     40023     40022     40024     40023     40024
     40025     40026     40025     40027     40026     40027     40028     40029
     40028     40030     40029     40030     40031     40032     40031     40033
     40032     40033     40034     40035     40034     40036     40035     40036
     40037     40038     40037     40039     40038     40039     40040     40041
     40040     40042     40041     40042     40043     40044     40043     40045
     40044     40045     40046     40047     40046     40048     40047     40048
     40049     40050     40049     40051     40050     40051     40052     40053
     40052     40054     40053     40054     40055     40056     40055     40057
     40056     40057     40058     40059     40058     40060     40059     40060
     40061     40062     40061     40063     40062     40063     40064     40065
     40064     40066     40065     40066     40067     40068     40067     40069
     40068     40069     40070     40071     40070     40072     40071     40072
     40073     40074     40073     40075     40074     40075     40076     40077
     40076     40078     40077     40078     40079     40080     40079     40081
     40080     40081     40082     40083     40082     40084     40083     40084
     40085     40086     40085     40087     40086     40087     40088     40089
     40088     40090     40089     40090     40091     40092     40091     40093
     40092     40093     40094     40095     40094     40096     40095     40096
     40097     40098     40097     40099     40098     40099     40100     40101
     40100     40102     40101     40102     40103     40104     40103     40105
     40104     40105     40106     40107     40106     40108     40107     40108
     40109     40110     40109     40111     40110     40111     40112     40113
     40112     40114     40113     40114     40115     40116     40115     40117
     40116     40117     40118     40119     40118     40120     40119     40120
     40121     40122     40121     40123     40122     40123     40124     40125
     40124     40126     40125     40126     40127     40128     40127     40129
     40128     40129     40130     40131     40130     40132     40131     40132
     40133     40134     40133     40135     40134     40135     40136     40137
     40136     40138     40137     40138     40139     40140     40139     40141
     40140     40141     40142     40143     40142     40144     40143     40144
     40145     40146     40145     40147     40146     40147     40148     40149
     40148     40150     40149     40150     40151     40152     40151     40153
     40152     40153     40154     40155     40154     40156     40155     40156
     40157     40158     40157     40159     40158     40159     40160     40161
     40160     40162     40161     40162     40163     40164     40163     40165
     40164     40165     40166     40167     40166     40168     40167     40168
     40169     40170     40169     40171     40170     40171     40172     40173
     40172     40174     40173     40174     40175     40176     40175     40177
     40176     40177     40178     40179     40178     40180     40179     40180
     40181     40182     40181     40183     40182     40183     40184     40185
     40184     40186     40185     40186     40187     40188     40187     40189
     40188     40189     40190     40191     40190     40192     40191     40192
     40193     40194     40193     40195     40194     40195     40196     40197
     40196     40198     40197     40198     40199     40200     40199     40201
     40200     40201     40202     40203     40202     40204     40203     40204
     40205     40206     40205     40207     40206     40207     40208     40209
     40208     40210     40209     40210     40211     40212     40211     40213
     40212     40213     40214     40215     40214     40216     40215     40216
     40217     40218     40217     40219     40218     40219     40220     40221
     40220     40222     40221     40222     40223     40224     40223     40225
     40224     40225     40226     40227     40226     40228     40227     40228
     40229     40230     40229     40231     40230     40231     40232     40233
     40232     40234     40233     40234     40235     40236     40235     40237
     40236     40237     40238     40239     40238     40240     40239     40240
     40241     40242     40241     40243     40242     40243     40244     40245
     40244     40246     40245     40246     40247     40248     40247     40249
     40248     40249     40250     40251     40250     40252     40251     40252
     40253     40254     40253     40255     40254     40255     40256     40257
     40256     40258     40257     40258     40259     40260     40259     40261
     40260     40261     40262     40263     40262     40264     40263     40264
     40265     40266     40265     40267     40266     40267     40268     40269
     40268     40270     40269     40270     40271     40272     40271     40273
     40272     40273     40274     40275     40274     40276     40275     40276
     40277     40278     40277     40279     40278     40279     40280     40281
     40280     40282     40281     40282     40283     40284     40283     40285
     40284     40285     40286     40287     40286     40288     40287     40288
     40289     40290     40289     40291     40290     40291     40292     40293
     40292     40294     40293     40294     40295     40296     40295     40297
     40296     40297     40298     40299     40298     40300     40299     40300
     40301     40302     40301     40303     40302     40303     40304     40305
     40304     40306     40305     40306     40307     40308     40307     40309
     40308     40309     40310     40311     40310     40312     40311     40312
     40313     40314     40313     40315     40314     40315     40316     40317
     40316     40318     40317     40318     40319     40320     40319     40321
     40320     40321     40322     40323     40322     40324     40323     40324
     40325     40326     40325     40327     40326     40327     40328     40329
     40328     40330     40329     40330     40331     40332     40331     40333
     40332     40333     40334     40335     40334     40336     40335     40336
     40337     40338     40337     40339     40338     40339     40340     40341
     40340     40342     40341     40342     40343     40344     40343     40345
     40344     40345     40346     40347     40346     40348     40347     40348
     40349     40350     40349     40351     40350     40351     40352     40353
     40352     40354     40353     40354     40355     40356     40355     40357
     40356     40357     40358     40359     40358     40360     40359     40360
     40361     40362     40361     40363     40362     40363     40364     40365
     40364     40366     40365     40366     40367     40368     40367     40369
     40368     40369     40370     40371     40370     40372     40371     40372
     40373     40374     40373     40375     40374     40375     40376     40377
     40376     40378     40377     40378     40379     40380     40379     40381
     40380     40381     40382     40383     40382     40384     40383     40384
     40385     40386     40385     40387     40386     40387     40388     40389
     40388     40390     40389     40390     40391     40392     40391     40393
     40392     40393     40394     40395     40394     40396     40395     40396
     40397     40398     40397     40399     40398     40399     40400     40401
     40400     40402     40401     40402     40403     40404     40403     40405
     40404     40405     40406     40407     40406     40408     40407     40408
     40409     40410     40409     40411     40410     40411     40412     40413
     40412     40414     40413     40414     40415     40416     40415     40417
     40416     40417     40418     40419     40418     40420     40419     40420
     40421     40422     40421     40423     40422     40423     40424     40425
     40424     40426     40425     40426     40427     40428     40427     40429
     40428     40429     40430     40431     40430     40432     40431     40432
     40433     40434     40433     40435     40434     40435     40436     40437
     40436     40438     40437     40438     40439     40440     40439     40441
     40440     40441     40442     40443     40442     40444     40443     40444
     40445     40446     40445     40447     40446     40447     40448     40449
     40448     40450     40449     40450     40451     40452     40451     40453
     40452     40453     40454     40455     40454     40456     40455     40456
     40457     40458     40457     40459     40458     40459     40460     40461
     40460     40462     40461     40462     40463     40464     40463     40465
     40464     40465     40466     40467     40466     40468     40467     40468
     40469     40470     40469     40471     40470     40471     40472     40473
     40472     40474     40473     40474     40475     40476     40475     40477
     40476     40477     40478     40479     40478     40480     40479     40480
     40481     40482     40481     40483     40482     40483     40484     40485
     40484     40486     40485     40486     40487     40488     40487     40489
     40488     40489     40490     40491     40490     40492     40491     40492
     40493     40494     40493     40495     40494     40495     40496     40497
     40496     40498     40497     40498     40499     40500     40499     40501
     40500     40501     40502     40503     40502     40504     40503     40504
     40505     40506     40505     40507     40506     40507     40508     40509
     40508     40510     40509     40510     40511     40512     40511     40513
     40512     40513     40514     40515     40514     40516     40515     40516
     40517     40518     40517     40519     40518     40519     40520     40521
     40520     40522     40521     40522     40523     40524     40523     40525
     40524     40525     40526     40527     40526     40528     40527     40528
     40529     40530     40529     40531     40530     40531     40532     40533
     40532     40534     40533     40534     40535     40536     40535     40537
     40536     40537     40538     40539     40538     40540     40539     40540
     40541     40542     40541     40543     40542     40543     40544     40545
     40544     40546     40545     40546     40547     40548     40547     40549
     40548     40549     40550     40551     40550     40552     40551     40552
     40553     40554     40553     40555     40554     40555     40556     40557
     40556     40558     40557     40558     40559     40560     40559     40561
     40560     40561     40562     40563     40562     40564     40563     40564
     40565     40566     40565     40567     40566     40567     40568     40569
     40568     40570     40569     40570     40571     40572     40571     40573
     40572     40573     40574     40575     40574     40576     40575     40576
     40577     40578     40577     40579     40578     40579     40580     40581
     40580     40582     40581     40582     40583     40584     40583     40585
     40584     40585     40586     40587     40586     40588     40587     40588
     40589     40590     40589     40591     40590     40591     40592     40593
     40592     40594     40593     40594     40595     40596     40595     40597
     40596     40597     40598     40599     40598     40600     40599     40600
     40601     40602     40601     40603     40602     40603     40604     40605
     40604     40606     40605     40606     40607     40608     40607     40609
     40608     40609     40610     40611     40610     40612     40611     40612
     40613     40614     40613     40615     40614     40615     40616     40617
     40616     40618     40617     40618     40619     40620     40619     40621
     40620     40621     40622     40623     40622     40624     40623     40624
     40625     40626     40625     40627     40626     40627     40628     40629
     40628     40630     40629     40630     40631     40632     40631     40633
     40632     40633     40634     40635     40634     40636     40635     40636
     40637     40638     40637     40639     40638     40639     40640     40641
     40640     40642     40641     40642     40643     40644     40643     40645
     40644     40645     40646     40647     40646     40648     40647     40648
     40649     40650     40649     40651     40650     40651     40652     40653
     40652     40654     40653     40654     40655     40656     40655     40657
     40656     40657     40658     40659     40658     40660     40659     40660
     40661     40662     40661     40663     40662     40663     40664     40665
     40664     40666     40665     40666     40667     40668     40667     40669
     40668     40669     40670     40671     40670     40672     40671     40672
     40673     40674     40673     40675     40674     40675     40676     40677
     40676     40678     40677     40678     40679     40680     40679     40681
     40680     40681     40682     40683     40682     40684     40683     40684
     40685     40686     40685     40687     40686     40687     40688     40689
     40688     40690     40689     40690     40691     40692     40691     40693
     40692     40693     40694     40695     40694     40696     40695     40696
     40697     40698     40697     40699     40698     40699     40700     40701
     40700     40702     40701     40702     40703     40704     40703     40705
     40704     40705     40706     40707     40706     40708     40707     40708
     40709     40710     40709     40711     40710     40711     40712     40713
     40712     40714     40713     40714     40715     40716     40715     40717
     40716     40717     40718     40719     40718     40720     40719     40720
     40721     40722     40721     40723     40722     40723     40724     40725
     40724     40726     40725     40726     40727     40728     40727     40729
     40728     40729     40730     40731     40730     40732     40731     40732
     40733     40734     40733     40735     40734     40735     40736     40737
     40736     40738     40737     40738     40739     40740     40739     40741
     40740     40741     40742     40743     40742     40744     40743     40744
     40745     40746     40745     40747     40746     40747     40748     40749
     40748     40750     40749     40750     40751     40752     40751     40753
     40752     40753     40754     40755     40754     40756     40755     40756
     40757     40758     40757     40759     40758     40759     40760     40761
     40760     40762     40761     40762     40763     40764     40763     40765
     40764     40765     40766     40767     40766     40768     40767     40768
     40769     40770     40769     40771     40770     40771     40772     40773
     40772     40774     40773     40774     40775     40776     40775     40777
     40776     40777     40778     40779     40778     40780     40779     40780
     40781     40782     40781     40783     40782     40783     40784     40785
     40784     40786     40785     40786     40787     40788     40787     40789
     40788     40789     40790     40791     40790     40792     40791     40792
     40793     40794     40793     40795     40794     40795     40796     40797
     40796     40798     40797     40798     40799     40800     40799     40801
     40800     40801     40802     40803     40802     40804     40803     40804
     40805     40806     40805     40807     40806     40807     40808     40809
     40808     40810     40809     40810     40811     40812     40811     40813
     40812     40813     40814     40815     40814     40816     40815     40816
     40817     40818     40817     40819     40818     40819     40820     40821
     40820     40822     40821     40822     40823     40824     40823     40825
     40824     40825     40826     40827     40826     40828     40827     40828
     40829     40830     40829     40831     40830     40831     40832     40833
     40832     40834     40833     40834     40835     40836     40835     40837
     40836     40837     40838     40839     40838     40840     40839     40840
     40841     40842     40841     40843     40842     40843     40844     40845
     40844     40846     40845     40846     40847     40848     40847     40849
     40848     40849     40850     40851     40850     40852     40851     40852
     40853     40854     40853     40855     40854     40855     40856     40857
     40856     40858     40857     40858     40859     40860     40859     40861
     40860     40861     40862     40863     40862     40864     40863     40864
     40865     40866     40865     40867     40866     40867     40868     40869
     40868     40870     40869     40870     40871     40872     40871     40873
     40872     40873     40874     40875     40874     40876     40875     40876
     40877     40878     40877     40879     40878     40879     40880     40881
     40880     40882     40881     40882     40883     40884     40883     40885
     40884     40885     40886     40887     40886     40888     40887     40888
     40889     40890     40889     40891     40890     40891     40892     40893
     40892     40894     40893     40894     40895     40896     40895     40897
     40896     40897     40898     40899     40898     40900     40899     40900
     40901     40902     40901     40903     40902     40903     40904     40905
     40904     40906     40905     40906     40907     40908     40907     40909
     40908     40909     40910     40911     40910     40912     40911     40912
     40913     40914     40913     40915     40914     40915     40916     40917
     40916     40918     40917     40918     40919     40920     40919     40921
     40920     40921     40922     40923     40922     40924     40923     40924
     40925     40926     40925     40927     40926     40927     40928     40929
     40928     40930     40929     40930     40931     40932     40931     40933
     40932     40933     40934     40935     40934     40936     40935     40936
     40937     40938     40937     40939     40938     40939     40940     40941
     40940     40942     40941     40942     40943     40944     40943     40945
     40944     40945     40946     40947     40946     40948     40947     40948
     40949     40950     40949     40951     40950     40951     40952     40953
     40952     40954     40953     40954     40955     40956     40955     40957
     40956     40957     40958     40959     40958     40960     40959     40960
     40961     40962     40961     40963     40962     40963     40964     40965
     40964     40966     40965     40966     40967     40968     40967     40969
     40968     40969     40970     40971     40970     40972     40971     40972
     40973     40974     40973     40975     40974     40975     40976     40977
     40976     40978     40977     40978     40979     40980     40979     40981
     40980     40981     40982     40983     40982     40984     40983     40984
     40985     40986     40985     40987     40986     40987     40988     40989
     40988     40990     40989     40990     40991     40992     40991     40993
     40992     40993     40994     40995     40994     40996     40995     40996
     40997     40998     40997     40999     40998     40999     41000     41001
     41000     41002     41001     41002     41003     41004     41003     41005
     41004     41005     41006     41007     41006     41008     41007     41008
     41009     41010     41009     41011     41010     41011     41012     41013
     41012     41014     41013     41014     41015     41016     41015     41017
     41016     41017     41018     41019     41018     41020     41019     41020
     41021     41022     41021     41023     41022     41023     41024     41025
     41024     41026     41025     41026     41027     41028     41027     41029
     41028     41029     41030     41031     41030     41032     41031     41032
     41033     41034     41033     41035     41034     41035     41036     41037
     41036     41038     41037     41038     41039     41040     41039     41041
     41040     41041     41042     41043     41042     41044     41043     41044
     41045     41046     41045     41047     41046     41047     41048     41049
     41048     41050     41049     41050     41051     41052     41051     41053
     41052     41053     41054     41055     41054     41056     41055     41056
     41057     41058     41057     41059     41058     41059     41060     41061
     41060     41062     41061     41062     41063     41064     41063     41065
     41064     41065     41066     41067     41066     41068     41067     41068
     41069     41070     41069     41071     41070     41071     41072     41073
     41072     41074     41073     41074     41075     41076     41075     41077
     41076     41077     41078     41079     41078     41080     41079     41080
     41081     41082     41081     41083     41082     41083     41084     41085
     41084     41086     41085     41086     41087     41088     41087     41089
     41088     41089     41090     41091     41090     41092     41091     41092
     41093     41094     41093     41095     41094     41095     41096     41097
     41096     41098     41097     41098     41099     41100     41099     41101
     41100     41101     41102     41103     41102     41104     41103     41104
     41105     41106     41105     41107     41106     41107     41108     41109
     41108     41110     41109     41110     41111     41112     41111     41113
     41112     41113     41114     41115     41114     41116     41115     41116
     41117     41118     41117     41119     41118     41119     41120     41121
     41120     41122     41121     41122     41123     41124     41123     41125
     41124     41125     41126     41127     41126     41128     41127     41128
     41129     41130     41129     41131     41130     41131     41132     41133
     41132     41134     41133     41134     41135     41136     41135     41137
     41136     41137     41138     41139     41138     41140     41139     41140
     41141     41142     41141     41143     41142     41143     41144     41145
     41144     41146     41145     41146     41147     41148     41147     41149
     41148     41149     41150     41151     41150     41152     41151     41152
     41153     41154     41153     41155     41154     41155     41156     41157
     41156     41158     41157     41158     41159     41160     41159     41161
     41160     41161     41162     41163     41162     41164     41163     41164
     41165     41166     41165     41167     41166     41167     41168     41169
     41168     41170     41169     41170     41171     41172     41171     41173
     41172     41173     41174     41175     41174     41176     41175     41176
     41177     41178     41177     41179     41178     41179     41180     41181
     41180     41182     41181     41182     41183     41184     41183     41185
     41184     41185     41186     41187     41186     41188     41187     41188
     41189     41190     41189     41191     41190     41191     41192     41193
     41192     41194     41193     41194     41195     41196     41195     41197
     41196     41197     41198     41199     41198     41200     41199     41200
     41201     41202     41201     41203     41202     41203     41204     41205
     41204     41206     41205     41206     41207     41208     41207     41209
     41208     41209     41210     41211     41210     41212     41211     41212
     41213     41214     41213     41215     41214     41215     41216     41217
     41216     41218     41217     41218     41219     41220     41219     41221
     41220     41221     41222     41223     41222     41224     41223     41224
     41225     41226     41225     41227     41226     41227     41228     41229
     41228     41230     41229     41230     41231     41232     41231     41233
     41232     41233     41234     41235     41234     41236     41235     41236
     41237     41238     41237     41239     41238     41239     41240     41241
     41240     41242     41241     41242     41243     41244     41243     41245
     41244     41245     41246     41247     41246     41248     41247     41248
     41249     41250     41249     41251     41250     41251     41252     41253
     41252     41254     41253     41254     41255     41256     41255     41257
     41256     41257     41258     41259     41258     41260     41259     41260
     41261     41262     41261     41263     41262     41263     41264     41265
     41264     41266     41265     41266     41267     41268     41267     41269
     41268     41269     41270     41271     41270     41272     41271     41272
     41273     41274     41273     41275     41274     41275     41276     41277
     41276     41278     41277     41278     41279     41280     41279     41281
     41280     41281     41282     41283     41282     41284     41283     41284
     41285     41286     41285     41287     41286     41287     41288     41289
     41288     41290     41289     41290     41291     41292     41291     41293
     41292     41293     41294     41295     41294     41296     41295     41296
     41297     41298     41297     41299     41298     41299     41300     41301
     41300     41302     41301     41302     41303     41304     41303     41305
     41304     41305     41306     41307     41306     41308     41307     41308
     41309     41310     41309     41311     41310     41311     41312     41313
     41312     41314     41313     41314     41315     41316     41315     41317
     41316     41317     41318     41319     41318     41320     41319     41320
     41321     41322     41321     41323     41322     41323     41324     41325
     41324     41326     41325     41326     41327     41328     41327     41329
     41328     41329     41330     41331     41330     41332     41331     41332
     41333     41334     41333     41335     41334     41335     41336     41337
     41336     41338     41337     41338     41339     41340     41339     41341
     41340     41341     41342     41343     41342     41344     41343     41344
     41345     41346     41345     41347     41346     41347     41348     41349
     41348     41350     41349     41350     41351     41352     41351     41353
     41352     41353     41354     41355     41354     41356     41355     41356
     41357     41358     41357     41359     41358     41359     41360     41361
     41360     41362     41361     41362     41363     41364     41363     41365
     41364     41365     41366     41367     41366     41368     41367     41368
     41369     41370     41369     41371     41370     41371     41372     41373
     41372     41374     41373     41374     41375     41376     41375     41377
     41376     41377     41378     41379     41378     41380     41379     41380
     41381     41382     41381     41383     41382     41383     41384     41385
     41384     41386     41385     41386     41387     41388     41387     41389
     41388     41389     41390     41391     41390     41392     41391     41392
     41393     41394     41393     41395     41394     41395     41396     41397
     41396     41398     41397     41398     41399     41400     41399     41401
     41400     41401     41402     41403     41402     41404     41403     41404
     41405     41406     41405     41407     41406     41407     41408     41409
     41408     41410     41409     41410     41411     41412     41411     41413
     41412     41413     41414     41415     41414     41416     41415     41416
     41417     41418     41417     41419     41418     41419     41420     41421
     41420     41422     41421     41422     41423     41424     41423     41425
     41424     41425     41426     41427     41426     41428     41427     41428
     41429     41430     41429     41431     41430     41431     41432     41433
     41432     41434     41433     41434     41435     41436     41435     41437
     41436     41437     41438     41439     41438     41440     41439     41440
     41441     41442     41441     41443     41442     41443     41444     41445
     41444     41446     41445     41446     41447     41448     41447     41449
     41448     41449     41450     41451     41450     41452     41451     41452
     41453     41454     41453     41455     41454     41455     41456     41457
     41456     41458     41457     41458     41459     41460     41459     41461
     41460     41461     41462     41463     41462     41464     41463     41464
     41465     41466     41465     41467     41466     41467     41468     41469
     41468     41470     41469     41470     41471     41472     41471     41473
     41472     41473     41474     41475     41474     41476     41475     41476
     41477     41478     41477     41479     41478     41479     41480     41481
     41480     41482     41481     41482     41483     41484     41483     41485
     41484     41485     41486     41487     41486     41488     41487     41488
     41489     41490     41489     41491     41490     41491     41492     41493
     41492     41494     41493     41494     41495     41496     41495     41497
     41496     41497     41498     41499     41498     41500     41499     41500
     41501     41502     41501     41503     41502     41503     41504     41505
     41504     41506     41505     41506     41507     41508     41507     41509
     41508     41509     41510     41511     41510     41512     41511     41512
     41513     41514     41513     41515     41514     41515     41516     41517
     41516     41518     41517     41518     41519     41520     41519     41521
     41520     41521     41522     41523     41522     41524     41523     41524
     41525     41526     41525     41527     41526     41527     41528     41529
     41528     41530     41529     41530     41531     41532     41531     41533
     41532     41533     41534     41535     41534     41536     41535     41536
     41537     41538     41537     41539     41538     41539     41540     41541
     41540     41542     41541     41542     41543     41544     41543     41545
     41544     41545     41546     41547     41546     41548     41547     41548
     41549     41550     41549     41551     41550     41551     41552     41553
     41552     41554     41553     41554     41555     41556     41555     41557
     41556     41557     41558     41559     41558     41560     41559     41560
     41561     41562     41561     41563     41562     41563     41564     41565
     41564     41566     41565     41566     41567     41568     41567     41569
     41568     41569     41570     41571     41570     41572     41571     41572
     41573     41574     41573     41575     41574     41575     41576     41577
     41576     41578     41577     41578     41579     41580     41579     41581
     41580     41581     41582     41583     41582     41584     41583     41584
     41585     41586     41585     41587     41586     41587     41588     41589
     41588     41590     41589     41590     41591     41592     41591     41593
     41592     41593     41594     41595     41594     41596     41595     41596
     41597     41598     41597     41599     41598     41599     41600     41601
     41600     41602     41601     41602     41603     41604     41603     41605
     41604     41605     41606     41607     41606     41608     41607     41608
     41609     41610     41609     41611     41610     41611     41612     41613
     41612     41614     41613     41614     41615     41616     41615     41617
     41616     41617     41618     41619     41618     41620     41619     41620
     41621     41622     41621     41623     41622     41623     41624     41625
     41624     41626     41625     41626     41627     41628     41627     41629
     41628     41629     41630     41631     41630     41632     41631     41632
     41633     41634     41633     41635     41634     41635     41636     41637
     41636     41638     41637     41638     41639     41640     41639     41641
     41640     41641     41642     41643     41642     41644     41643     41644
     41645     41646     41645     41647     41646     41647     41648     41649
     41648     41650     41649     41650     41651     41652     41651     41653
     41652     41653     41654     41655     41654     41656     41655     41656
     41657     41658     41657     41659     41658     41659     41660     41661
     41660     41662     41661     41662     41663     41664     41663     41665
     41664     41665     41666     41667     41666     41668     41667     41668
     41669     41670     41669     41671     41670     41671     41672     41673
     41672     41674     41673     41674     41675     41676     41675     41677
     41676     41677     41678     41679     41678     41680     41679     41680
     41681     41682     41681     41683     41682     41683     41684     41685
     41684     41686     41685     41686     41687     41688     41687     41689
     41688     41689     41690     41691     41690     41692     41691     41692
     41693     41694     41693     41695     41694     41695     41696     41697
     41696     41698     41697     41698     41699     41700     41699     41701
     41700     41701     41702     41703     41702     41704     41703     41704
     41705     41706     41705     41707     41706     41707     41708     41709
     41708     41710     41709     41710     41711     41712     41711     41713
     41712     41713     41714     41715     41714     41716     41715     41716
     41717     41718     41717     41719     41718     41719     41720     41721
     41720     41722     41721     41722     41723     41724     41723     41725
     41724     41725     41726     41727     41726     41728     41727     41728
     41729     41730     41729     41731     41730     41731     41732     41733
     41732     41734     41733     41734     41735     41736     41735     41737
     41736     41737     41738     41739     41738     41740     41739     41740
     41741     41742     41741     41743     41742     41743     41744     41745
     41744     41746     41745     41746     41747     41748     41747     41749
     41748     41749     41750     41751     41750     41752     41751     41752
     41753     41754     41753     41755     41754     41755     41756     41757
     41756     41758     41757     41758     41759     41760     41759     41761
     41760     41761     41762     41763     41762     41764     41763     41764
     41765     41766     41765     41767     41766     41767     41768     41769
     41768     41770     41769     41770     41771     41772     41771     41773
     41772     41773     41774     41775     41774     41776     41775     41776
     41777     41778     41777     41779     41778     41779     41780     41781
     41780     41782     41781     41782     41783     41784     41783     41785
     41784     41785     41786     41787     41786     41788     41787     41788
     41789     41790     41789     41791     41790     41791     41792     41793
     41792     41794     41793     41794     41795     41796     41795     41797
     41796     41797     41798     41799     41798     41800     41799     41800
     41801     41802     41801     41803     41802     41803     41804     41805
     41804     41806     41805     41806     41807     41808     41807     41809
     41808     41809     41810     41811     41810     41812     41811     41812
     41813     41814     41813     41815     41814     41815     41816     41817
     41816     41818     41817     41818     41819     41820     41819     41821
     41820     41821     41822     41823     41822     41824     41823     41824
     41825     41826     41825     41827     41826     41827     41828     41829
     41828     41830     41829     41830     41831     41832     41831     41833
     41832     41833     41834     41835     41834     41836     41835     41836
     41837     41838     41837     41839     41838     41839     41840     41841
     41840     41842     41841     41842     41843     41844     41843     41845
     41844     41845     41846     41847     41846     41848     41847     41848
     41849     41850     41849     41851     41850     41851     41852     41853
     41852     41854     41853     41854     41855     41856     41855     41857
     41856     41857     41858     41859     41858     41860     41859     41860
     41861     41862     41861     41863     41862     41863     41864     41865
     41864     41866     41865     41866     41867     41868     41867     41869
     41868     41869     41870     41871     41870     41872     41871     41872
     41873     41874     41873     41875     41874     41875     41876     41877
     41876     41878     41877     41878     41879     41880     41879     41881
     41880     41881     41882     41883     41882     41884     41883     41884
     41885     41886     41885     41887     41886     41887     41888     41889
     41888     41890     41889     41890     41891     41892     41891     41893
     41892     41893     41894     41895     41894     41896     41895     41896
     41897     41898     41897     41899     41898     41899     41900     41901
     41900     41902     41901     41902     41903     41904     41903     41905
     41904     41905     41906     41907     41906     41908     41907     41908
     41909     41910     41909     41911     41910     41911     41912     41913
     41912     41914     41913     41914     41915     41916     41915     41917
     41916     41917     41918     41919     41918     41920     41919     41920
     41921     41922     41921     41923     41922     41923     41924     41925
     41924     41926     41925     41926     41927     41928     41927     41929
     41928     41929     41930     41931     41930     41932     41931     41932
     41933     41934     41933     41935     41934     41935     41936     41937
     41936     41938     41937     41938     41939     41940     41939     41941
     41940     41941     41942     41943     41942     41944     41943     41944
     41945     41946     41945     41947     41946     41947     41948     41949
     41948     41950     41949     41950     41951     41952     41951     41953
     41952     41953     41954     41955     41954     41956     41955     41956
     41957     41958     41957     41959     41958     41959     41960     41961
     41960     41962     41961     41962     41963     41964     41963     41965
     41964     41965     41966     41967     41966     41968     41967     41968
     41969     41970     41969     41971     41970     41971     41972     41973
     41972     41974     41973     41974     41975     41976     41975     41977
     41976     41977     41978     41979     41978     41980     41979     41980
     41981     41982     41981     41983     41982     41983     41984     41985
     41984     41986     41985     41986     41987     41988     41987     41989
     41988     41989     41990     41991     41990     41992     41991     41992
     41993     41994     41993     41995     41994     41995     41996     41997
     41996     41998     41997     41998     41999     42000     41999     42001
     42000     42001     42002     42003     42002     42004     42003     42004
     42005     42006     42005     42007     42006     42007     42008     42009
     42008     42010     42009     42010     42011     42012     42011     42013
     42012     42013     42014     42015     42014     42016     42015     42016
     42017     42018     42017     42019     42018     42019     42020     42021
     42020     42022     42021     42022     42023     42024     42023     42025
     42024     42025     42026     42027     42026     42028     42027     42028
     42029     42030     42029     42031     42030     42031     42032     42033
     42032     42034     42033     42034     42035     42036     42035     42037
     42036     42037     42038     42039     42038     42040     42039     42040
     42041     42042     42041     42043     42042     42043     42044     42045
     42044     42046     42045     42046     42047     42048     42047     42049
     42048     42049     42050     42051     42050     42052     42051     42052
     42053     42054     42053     42055     42054     42055     42056     42057
     42056     42058     42057     42058     42059     42060     42059     42061
     42060     42061     42062     42063     42062     42064     42063     42064
     42065     42066     42065     42067     42066     42067     42068     42069
     42068     42070     42069     42070     42071     42072     42071     42073
     42072     42073     42074     42075     42074     42076     42075     42076
     42077     42078     42077     42079     42078     42079     42080     42081
     42080     42082     42081     42082     42083     42084     42083     42085
     42084     42085     42086     42087     42086     42088     42087     42088
     42089     42090     42089     42091     42090     42091     42092     42093
     42092     42094     42093     42094     42095     42096     42095     42097
     42096     42097     42098     42099     42098     42100     42099     42100
     42101     42102     42101     42103     42102     42103     42104     42105
     42104     42106     42105     42106     42107     42108     42107     42109
     42108     42109     42110     42111     42110     42112     42111     42112
     42113     42114     42113     42115     42114     42115     42116     42117
     42116     42118     42117     42118     42119     42120     42119     42121
     42120     42121     42122     42123     42122     42124     42123     42124
     42125     42126     42125     42127     42126     42127     42128     42129
     42128     42130     42129     42130     42131     42132     42131     42133
     42132     42133     42134     42135     42134     42136     42135     42136
     42137     42138     42137     42139     42138     42139     42140     42141
     42140     42142     42141     42142     42143     42144     42143     42145
     42144     42145     42146     42147     42146     42148     42147     42148
     42149     42150     42149     42151     42150     42151     42152     42153
     42152     42154     42153     42154     42155     42156     42155     42157
     42156     42157     42158     42159     42158     42160     42159     42160
     42161     42162     42161     42163     42162     42163     42164     42165
     42164     42166     42165     42166     42167     42168     42167     42169
     42168     42169     42170     42171     42170     42172     42171     42172
     42173     42174     42173     42175     42174     42175     42176     42177
     42176     42178     42177     42178     42179     42180     42179     42181
     42180     42181     42182     42183     42182     42184     42183     42184
     42185     42186     42185     42187     42186     42187     42188     42189
     42188     42190     42189     42190     42191     42192     42191     42193
     42192     42193     42194     42195     42194     42196     42195     42196
     42197     42198     42197     42199     42198     42199     42200     42201
     42200     42202     42201     42202     42203     42204     42203     42205
     42204     42205     42206     42207     42206     42208     42207     42208
     42209     42210     42209     42211     42210     42211     42212     42213
     42212     42214     42213     42214     42215     42216     42215     42217
     42216     42217     42218     42219     42218     42220     42219     42220
     42221     42222     42221     42223     42222     42223     42224     42225
     42224     42226     42225     42226     42227     42228     42227     42229
     42228     42229     42230     42231     42230     42232     42231     42232
     42233     42234     42233     42235     42234     42235     42236     42237
     42236     42238     42237     42238     42239     42240     42239     42241
     42240     42241     42242     42243     42242     42244     42243     42244
     42245     42246     42245     42247     42246     42247     42248     42249
     42248     42250     42249     42250     42251     42252     42251     42253
     42252     42253     42254     42255     42254     42256     42255     42256
     42257     42258     42257     42259     42258     42259     42260     42261
     42260     42262     42261     42262     42263     42264     42263     42265
     42264     42265     42266     42267     42266     42268     42267     42268
     42269     42270     42269     42271     42270     42271     42272     42273
     42272     42274     42273     42274     42275     42276     42275     42277
     42276     42277     42278     42279     42278     42280     42279     42280
     42281     42282     42281     42283     42282     42283     42284     42285
     42284     42286     42285     42286     42287     42288     42287     42289
     42288     42289     42290     42291     42290     42292     42291     42292
     42293     42294     42293     42295     42294     42295     42296     42297
     42296     42298     42297     42298     42299     42300     42299     42301
     42300     42301     42302     42303     42302     42304     42303     42304
     42305     42306     42305     42307     42306     42307     42308     42309
     42308     42310     42309     42310     42311     42312     42311     42313
     42312     42313     42314     42315     42314     42316     42315     42316
     42317     42318     42317     42319     42318     42319     42320     42321
     42320     42322     42321     42322     42323     42324     42323     42325
     42324     42325     42326     42327     42326     42328     42327     42328
     42329     42330     42329     42331     42330     42331     42332     42333
     42332     42334     42333     42334     42335     42336     42335     42337
     42336     42337     42338     42339     42338     42340     42339     42340
     42341     42342     42341     42343     42342     42343     42344     42345
     42344     42346     42345     42346     42347     42348     42347     42349
     42348     42349     42350     42351     42350     42352     42351     42352
     42353     42354     42353     42355     42354     42355     42356     42357
     42356     42358     42357     42358     42359     42360     42359     42361
     42360     42361     42362     42363     42362     42364     42363     42364
     42365     42366     42365     42367     42366     42367     42368     42369
     42368     42370     42369     42370     42371     42372     42371     42373
     42372     42373     42374     42375     42374     42376     42375     42376
     42377     42378     42377     42379     42378     42379     42380     42381
     42380     42382     42381     42382     42383     42384     42383     42385
     42384     42385     42386     42387     42386     42388     42387     42388
     42389     42390     42389     42391     42390     42391     42392     42393
     42392     42394     42393     42394     42395     42396     42395     42397
     42396     42397     42398     42399     42398     42400     42399     42400
     42401     42402     42401     42403     42402     42403     42404     42405
     42404     42406     42405     42406     42407     42408     42407     42409
     42408     42409     42410     42411     42410     42412     42411     42412
     42413     42414     42413     42415     42414     42415     42416     42417
     42416     42418     42417     42418     42419     42420     42419     42421
     42420     42421     42422     42423     42422     42424     42423     42424
     42425     42426     42425     42427     42426     42427     42428     42429
     42428     42430     42429     42430     42431     42432     42431     42433
     42432     42433     42434     42435     42434     42436     42435     42436
     42437     42438     42437     42439     42438     42439     42440     42441
     42440     42442     42441     42442     42443     42444     42443     42445
     42444     42445     42446     42447     42446     42448     42447     42448
     42449     42450     42449     42451     42450     42451     42452     42453
     42452     42454     42453     42454     42455     42456     42455     42457
     42456     42457     42458     42459     42458     42460     42459     42460
     42461     42462     42461     42463     42462     42463     42464     42465
     42464     42466     42465     42466     42467     42468     42467     42469
     42468     42469     42470     42471     42470     42472     42471     42472
     42473     42474     42473     42475     42474     42475     42476     42477
     42476     42478     42477     42478     42479     42480     42479     42481
     42480     42481     42482     42483     42482     42484     42483     42484
     42485     42486     42485     42487     42486     42487     42488     42489
     42488     42490     42489     42490     42491     42492     42491     42493
     42492     42493     42494     42495     42494     42496     42495     42496
     42497     42498     42497     42499     42498     42499     42500     42501
     42500     42502     42501     42502     42503     42504     42503     42505
     42504     42505     42506     42507     42506     42508     42507     42508
     42509     42510     42509     42511     42510     42511     42512     42513
     42512     42514     42513     42514     42515     42516     42515     42517
     42516     42517     42518     42519     42518     42520     42519     42520
     42521     42522     42521     42523     42522     42523     42524     42525
     42524     42526     42525     42526     42527     42528     42527     42529
     42528     42529     42530     42531     42530     42532     42531     42532
     42533     42534     42533     42535     42534     42535     42536     42537
     42536     42538     42537     42538     42539     42540     42539     42541
     42540     42541     42542     42543     42542     42544     42543     42544
     42545     42546     42545     42547     42546     42547     42548     42549
     42548     42550     42549     42550     42551     42552     42551     42553
     42552     42553     42554     42555     42554     42556     42555     42556
     42557     42558     42557     42559     42558     42559     42560     42561
     42560     42562     42561     42562     42563     42564     42563     42565
     42564     42565     42566     42567     42566     42568     42567     42568
     42569     42570     42569     42571     42570     42571     42572     42573
     42572     42574     42573     42574     42575     42576     42575     42577
     42576     42577     42578     42579     42578     42580     42579     42580
     42581     42582     42581     42583     42582     42583     42584     42585
     42584     42586     42585     42586     42587     42588     42587     42589
     42588     42589     42590     42591     42590     42592     42591     42592
     42593     42594     42593     42595     42594     42595     42596     42597
     42596     42598     42597     42598     42599     42600     42599     42601
     42600     42601     42602     42603     42602     42604     42603     42604
     42605     42606     42605     42607     42606     42607     42608     42609
     42608     42610     42609     42610     42611     42612     42611     42613
     42612     42613     42614     42615     42614     42616     42615     42616
     42617     42618     42617     42619     42618     42619     42620     42621
     42620     42622     42621     42622     42623     42624     42623     42625
     42624     42625     42626     42627     42626     42628     42627     42628
     42629     42630     42629     42631     42630     42631     42632     42633
     42632     42634     42633     42634     42635     42636     42635     42637
     42636     42637     42638     42639     42638     42640     42639     42640
     42641     42642     42641     42643     42642     42643     42644     42645
     42644     42646     42645     42646     42647     42648     42647     42649
     42648     42649     42650     42651     42650     42652     42651     42652
     42653     42654     42653     42655     42654     42655     42656     42657
     42656     42658     42657     42658     42659     42660     42659     42661
     42660     42661     42662     42663     42662     42664     42663     42664
     42665     42666     42665     42667     42666     42667     42668     42669
     42668     42670     42669     42670     42671     42672     42671     42673
     42672     42673     42674     42675     42674     42676     42675     42676
     42677     42678     42677     42679     42678     42679     42680     42681
     42680     42682     42681     42682     42683     42684     42683     42685
     42684     42685     42686     42687     42686     42688     42687     42688
     42689     42690     42689     42691     42690     42691     42692     42693
     42692     42694     42693     42694     42695     42696     42695     42697
     42696     42697     42698     42699     42698     42700     42699     42700
     42701     42702     42701     42703     42702     42703     42704     42705
     42704     42706     42705     42706     42707     42708     42707     42709
     42708     42709     42710     42711     42710     42712     42711     42712
     42713     42714     42713     42715     42714     42715     42716     42717
     42716     42718     42717     42718     42719     42720     42719     42721
     42720     42721     42722     42723     42722     42724     42723     42724
     42725     42726     42725     42727     42726     42727     42728     42729
     42728     42730     42729     42730     42731     42732     42731     42733
     42732     42733     42734     42735     42734     42736     42735     42736
     42737     42738     42737     42739     42738     42739     42740     42741
     42740     42742     42741     42742     42743     42744     42743     42745
     42744     42745     42746     42747     42746     42748     42747     42748
     42749     42750     42749     42751     42750     42751     42752     42753
     42752     42754     42753     42754     42755     42756     42755     42757
     42756     42757     42758     42759     42758     42760     42759     42760
     42761     42762     42761     42763     42762     42763     42764     42765
     42764     42766     42765     42766     42767     42768     42767     42769
     42768     42769     42770     42771     42770     42772     42771     42772
     42773     42774     42773     42775     42774     42775     42776     42777
     42776     42778     42777     42778     42779     42780     42779     42781
     42780     42781     42782     42783     42782     42784     42783     42784
     42785     42786     42785     42787     42786     42787     42788     42789
     42788     42790     42789     42790     42791     42792     42791     42793
     42792     42793     42794     42795     42794     42796     42795     42796
     42797     42798     42797     42799     42798     42799     42800     42801
     42800     42802     42801     42802     42803     42804     42803     42805
     42804     42805     42806     42807     42806     42808     42807     42808
     42809     42810     42809     42811     42810     42811     42812     42813
     42812     42814     42813     42814     42815     42816     42815     42817
     42816     42817     42818     42819     42818     42820     42819     42820
     42821     42822     42821     42823     42822     42823     42824     42825
     42824     42826     42825     42826     42827     42828     42827     42829
     42828     42829     42830     42831     42830     42832     42831     42832
     42833     42834     42833     42835     42834     42835     42836     42837
     42836     42838     42837     42838     42839     42840     42839     42841
     42840     42841     42842     42843     42842     42844     42843     42844
     42845     42846     42845     42847     42846     42847     42848     42849
     42848     42850     42849     42850     42851     42852     42851     42853
     42852     42853     42854     42855     42854     42856     42855     42856
     42857     42858     42857     42859     42858     42859     42860     42861
     42860     42862     42861     42862     42863     42864     42863     42865
     42864     42865     42866     42867     42866     42868     42867     42868
     42869     42870     42869     42871     42870     42871     42872     42873
     42872     42874     42873     42874     42875     42876     42875     42877
     42876     42877     42878     42879     42878     42880     42879     42880
     42881     42882     42881     42883     42882     42883     42884     42885
     42884     42886     42885     42886     42887     42888     42887     42889
     42888     42889     42890     42891     42890     42892     42891     42892
     42893     42894     42893     42895     42894     42895     42896     42897
     42896     42898     42897     42898     42899     42900     42899     42901
     42900     42901     42902     42903     42902     42904     42903     42904
     42905     42906     42905     42907     42906     42907     42908     42909
     42908     42910     42909     42910     42911     42912     42911     42913
     42912     42913     42914     42915     42914     42916     42915     42916
     42917     42918     42917     42919     42918     42919     42920     42921
     42920     42922     42921     42922     42923     42924     42923     42925
     42924     42925     42926     42927     42926     42928     42927     42928
     42929     42930     42929     42931     42930     42931     42932     42933
     42932     42934     42933     42934     42935     42936     42935     42937
     42936     42937     42938     42939     42938     42940     42939     42940
     42941     42942     42941     42943     42942     42943     42944     42945
     42944     42946     42945     42946     42947     42948     42947     42949
     42948     42949     42950     42951     42950     42952     42951     42952
     42953     42954     42953     42955     42954     42955     42956     42957
     42956     42958     42957     42958     42959     42960     42959     42961
     42960     42961     42962     42963     42962     42964     42963     42964
     42965     42966     42965     42967     42966     42967     42968     42969
     42968     42970     42969     42970     42971     42972     42971     42973
     42972     42973     42974     42975     42974     42976     42975     42976
     42977     42978     42977     42979     42978     42979     42980     42981
     42980     42982     42981     42982     42983     42984     42983     42985
     42984     42985     42986     42987     42986     42988     42987     42988
     42989     42990     42989     42991     42990     42991     42992     42993
     42992     42994     42993     42994     42995     42996     42995     42997
     42996     42997     42998     42999     42998     43000     42999     43000
     43001     43002     43001     43003     43002     43003     43004     43005
     43004     43006     43005     43006     43007     43008     43007     43009
     43008     43009     43010     43011     43010     43012     43011     43012
     43013     43014     43013     43015     43014     43015     43016     43017
     43016     43018     43017     43018     43019     43020     43019     43021
     43020     43021     43022     43023     43022     43024     43023     43024
     43025     43026     43025     43027     43026     43027     43028     43029
     43028     43030     43029     43030     43031     43032     43031     43033
     43032     43033     43034     43035     43034     43036     43035     43036
     43037     43038     43037     43039     43038     43039     43040     43041
     43040     43042     43041     43042     43043     43044     43043     43045
     43044     43045     43046     43047     43046     43048     43047     43048
     43049     43050     43049     43051     43050     43051     43052     43053
     43052     43054     43053     43054     43055     43056     43055     43057
     43056     43057     43058     43059     43058     43060     43059     43060
     43061     43062     43061     43063     43062     43063     43064     43065
     43064     43066     43065     43066     43067     43068     43067     43069
     43068     43069     43070     43071     43070     43072     43071     43072
     43073     43074     43073     43075     43074     43075     43076     43077
     43076     43078     43077     43078     43079     43080     43079     43081
     43080     43081     43082     43083     43082     43084     43083     43084
     43085     43086     43085     43087     43086     43087     43088     43089
     43088     43090     43089     43090     43091     43092     43091     43093
     43092     43093     43094     43095     43094     43096     43095     43096
     43097     43098     43097     43099     43098     43099     43100     43101
     43100     43102     43101     43102     43103     43104     43103     43105
     43104     43105     43106     43107     43106     43108     43107     43108
     43109     43110     43109     43111     43110     43111     43112     43113
     43112     43114     43113     43114     43115     43116     43115     43117
     43116     43117     43118     43119     43118     43120     43119     43120
     43121     43122     43121     43123     43122     43123     43124     43125
     43124     43126     43125     43126     43127     43128     43127     43129
     43128     43129     43130     43131     43130     43132     43131     43132
     43133     43134     43133     43135     43134     43135     43136     43137
     43136     43138     43137     43138     43139     43140     43139     43141
     43140     43141     43142     43143     43142     43144     43143     43144
     43145     43146     43145     43147     43146     43147     43148     43149
     43148     43150     43149     43150     43151     43152     43151     43153
     43152     43153     43154     43155     43154     43156     43155     43156
     43157     43158     43157     43159     43158     43159     43160     43161
     43160     43162     43161     43162     43163     43164     43163     43165
     43164     43165     43166     43167     43166     43168     43167     43168
     43169     43170     43169     43171     43170     43171     43172     43173
     43172     43174     43173     43174     43175     43176     43175     43177
     43176     43177     43178     43179     43178     43180     43179     43180
     43181     43182     43181     43183     43182     43183     43184     43185
     43184     43186     43185     43186     43187     43188     43187     43189
     43188     43189     43190     43191     43190     43192     43191     43192
     43193     43194     43193     43195     43194     43195     43196     43197
     43196     43198     43197     43198     43199     43200     43199     43201
     43200     43201     43202     43203     43202     43204     43203     43204
     43205     43206     43205     43207     43206     43207     43208     43209
     43208     43210     43209     43210     43211     43212     43211     43213
     43212     43213     43214     43215     43214     43216     43215     43216
     43217     43218     43217     43219     43218     43219     43220     43221
     43220     43222     43221     43222     43223     43224     43223     43225
     43224     43225     43226     43227     43226     43228     43227     43228
     43229     43230     43229     43231     43230     43231     43232     43233
     43232     43234     43233     43234     43235     43236     43235     43237
     43236     43237     43238     43239     43238     43240     43239     43240
     43241     43242     43241     43243     43242     43243     43244     43245
     43244     43246     43245     43246     43247     43248     43247     43249
     43248     43249     43250     43251     43250     43252     43251     43252
     43253     43254     43253     43255     43254     43255     43256     43257
     43256     43258     43257     43258     43259     43260     43259     43261
     43260     43261     43262     43263     43262     43264     43263     43264
     43265     43266     43265     43267     43266     43267     43268     43269
     43268     43270     43269     43270     43271     43272     43271     43273
     43272     43273     43274     43275     43274     43276     43275     43276
     43277     43278     43277     43279     43278     43279     43280     43281
     43280     43282     43281     43282     43283     43284     43283     43285
     43284     43285     43286     43287     43286     43288     43287     43288
     43289     43290     43289     43291     43290     43291     43292     43293
     43292     43294     43293     43294     43295     43296     43295     43297
     43296     43297     43298     43299     43298     43300     43299     43300
     43301     43302     43301     43303     43302     43303     43304     43305
     43304     43306     43305     43306     43307     43308     43307     43309
     43308     43309     43310     43311     43310     43312     43311     43312
     43313     43314     43313     43315     43314     43315     43316     43317
     43316     43318     43317     43318     43319     43320     43319     43321
     43320     43321     43322     43323     43322     43324     43323     43324
     43325     43326     43325     43327     43326     43327     43328     43329
     43328     43330     43329     43330     43331     43332     43331     43333
     43332     43333     43334     43335     43334     43336     43335     43336
     43337     43338     43337     43339     43338     43339     43340     43341
     43340     43342     43341     43342     43343     43344     43343     43345
     43344     43345     43346     43347     43346     43348     43347     43348
     43349     43350     43349     43351     43350     43351     43352     43353
     43352     43354     43353     43354     43355     43356     43355     43357
     43356     43357     43358     43359     43358     43360     43359     43360
     43361     43362     43361     43363     43362     43363     43364     43365
     43364     43366     43365     43366     43367     43368     43367     43369
     43368     43369     43370     43371     43370     43372     43371     43372
     43373     43374     43373     43375     43374     43375     43376     43377
     43376     43378     43377     43378     43379     43380     43379     43381
     43380     43381     43382     43383     43382     43384     43383     43384
     43385     43386     43385     43387     43386     43387     43388     43389
     43388     43390     43389     43390     43391     43392     43391     43393
     43392     43393     43394     43395     43394     43396     43395     43396
     43397     43398     43397     43399     43398     43399     43400     43401
     43400     43402     43401     43402     43403     43404     43403     43405
     43404     43405     43406     43407     43406     43408     43407     43408
     43409     43410     43409     43411     43410     43411     43412     43413
     43412     43414     43413     43414     43415     43416     43415     43417
     43416     43417     43418     43419     43418     43420     43419     43420
     43421     43422     43421     43423     43422     43423     43424     43425
     43424     43426     43425     43426     43427     43428     43427     43429
     43428     43429     43430     43431     43430     43432     43431     43432
     43433     43434     43433     43435     43434     43435     43436     43437
     43436     43438     43437     43438     43439     43440     43439     43441
     43440     43441     43442     43443     43442     43444     43443     43444
     43445     43446     43445     43447     43446     43447     43448     43449
     43448     43450     43449     43450     43451     43452     43451     43453
     43452     43453     43454     43455     43454     43456     43455     43456
     43457     43458     43457     43459     43458     43459     43460     43461
     43460     43462     43461     43462     43463     43464     43463     43465
     43464     43465     43466     43467     43466     43468     43467     43468
     43469     43470     43469     43471     43470     43471     43472     43473
     43472     43474     43473     43474     43475     43476     43475     43477
     43476     43477     43478     43479     43478     43480     43479     43480
     43481     43482     43481     43483     43482     43483     43484     43485
     43484     43486     43485     43486     43487     43488     43487     43489
     43488     43489     43490     43491     43490     43492     43491     43492
     43493     43494     43493     43495     43494     43495     43496     43497
     43496     43498     43497     43498     43499     43500     43499     43501
     43500     43501     43502     43503     43502     43504     43503     43504
     43505     43506     43505     43507     43506     43507     43508     43509
     43508     43510     43509     43510     43511     43512     43511     43513
     43512     43513     43514     43515     43514     43516     43515     43516
     43517     43518     43517     43519     43518     43519     43520     43521
     43520     43522     43521     43522     43523     43524     43523     43525
     43524     43525     43526     43527     43526     43528     43527     43528
     43529     43530     43529     43531     43530     43531     43532     43533
     43532     43534     43533     43534     43535     43536     43535     43537
     43536     43537     43538     43539     43538     43540     43539     43540
     43541     43542     43541     43543     43542     43543     43544     43545
     43544     43546     43545     43546     43547     43548     43547     43549
     43548     43549     43550     43551     43550     43552     43551     43552
     43553     43554     43553     43555     43554     43555     43556     43557
     43556     43558     43557     43558     43559     43560     43559     43561
     43560     43561     43562     43563     43562     43564     43563     43564
     43565     43566     43565     43567     43566     43567     43568     43569
     43568     43570     43569     43570     43571     43572     43571     43573
     43572     43573     43574     43575     43574     43576     43575     43576
     43577     43578     43577     43579     43578     43579     43580     43581
     43580     43582     43581     43582     43583     43584     43583     43585
     43584     43585     43586     43587     43586     43588     43587     43588
     43589     43590     43589     43591     43590     43591     43592     43593
     43592     43594     43593     43594     43595     43596     43595     43597
     43596     43597     43598     43599     43598     43600     43599     43600
     43601     43602     43601     43603     43602     43603     43604     43605
     43604     43606     43605     43606     43607     43608     43607     43609
     43608     43609     43610     43611     43610     43612     43611     43612
     43613     43614     43613     43615     43614     43615     43616     43617
     43616     43618     43617     43618     43619     43620     43619     43621
     43620     43621     43622     43623     43622     43624     43623     43624
     43625     43626     43625     43627     43626     43627     43628     43629
     43628     43630     43629     43630     43631     43632     43631     43633
     43632     43633     43634     43635     43634     43636     43635     43636
     43637     43638     43637     43639     43638     43639     43640     43641
     43640     43642     43641     43642     43643     43644     43643     43645
     43644     43645     43646     43647     43646     43648     43647     43648
     43649     43650     43649     43651     43650     43651     43652     43653
     43652     43654     43653     43654     43655     43656     43655     43657
     43656     43657     43658     43659     43658     43660     43659     43660
     43661     43662     43661     43663     43662     43663     43664     43665
     43664     43666     43665     43666     43667     43668     43667     43669
     43668     43669     43670     43671     43670     43672     43671     43672
     43673     43674     43673     43675     43674     43675     43676     43677
     43676     43678     43677     43678     43679     43680     43679     43681
     43680     43681     43682     43683     43682     43684     43683     43684
     43685     43686     43685     43687     43686     43687     43688     43689
     43688     43690     43689     43690     43691     43692     43691     43693
     43692     43693     43694     43695     43694     43696     43695     43696
     43697     43698     43697     43699     43698     43699     43700     43701
     43700     43702     43701     43702     43703     43704     43703     43705
     43704     43705     43706     43707     43706     43708     43707     43708
     43709     43710     43709     43711     43710     43711     43712     43713
     43712     43714     43713     43714     43715     43716     43715     43717
     43716     43717     43718     43719     43718     43720     43719     43720
     43721     43722     43721     43723     43722     43723     43724     43725
     43724     43726     43725     43726     43727     43728     43727     43729
     43728     43729     43730     43731     43730     43732     43731     43732
     43733     43734     43733     43735     43734     43735     43736     43737
     43736     43738     43737     43738     43739     43740     43739     43741
     43740     43741     43742     43743     43742     43744     43743     43744
     43745     43746     43745     43747     43746     43747     43748     43749
     43748     43750     43749     43750     43751     43752     43751     43753
     43752     43753     43754     43755     43754     43756     43755     43756
     43757     43758     43757     43759     43758     43759     43760     43761
     43760     43762     43761     43762     43763     43764     43763     43765
     43764     43765     43766     43767     43766     43768     43767     43768
     43769     43770     43769     43771     43770     43771     43772     43773
     43772     43774     43773     43774     43775     43776     43775     43777
     43776     43777     43778     43779     43778     43780     43779     43780
     43781     43782     43781     43783     43782     43783     43784     43785
     43784     43786     43785     43786     43787     43788     43787     43789
     43788     43789     43790     43791     43790     43792     43791     43792
     43793     43794     43793     43795     43794     43795     43796     43797
     43796     43798     43797     43798     43799     43800     43799     43801
     43800     43801     43802     43803     43802     43804     43803     43804
     43805     43806     43805     43807     43806     43807     43808     43809
     43808     43810     43809     43810     43811     43812     43811     43813
     43812     43813     43814     43815     43814     43816     43815     43816
     43817     43818     43817     43819     43818     43819     43820     43821
     43820     43822     43821     43822     43823     43824     43823     43825
     43824     43825     43826     43827     43826     43828     43827     43828
     43829     43830     43829     43831     43830     43831     43832     43833
     43832     43834     43833     43834     43835     43836     43835     43837
     43836     43837     43838     43839     43838     43840     43839     43840
     43841     43842     43841     43843     43842     43843     43844     43845
     43844     43846     43845     43846     43847     43848     43847     43849
     43848     43849     43850     43851     43850     43852     43851     43852
     43853     43854     43853     43855     43854     43855     43856     43857
     43856     43858     43857     43858     43859     43860     43859     43861
     43860     43861     43862     43863     43862     43864     43863     43864
     43865     43866     43865     43867     43866     43867     43868     43869
     43868     43870     43869     43870     43871     43872     43871     43873
     43872     43873     43874     43875     43874     43876     43875     43876
     43877     43878     43877     43879     43878     43879     43880     43881
     43880     43882     43881     43882     43883     43884     43883     43885
     43884     43885     43886     43887     43886     43888     43887     43888
     43889     43890     43889     43891     43890     43891     43892     43893
     43892     43894     43893     43894     43895     43896     43895     43897
     43896     43897     43898     43899     43898     43900     43899     43900
     43901     43902     43901     43903     43902     43903     43904     43905
     43904     43906     43905     43906     43907     43908     43907     43909
     43908     43909     43910     43911     43910     43912     43911     43912
     43913     43914     43913     43915     43914     43915     43916     43917
     43916     43918     43917     43918     43919     43920     43919     43921
     43920     43921     43922     43923     43922     43924     43923     43924
     43925     43926     43925     43927     43926     43927     43928     43929
     43928     43930     43929     43930     43931     43932     43931     43933
     43932     43933     43934     43935     43934     43936     43935     43936
     43937     43938     43937     43939     43938     43939     43940     43941
     43940     43942     43941     43942     43943     43944     43943     43945
     43944     43945     43946     43947     43946     43948     43947     43948
     43949     43950     43949     43951     43950     43951     43952     43953
     43952     43954     43953     43954     43955     43956     43955     43957
     43956     43957     43958     43959     43958     43960     43959     43960
     43961     43962     43961     43963     43962     43963     43964     43965
     43964     43966     43965     43966     43967     43968     43967     43969
     43968     43969     43970     43971     43970     43972     43971     43972
     43973     43974     43973     43975     43974     43975     43976     43977
     43976     43978     43977     43978     43979     43980     43979     43981
     43980     43981     43982     43983     43982     43984     43983     43984
     43985     43986     43985     43987     43986     43987     43988     43989
     43988     43990     43989     43990     43991     43992     43991     43993
     43992     43993     43994     43995     43994     43996     43995     43996
     43997     43998     43997     43999     43998     43999     44000     44001
     44000     44002     44001     44002     44003     44004     44003     44005
     44004     44005     44006     44007     44006     44008     44007     44008
     44009     44010     44009     44011     44010     44011     44012     44013
     44012     44014     44013     44014     44015     44016     44015     44017
     44016     44017     44018     44019     44018     44020     44019     44020
     44021     44022     44021     44023     44022     44023     44024     44025
     44024     44026     44025     44026     44027     44028     44027     44029
     44028     44029     44030     44031     44030     44032     44031     44032
     44033     44034     44033     44035     44034     44035     44036     44037
     44036     44038     44037     44038     44039     44040     44039     44041
     44040     44041     44042     44043     44042     44044     44043     44044
     44045     44046     44045     44047     44046     44047     44048     44049
     44048     44050     44049     44050     44051     44052     44051     44053
     44052     44053     44054     44055     44054     44056     44055     44056
     44057     44058     44057     44059     44058     44059     44060     44061
     44060     44062     44061     44062     44063     44064     44063     44065
     44064     44065     44066     44067     44066     44068     44067     44068
     44069     44070     44069     44071     44070     44071     44072     44073
     44072     44074     44073     44074     44075     44076     44075     44077
     44076     44077     44078     44079     44078     44080     44079     44080
     44081     44082     44081     44083     44082     44083     44084     44085
     44084     44086     44085     44086     44087     44088     44087     44089
     44088     44089     44090     44091     44090     44092     44091     44092
     44093     44094     44093     44095     44094     44095     44096     44097
     44096     44098     44097     44098     44099     44100     44099     44101
     44100     44101     44102     44103     44102     44104     44103     44104
     44105     44106     44105     44107     44106     44107     44108     44109
     44108     44110     44109     44110     44111     44112     44111     44113
     44112     44113     44114     44115     44114     44116     44115     44116
     44117     44118     44117     44119     44118     44119     44120     44121
     44120     44122     44121     44122     44123     44124     44123     44125
     44124     44125     44126     44127     44126     44128     44127     44128
     44129     44130     44129     44131     44130     44131     44132     44133
     44132     44134     44133     44134     44135     44136     44135     44137
     44136     44137     44138     44139     44138     44140     44139     44140
     44141     44142     44141     44143     44142     44143     44144     44145
     44144     44146     44145     44146     44147     44148     44147     44149
     44148     44149     44150     44151     44150     44152     44151     44152
     44153     44154     44153     44155     44154     44155     44156     44157
     44156     44158     44157     44158     44159     44160     44159     44161
     44160     44161     44162     44163     44162     44164     44163     44164
     44165     44166     44165     44167     44166     44167     44168     44169
     44168     44170     44169     44170     44171     44172     44171     44173
     44172     44173     44174     44175     44174     44176     44175     44176
     44177     44178     44177     44179     44178     44179     44180     44181
     44180     44182     44181     44182     44183     44184     44183     44185
     44184     44185     44186     44187     44186     44188     44187     44188
     44189     44190     44189     44191     44190     44191     44192     44193
     44192     44194     44193     44194     44195     44196     44195     44197
     44196     44197     44198     44199     44198     44200     44199     44200
     44201     44202     44201     44203     44202     44203     44204     44205
     44204     44206     44205     44206     44207     44208     44207     44209
     44208     44209     44210     44211     44210     44212     44211     44212
     44213     44214     44213     44215     44214     44215     44216     44217
     44216     44218     44217     44218     44219     44220     44219     44221
     44220     44221     44222     44223     44222     44224     44223     44224
     44225     44226     44225     44227     44226     44227     44228     44229
     44228     44230     44229     44230     44231     44232     44231     44233
     44232     44233     44234     44235     44234     44236     44235     44236
     44237     44238     44237     44239     44238     44239     44240     44241
     44240     44242     44241     44242     44243     44244     44243     44245
     44244     44245     44246     44247     44246     44248     44247     44248
     44249     44250     44249     44251     44250     44251     44252     44253
     44252     44254     44253     44254     44255     44256     44255     44257
     44256     44257     44258     44259     44258     44260     44259     44260
     44261     44262     44261     44263     44262     44263     44264     44265
     44264     44266     44265     44266     44267     44268     44267     44269
     44268     44269     44270     44271     44270     44272     44271     44272
     44273     44274     44273     44275     44274     44275     44276     44277
     44276     44278     44277     44278     44279     44280     44279     44281
     44280     44281     44282     44283     44282     44284     44283     44284
     44285     44286     44285     44287     44286     44287     44288     44289
     44288     44290     44289     44290     44291     44292     44291     44293
     44292     44293     44294     44295     44294     44296     44295     44296
     44297     44298     44297     44299     44298     44299     44300     44301
     44300     44302     44301     44302     44303     44304     44303     44305
     44304     44305     44306     44307     44306     44308     44307     44308
     44309     44310     44309     44311     44310     44311     44312     44313
     44312     44314     44313     44314     44315     44316     44315     44317
     44316     44317     44318     44319     44318     44320     44319     44320
     44321     44322     44321     44323     44322     44323     44324     44325
     44324     44326     44325     44326     44327     44328     44327     44329
     44328     44329     44330     44331     44330     44332     44331     44332
     44333     44334     44333     44335     44334     44335     44336     44337
     44336     44338     44337     44338     44339     44340     44339     44341
     44340     44341     44342     44343     44342     44344     44343     44344
     44345     44346     44345     44347     44346     44347     44348     44349
     44348     44350     44349     44350     44351     44352     44351     44353
     44352     44353     44354     44355     44354     44356     44355     44356
     44357     44358     44357     44359     44358     44359     44360     44361
     44360     44362     44361     44362     44363     44364     44363     44365
     44364     44365     44366     44367     44366     44368     44367     44368
     44369     44370     44369     44371     44370     44371     44372     44373
     44372     44374     44373     44374     44375     44376     44375     44377
     44376     44377     44378     44379     44378     44380     44379     44380
     44381     44382     44381     44383     44382     44383     44384     44385
     44384     44386     44385     44386     44387     44388     44387     44389
     44388     44389     44390     44391     44390     44392     44391     44392
     44393     44394     44393     44395     44394     44395     44396     44397
     44396     44398     44397     44398     44399     44400     44399     44401
     44400     44401     44402     44403     44402     44404     44403     44404
     44405     44406     44405     44407     44406     44407     44408     44409
     44408     44410     44409     44410     44411     44412     44411     44413
     44412     44413     44414     44415     44414     44416     44415     44416
     44417     44418     44417     44419     44418     44419     44420     44421
     44420     44422     44421     44422     44423     44424     44423     44425
     44424     44425     44426     44427     44426     44428     44427     44428
     44429     44430     44429     44431     44430     44431     44432     44433
     44432     44434     44433     44434     44435     44436     44435     44437
     44436     44437     44438     44439     44438     44440     44439     44440
     44441     44442     44441     44443     44442     44443     44444     44445
     44444     44446     44445     44446     44447     44448     44447     44449
     44448     44449     44450     44451     44450     44452     44451     44452
     44453     44454     44453     44455     44454     44455     44456     44457
     44456     44458     44457     44458     44459     44460     44459     44461
     44460     44461     44462     44463     44462     44464     44463     44464
     44465     44466     44465     44467     44466     44467     44468     44469
     44468     44470     44469     44470     44471     44472     44471     44473
     44472     44473     44474     44475     44474     44476     44475     44476
     44477     44478     44477     44479     44478     44479     44480     44481
     44480     44482     44481     44482     44483     44484     44483     44485
     44484     44485     44486     44487     44486     44488     44487     44488
     44489     44490     44489     44491     44490     44491     44492     44493
     44492     44494     44493     44494     44495     44496     44495     44497
     44496     44497     44498     44499     44498     44500     44499     44500
     44501     44502     44501     44503     44502     44503     44504     44505
     44504     44506     44505     44506     44507     44508     44507     44509
     44508     44509     44510     44511     44510     44512     44511     44512
     44513     44514     44513     44515     44514     44515     44516     44517
     44516     44518     44517     44518     44519     44520     44519     44521
     44520     44521     44522     44523     44522     44524     44523     44524
     44525     44526     44525     44527     44526     44527     44528     44529
     44528     44530     44529     44530     44531     44532     44531     44533
     44532     44533     44534     44535     44534     44536     44535     44536
     44537     44538     44537     44539     44538     44539     44540     44541
     44540     44542     44541     44542     44543     44544     44543     44545
     44544     44545     44546     44547     44546     44548     44547     44548
     44549     44550     44549     44551     44550     44551     44552     44553
     44552     44554     44553     44554     44555     44556     44555     44557
     44556     44557     44558     44559     44558     44560     44559     44560
     44561     44562     44561     44563     44562     44563     44564     44565
     44564     44566     44565     44566     44567     44568     44567     44569
     44568     44569     44570     44571     44570     44572     44571     44572
     44573     44574     44573     44575     44574     44575     44576     44577
     44576     44578     44577     44578     44579     44580     44579     44581
     44580     44581     44582     44583     44582     44584     44583     44584
     44585     44586     44585     44587     44586     44587     44588     44589
     44588     44590     44589     44590     44591     44592     44591     44593
     44592     44593     44594     44595     44594     44596     44595     44596
     44597     44598     44597     44599     44598     44599     44600     44601
     44600     44602     44601     44602     44603     44604     44603     44605
     44604     44605     44606     44607     44606     44608     44607     44608
     44609     44610     44609     44611     44610     44611     44612     44613
     44612     44614     44613     44614     44615     44616     44615     44617
     44616     44617     44618     44619     44618     44620     44619     44620
     44621     44622     44621     44623     44622     44623     44624     44625
     44624     44626     44625     44626     44627     44628     44627     44629
     44628     44629     44630     44631     44630     44632     44631     44632
     44633     44634     44633     44635     44634     44635     44636     44637
     44636     44638     44637     44638     44639     44640     44639     44641
     44640     44641     44642     44643     44642     44644     44643     44644
     44645     44646     44645     44647     44646     44647     44648     44649
     44648     44650     44649     44650     44651     44652     44651     44653
     44652     44653     44654     44655     44654     44656     44655     44656
     44657     44658     44657     44659     44658     44659     44660     44661
     44660     44662     44661     44662     44663     44664     44663     44665
     44664     44665     44666     44667     44666     44668     44667     44668
     44669     44670     44669     44671     44670     44671     44672     44673
     44672     44674     44673     44674     44675     44676     44675     44677
     44676     44677     44678     44679     44678     44680     44679     44680
     44681     44682     44681     44683     44682     44683     44684     44685
     44684     44686     44685     44686     44687     44688     44687     44689
     44688     44689     44690     44691     44690     44692     44691     44692
     44693     44694     44693     44695     44694     44695     44696     44697
     44696     44698     44697     44698     44699     44700     44699     44701
     44700     44701     44702     44703     44702     44704     44703     44704
     44705     44706     44705     44707     44706     44707     44708     44709
     44708     44710     44709     44710     44711     44712     44711     44713
     44712     44713     44714     44715     44714     44716     44715     44716
     44717     44718     44717     44719     44718     44719     44720     44721
     44720     44722     44721     44722     44723     44724     44723     44725
     44724     44725     44726     44727     44726     44728     44727     44728
     44729     44730     44729     44731     44730     44731     44732     44733
     44732     44734     44733     44734     44735     44736     44735     44737
     44736     44737     44738     44739     44738     44740     44739     44740
     44741     44742     44741     44743     44742     44743     44744     44745
     44744     44746     44745     44746     44747     44748     44747     44749
     44748     44749     44750     44751     44750     44752     44751     44752
     44753     44754     44753     44755     44754     44755     44756     44757
     44756     44758     44757     44758     44759     44760     44759     44761
     44760     44761     44762     44763     44762     44764     44763     44764
     44765     44766     44765     44767     44766     44767     44768     44769
     44768     44770     44769     44770     44771     44772     44771     44773
     44772     44773     44774     44775     44774     44776     44775     44776
     44777     44778     44777     44779     44778     44779     44780     44781
     44780     44782     44781     44782     44783     44784     44783     44785
     44784     44785     44786     44787     44786     44788     44787     44788
     44789     44790     44789     44791     44790     44791     44792     44793
     44792     44794     44793     44794     44795     44796     44795     44797
     44796     44797     44798     44799     44798     44800     44799     44800
     44801     44802     44801     44803     44802     44803     44804     44805
     44804     44806     44805     44806     44807     44808     44807     44809
     44808     44809     44810     44811     44810     44812     44811     44812
     44813     44814     44813     44815     44814     44815     44816     44817
     44816     44818     44817     44818     44819     44820     44819     44821
     44820     44821     44822     44823     44822     44824     44823     44824
     44825     44826     44825     44827     44826     44827     44828     44829
     44828     44830     44829     44830     44831     44832     44831     44833
     44832     44833     44834     44835     44834     44836     44835     44836
     44837     44838     44837     44839     44838     44839     44840     44841
     44840     44842     44841     44842     44843     44844     44843     44845
     44844     44845     44846     44847     44846     44848     44847     44848
     44849     44850     44849     44851     44850     44851     44852     44853
     44852     44854     44853     44854     44855     44856     44855     44857
     44856     44857     44858     44859     44858     44860     44859     44860
     44861     44862     44861     44863     44862     44863     44864     44865
     44864     44866     44865     44866     44867     44868     44867     44869
     44868     44869     44870     44871     44870     44872     44871     44872
     44873     44874     44873     44875     44874     44875     44876     44877
     44876     44878     44877     44878     44879     44880     44879     44881
     44880     44881     44882     44883     44882     44884     44883     44884
     44885     44886     44885     44887     44886     44887     44888     44889
     44888     44890     44889     44890     44891     44892     44891     44893
     44892     44893     44894     44895     44894     44896     44895     44896
     44897     44898     44897     44899     44898     44899     44900     44901
     44900     44902     44901     44902     44903     44904     44903     44905
     44904     44905     44906     44907     44906     44908     44907     44908
     44909     44910     44909     44911     44910     44911     44912     44913
     44912     44914     44913     44914     44915     44916     44915     44917
     44916     44917     44918     44919     44918     44920     44919     44920
     44921     44922     44921     44923     44922     44923     44924     44925
     44924     44926     44925     44926     44927     44928     44927     44929
     44928     44929     44930     44931     44930     44932     44931     44932
     44933     44934     44933     44935     44934     44935     44936     44937
     44936     44938     44937     44938     44939     44940     44939     44941
     44940     44941     44942     44943     44942     44944     44943     44944
     44945     44946     44945     44947     44946     44947     44948     44949
     44948     44950     44949     44950     44951     44952     44951     44953
     44952     44953     44954     44955     44954     44956     44955     44956
     44957     44958     44957     44959     44958     44959     44960     44961
     44960     44962     44961     44962     44963     44964     44963     44965
     44964     44965     44966     44967     44966     44968     44967     44968
     44969     44970     44969     44971     44970     44971     44972     44973
     44972     44974     44973     44974     44975     44976     44975     44977
     44976     44977     44978     44979     44978     44980     44979     44980
     44981     44982     44981     44983     44982     44983     44984     44985
     44984     44986     44985     44986     44987     44988     44987     44989
     44988     44989     44990     44991     44990     44992     44991     44992
     44993     44994     44993     44995     44994     44995     44996     44997
     44996     44998     44997     44998     44999     45000     44999     45001
     45000     45001     45002     45003     45002     45004     45003     45004
     45005     45006     45005     45007     45006     45007     45008     45009
     45008     45010     45009     45010     45011     45012     45011     45013
     45012     45013     45014     45015     45014     45016     45015     45016
     45017     45018     45017     45019     45018     45019     45020     45021
     45020     45022     45021     45022     45023     45024     45023     45025
     45024     45025     45026     45027     45026     45028     45027     45028
     45029     45030     45029     45031     45030     45031     45032     45033
     45032     45034     45033     45034     45035     45036     45035     45037
     45036     45037     45038     45039     45038     45040     45039     45040
     45041     45042     45041     45043     45042     45043     45044     45045
     45044     45046     45045     45046     45047     45048     45047     45049
     45048     45049     45050     45051     45050     45052     45051     45052
     45053     45054     45053     45055     45054     45055     45056     45057
     45056     45058     45057     45058     45059     45060     45059     45061
     45060     45061     45062     45063     45062     45064     45063     45064
     45065     45066     45065     45067     45066     45067     45068     45069
     45068     45070     45069     45070     45071     45072     45071     45073
     45072     45073     45074     45075     45074     45076     45075     45076
     45077     45078     45077     45079     45078     45079     45080     45081
     45080     45082     45081     45082     45083     45084     45083     45085
     45084     45085     45086     45087     45086     45088     45087     45088
     45089     45090     45089     45091     45090     45091     45092     45093
     45092     45094     45093     45094     45095     45096     45095     45097
     45096     45097     45098     45099     45098     45100     45099     45100
     45101     45102     45101     45103     45102     45103     45104     45105
     45104     45106     45105     45106     45107     45108     45107     45109
     45108     45109     45110     45111     45110     45112     45111     45112
     45113     45114     45113     45115     45114     45115     45116     45117
     45116     45118     45117     45118     45119     45120     45119     45121
     45120     45121     45122     45123     45122     45124     45123     45124
     45125     45126     45125     45127     45126     45127     45128     45129
     45128     45130     45129     45130     45131     45132     45131     45133
     45132     45133     45134     45135     45134     45136     45135     45136
     45137     45138     45137     45139     45138     45139     45140     45141
     45140     45142     45141     45142     45143     45144     45143     45145
     45144     45145     45146     45147     45146     45148     45147     45148
     45149     45150     45149     45151     45150     45151     45152     45153
     45152     45154     45153     45154     45155     45156     45155     45157
     45156     45157     45158     45159     45158     45160     45159     45160
     45161     45162     45161     45163     45162     45163     45164     45165
     45164     45166     45165     45166     45167     45168     45167     45169
     45168     45169     45170     45171     45170     45172     45171     45172
     45173     45174     45173     45175     45174     45175     45176     45177
     45176     45178     45177     45178     45179     45180     45179     45181
     45180     45181     45182     45183     45182     45184     45183     45184
     45185     45186     45185     45187     45186     45187     45188     45189
     45188     45190     45189     45190     45191     45192     45191     45193
     45192     45193     45194     45195     45194     45196     45195     45196
     45197     45198     45197     45199     45198     45199     45200     45201
     45200     45202     45201     45202     45203     45204     45203     45205
     45204     45205     45206     45207     45206     45208     45207     45208
     45209     45210     45209     45211     45210     45211     45212     45213
     45212     45214     45213     45214     45215     45216     45215     45217
     45216     45217     45218     45219     45218     45220     45219     45220
     45221     45222     45221     45223     45222     45223     45224     45225
     45224     45226     45225     45226     45227     45228     45227     45229
     45228     45229     45230     45231     45230     45232     45231     45232
     45233     45234     45233     45235     45234     45235     45236     45237
     45236     45238     45237     45238     45239     45240     45239     45241
     45240     45241     45242     45243     45242     45244     45243     45244
     45245     45246     45245     45247     45246     45247     45248     45249
     45248     45250     45249     45250     45251     45252     45251     45253
     45252     45253     45254     45255     45254     45256     45255     45256
     45257     45258     45257     45259     45258     45259     45260     45261
     45260     45262     45261     45262     45263     45264     45263     45265
     45264     45265     45266     45267     45266     45268     45267     45268
     45269     45270     45269     45271     45270     45271     45272     45273
     45272     45274     45273     45274     45275     45276     45275     45277
     45276     45277     45278     45279     45278     45280     45279     45280
     45281     45282     45281     45283     45282     45283     45284     45285
     45284     45286     45285     45286     45287     45288     45287     45289
     45288     45289     45290     45291     45290     45292     45291     45292
     45293     45294     45293     45295     45294     45295     45296     45297
     45296     45298     45297     45298     45299     45300     45299     45301
     45300     45301     45302     45303     45302     45304     45303     45304
     45305     45306     45305     45307     45306     45307     45308     45309
     45308     45310     45309     45310     45311     45312     45311     45313
     45312     45313     45314     45315     45314     45316     45315     45316
     45317     45318     45317     45319     45318     45319     45320     45321
     45320     45322     45321     45322     45323     45324     45323     45325
     45324     45325     45326     45327     45326     45328     45327     45328
     45329     45330     45329     45331     45330     45331     45332     45333
     45332     45334     45333     45334     45335     45336     45335     45337
     45336     45337     45338     45339     45338     45340     45339     45340
     45341     45342     45341     45343     45342     45343     45344     45345
     45344     45346     45345     45346     45347     45348     45347     45349
     45348     45349     45350     45351     45350     45352     45351     45352
     45353     45354     45353     45355     45354     45355     45356     45357
     45356     45358     45357     45358     45359     45360     45359     45361
     45360     45361     45362     45363     45362     45364     45363     45364
     45365     45366     45365     45367     45366     45367     45368     45369
     45368     45370     45369     45370     45371     45372     45371     45373
     45372     45373     45374     45375     45374     45376     45375     45376
     45377     45378     45377     45379     45378     45379     45380     45381
     45380     45382     45381     45382     45383     45384     45383     45385
     45384     45385     45386     45387     45386     45388     45387     45388
     45389     45390     45389     45391     45390     45391     45392     45393
     45392     45394     45393     45394     45395     45396     45395     45397
     45396     45397     45398     45399     45398     45400     45399     45400
     45401     45402     45401     45403     45402     45403     45404     45405
     45404     45406     45405     45406     45407     45408     45407     45409
     45408     45409     45410     45411     45410     45412     45411     45412
     45413     45414     45413     45415     45414     45415     45416     45417
     45416     45418     45417     45418     45419     45420     45419     45421
     45420     45421     45422     45423     45422     45424     45423     45424
     45425     45426     45425     45427     45426     45427     45428     45429
     45428     45430     45429     45430     45431     45432     45431     45433
     45432     45433     45434     45435     45434     45436     45435     45436
     45437     45438     45437     45439     45438     45439     45440     45441
     45440     45442     45441     45442     45443     45444     45443     45445
     45444     45445     45446     45447     45446     45448     45447     45448
     45449     45450     45449     45451     45450     45451     45452     45453
     45452     45454     45453     45454     45455     45456     45455     45457
     45456     45457     45458     45459     45458     45460     45459     45460
     45461     45462     45461     45463     45462     45463     45464     45465
     45464     45466     45465     45466     45467     45468     45467     45469
     45468     45469     45470     45471     45470     45472     45471     45472
     45473     45474     45473     45475     45474     45475     45476     45477
     45476     45478     45477     45478     45479     45480     45479     45481
     45480     45481     45482     45483     45482     45484     45483     45484
     45485     45486     45485     45487     45486     45487     45488     45489
     45488     45490     45489     45490     45491     45492     45491     45493
     45492     45493     45494     45495     45494     45496     45495     45496
     45497     45498     45497     45499     45498     45499     45500     45501
     45500     45502     45501     45502     45503     45504     45503     45505
     45504     45505     45506     45507     45506     45508     45507     45508
     45509     45510     45509     45511     45510     45511     45512     45513
     45512     45514     45513     45514     45515     45516     45515     45517
     45516     45517     45518     45519     45518     45520     45519     45520
     45521     45522     45521     45523     45522     45523     45524     45525
     45524     45526     45525     45526     45527     45528     45527     45529
     45528     45529     45530     45531     45530     45532     45531     45532
     45533     45534     45533     45535     45534     45535     45536     45537
     45536     45538     45537     45538     45539     45540     45539     45541
     45540     45541     45542     45543     45542     45544     45543     45544
     45545     45546     45545     45547     45546     45547     45548     45549
     45548     45550     45549     45550     45551     45552     45551     45553
     45552     45553     45554     45555     45554     45556     45555     45556
     45557     45558     45557     45559     45558     45559     45560     45561
     45560     45562     45561     45562     45563     45564     45563     45565
     45564     45565     45566     45567     45566     45568     45567     45568
     45569     45570     45569     45571     45570     45571     45572     45573
     45572     45574     45573     45574     45575     45576     45575     45577
     45576     45577     45578     45579     45578     45580     45579     45580
     45581     45582     45581     45583     45582     45583     45584     45585
     45584     45586     45585     45586     45587     45588     45587     45589
     45588     45589     45590     45591     45590     45592     45591     45592
     45593     45594     45593     45595     45594     45595     45596     45597
     45596     45598     45597     45598     45599     45600     45599     45601
     45600     45601     45602     45603     45602     45604     45603     45604
     45605     45606     45605     45607     45606     45607     45608     45609
     45608     45610     45609     45610     45611     45612     45611     45613
     45612     45613     45614     45615     45614     45616     45615     45616
     45617     45618     45617     45619     45618     45619     45620     45621
     45620     45622     45621     45622     45623     45624     45623     45625
     45624     45625     45626     45627     45626     45628     45627     45628
     45629     45630     45629     45631     45630     45631     45632     45633
     45632     45634     45633     45634     45635     45636     45635     45637
     45636     45637     45638     45639     45638     45640     45639     45640
     45641     45642     45641     45643     45642     45643     45644     45645
     45644     45646     45645     45646     45647     45648     45647     45649
     45648     45649     45650     45651     45650     45652     45651     45652
     45653     45654     45653     45655     45654     45655     45656     45657
     45656     45658     45657     45658     45659     45660     45659     45661
     45660     45661     45662     45663     45662     45664     45663     45664
     45665     45666     45665     45667     45666     45667     45668     45669
     45668     45670     45669     45670     45671     45672     45671     45673
     45672     45673     45674     45675     45674     45676     45675     45676
     45677     45678     45677     45679     45678     45679     45680     45681
     45680     45682     45681     45682     45683     45684     45683     45685
     45684     45685     45686     45687     45686     45688     45687     45688
     45689     45690     45689     45691     45690     45691     45692     45693
     45692     45694     45693     45694     45695     45696     45695     45697
     45696     45697     45698     45699     45698     45700     45699     45700
     45701     45702     45701     45703     45702     45703     45704     45705
     45704     45706     45705     45706     45707     45708     45707     45709
     45708     45709     45710     45711     45710     45712     45711     45712
     45713     45714     45713     45715     45714     45715     45716     45717
     45716     45718     45717     45718     45719     45720     45719     45721
     45720     45721     45722     45723     45722     45724     45723     45724
     45725     45726     45725     45727     45726     45727     45728     45729
     45728     45730     45729     45730     45731     45732     45731     45733
     45732     45733     45734     45735     45734     45736     45735     45736
     45737     45738     45737     45739     45738     45739     45740     45741
     45740     45742     45741     45742     45743     45744     45743     45745
     45744     45745     45746     45747     45746     45748     45747     45748
     45749     45750     45749     45751     45750     45751     45752     45753
     45752     45754     45753     45754     45755     45756     45755     45757
     45756     45757     45758     45759     45758     45760     45759     45760
     45761     45762     45761     45763     45762     45763     45764     45765
     45764     45766     45765     45766     45767     45768     45767     45769
     45768     45769     45770     45771     45770     45772     45771     45772
     45773     45774     45773     45775     45774     45775     45776     45777
     45776     45778     45777     45778     45779     45780     45779     45781
     45780     45781     45782     45783     45782     45784     45783     45784
     45785     45786     45785     45787     45786     45787     45788     45789
     45788     45790     45789     45790     45791     45792     45791     45793
     45792     45793     45794     45795     45794     45796     45795     45796
     45797     45798     45797     45799     45798     45799     45800     45801
     45800     45802     45801     45802     45803     45804     45803     45805
     45804     45805     45806     45807     45806     45808     45807     45808
     45809     45810     45809     45811     45810     45811     45812     45813
     45812     45814     45813     45814     45815     45816     45815     45817
     45816     45817     45818     45819     45818     45820     45819     45820
     45821     45822     45821     45823     45822     45823     45824     45825
     45824     45826     45825     45826     45827     45828     45827     45829
     45828     45829     45830     45831     45830     45832     45831     45832
     45833     45834     45833     45835     45834     45835     45836     45837
     45836     45838     45837     45838     45839     45840     45839     45841
     45840     45841     45842     45843     45842     45844     45843     45844
     45845     45846     45845     45847     45846     45847     45848     45849
     45848     45850     45849     45850     45851     45852     45851     45853
     45852     45853     45854     45855     45854     45856     45855     45856
     45857     45858     45857     45859     45858     45859     45860     45861
     45860     45862     45861     45862     45863     45864     45863     45865
     45864     45865     45866     45867     45866     45868     45867     45868
     45869     45870     45869     45871     45870     45871     45872     45873
     45872     45874     45873     45874     45875     45876     45875     45877
     45876     45877     45878     45879     45878     45880     45879     45880
     45881     45882     45881     45883     45882     45883     45884     45885
     45884     45886     45885     45886     45887     45888     45887     45889
     45888     45889     45890     45891     45890     45892     45891     45892
     45893     45894     45893     45895     45894     45895     45896     45897
     45896     45898     45897     45898     45899     45900     45899     45901
     45900     45901     45902     45903     45902     45904     45903     45904
     45905     45906     45905     45907     45906     45907     45908     45909
     45908     45910     45909     45910     45911     45912     45911     45913
     45912     45913     45914     45915     45914     45916     45915     45916
     45917     45918     45917     45919     45918     45919     45920     45921
     45920     45922     45921     45922     45923     45924     45923     45925
     45924     45925     45926     45927     45926     45928     45927     45928
     45929     45930     45929     45931     45930     45931     45932     45933
     45932     45934     45933     45934     45935     45936     45935     45937
     45936     45937     45938     45939     45938     45940     45939     45940
     45941     45942     45941     45943     45942     45943     45944     45945
     45944     45946     45945     45946     45947     45948     45947     45949
     45948     45949     45950     45951     45950     45952     45951     45952
     45953     45954     45953     45955     45954     45955     45956     45957
     45956     45958     45957     45958     45959     45960     45959     45961
     45960     45961     45962     45963     45962     45964     45963     45964
     45965     45966     45965     45967     45966     45967     45968     45969
     45968     45970     45969     45970     45971     45972     45971     45973
     45972     45973     45974     45975     45974     45976     45975     45976
     45977     45978     45977     45979     45978     45979     45980     45981
     45980     45982     45981     45982     45983     45984     45983     45985
     45984     45985     45986     45987     45986     45988     45987     45988
     45989     45990     45989     45991     45990     45991     45992     45993
     45992     45994     45993     45994     45995     45996     45995     45997
     45996     45997     45998     45999     45998     46000     45999     46000
     46001     46002     46001     46003     46002     46003     46004     46005
     46004     46006     46005     46006     46007     46008     46007     46009
     46008     46009     46010     46011     46010     46012     46011     46012
     46013     46014     46013     46015     46014     46015     46016     46017
     46016     46018     46017     46018     46019     46020     46019     46021
     46020     46021     46022     46023     46022     46024     46023     46024
     46025     46026     46025     46027     46026     46027     46028     46029
     46028     46030     46029     46030     46031     46032     46031     46033
     46032     46033     46034     46035     46034     46036     46035     46036
     46037     46038     46037     46039     46038     46039     46040     46041
     46040     46042     46041     46042     46043     46044     46043     46045
     46044     46045     46046     46047     46046     46048     46047     46048
     46049     46050     46049     46051     46050     46051     46052     46053
     46052     46054     46053     46054     46055     46056     46055     46057
     46056     46057     46058     46059     46058     46060     46059     46060
     46061     46062     46061     46063     46062     46063     46064     46065
     46064     46066     46065     46066     46067     46068     46067     46069
     46068     46069     46070     46071     46070     46072     46071     46072
     46073     46074     46073     46075     46074     46075     46076     46077
     46076     46078     46077     46078     46079     46080     46079     46081
     46080     46081     46082     46083     46082     46084     46083     46084
     46085     46086     46085     46087     46086     46087     46088     46089
     46088     46090     46089     46090     46091     46092     46091     46093
     46092     46093     46094     46095     46094     46096     46095     46096
     46097     46098     46097     46099     46098     46099     46100     46101
     46100     46102     46101     46102     46103     46104     46103     46105
     46104     46105     46106     46107     46106     46108     46107     46108
     46109     46110     46109     46111     46110     46111     46112     46113
     46112     46114     46113     46114     46115     46116     46115     46117
     46116     46117     46118     46119     46118     46120     46119     46120
     46121     46122     46121     46123     46122     46123     46124     46125
     46124     46126     46125     46126     46127     46128     46127     46129
     46128     46129     46130     46131     46130     46132     46131     46132
     46133     46134     46133     46135     46134     46135     46136     46137
     46136     46138     46137     46138     46139     46140     46139     46141
     46140     46141     46142     46143     46142     46144     46143     46144
     46145     46146     46145     46147     46146     46147     46148     46149
     46148     46150     46149     46150     46151     46152     46151     46153
     46152     46153     46154     46155     46154     46156     46155     46156
     46157     46158     46157     46159     46158     46159     46160     46161
     46160     46162     46161     46162     46163     46164     46163     46165
     46164     46165     46166     46167     46166     46168     46167     46168
     46169     46170     46169     46171     46170     46171     46172     46173
     46172     46174     46173     46174     46175     46176     46175     46177
     46176     46177     46178     46179     46178     46180     46179     46180
     46181     46182     46181     46183     46182     46183     46184     46185
     46184     46186     46185     46186     46187     46188     46187     46189
     46188     46189     46190     46191     46190     46192     46191     46192
     46193     46194     46193     46195     46194     46195     46196     46197
     46196     46198     46197     46198     46199     46200     46199     46201
     46200     46201     46202     46203     46202     46204     46203     46204
     46205     46206     46205     46207     46206     46207     46208     46209
     46208     46210     46209     46210     46211     46212     46211     46213
     46212     46213     46214     46215     46214     46216     46215     46216
     46217     46218     46217     46219     46218     46219     46220     46221
     46220     46222     46221     46222     46223     46224     46223     46225
     46224     46225     46226     46227     46226     46228     46227     46228
     46229     46230     46229     46231     46230     46231     46232     46233
     46232     46234     46233     46234     46235     46236     46235     46237
     46236     46237     46238     46239     46238     46240     46239     46240
     46241     46242     46241     46243     46242     46243     46244     46245
     46244     46246     46245     46246     46247     46248     46247     46249
     46248     46249     46250     46251     46250     46252     46251     46252
     46253     46254     46253     46255     46254     46255     46256     46257
     46256     46258     46257     46258     46259     46260     46259     46261
     46260     46261     46262     46263     46262     46264     46263     46264
     46265     46266     46265     46267     46266     46267     46268     46269
     46268     46270     46269     46270     46271     46272     46271     46273
     46272     46273     46274     46275     46274     46276     46275     46276
     46277     46278     46277     46279     46278     46279     46280     46281
     46280     46282     46281     46282     46283     46284     46283     46285
     46284     46285     46286     46287     46286     46288     46287     46288
     46289     46290     46289     46291     46290     46291     46292     46293
     46292     46294     46293     46294     46295     46296     46295     46297
     46296     46297     46298     46299     46298     46300     46299     46300
     46301     46302     46301     46303     46302     46303     46304     46305
     46304     46306     46305     46306     46307     46308     46307     46309
     46308     46309     46310     46311     46310     46312     46311     46312
     46313     46314     46313     46315     46314     46315     46316     46317
     46316     46318     46317     46318     46319     46320     46319     46321
     46320     46321     46322     46323     46322     46324     46323     46324
     46325     46326     46325     46327     46326     46327     46328     46329
     46328     46330     46329     46330     46331     46332     46331     46333
     46332     46333     46334     46335     46334     46336     46335     46336
     46337     46338     46337     46339     46338     46339     46340     46341
     46340     46342     46341     46342     46343     46344     46343     46345
     46344     46345     46346     46347     46346     46348     46347     46348
     46349     46350     46349     46351     46350     46351     46352     46353
     46352     46354     46353     46354     46355     46356     46355     46357
     46356     46357     46358     46359     46358     46360     46359     46360
     46361     46362     46361     46363     46362     46363     46364     46365
     46364     46366     46365     46366     46367     46368     46367     46369
     46368     46369     46370     46371     46370     46372     46371     46372
     46373     46374     46373     46375     46374     46375     46376     46377
     46376     46378     46377     46378     46379     46380     46379     46381
     46380     46381     46382     46383     46382     46384     46383     46384
     46385     46386     46385     46387     46386     46387     46388     46389
     46388     46390     46389     46390     46391     46392     46391     46393
     46392     46393     46394     46395     46394     46396     46395     46396
     46397     46398     46397     46399     46398     46399     46400     46401
     46400     46402     46401     46402     46403     46404     46403     46405
     46404     46405     46406     46407     46406     46408     46407     46408
     46409     46410     46409     46411     46410     46411     46412     46413
     46412     46414     46413     46414     46415     46416     46415     46417
     46416     46417     46418     46419     46418     46420     46419     46420
     46421     46422     46421     46423     46422     46423     46424     46425
     46424     46426     46425     46426     46427     46428     46427     46429
     46428     46429     46430     46431     46430     46432     46431     46432

     60568 !NTHETA: angles
         2         1         5         2         1         9         2         1        13
         5         1         9         5         1        13         9         1        13
         1         2         3         1         2         4         1         2        17
         3         2         4         3         2        17         4         2        17
         1         5         6         1         5         7         1         5         8
         6         5         7         6         5         8         7         5         8
         1         9        10         1         9        11         1         9        12
        10         9        11        10         9        12        11         9        12
         1        13        14         1        13        15         1        13        16
        14        13        15        14        13        16        15        13        16
         2        17        18         2        17        19         2        17        23
        18        17        19        18        17        23        19        17        23
        21        20        22        21        20        23        21        20        24
        22        20        23        22        20        24        23        20        24
        17        23        20        20        24        25        24        25        26
        24        25        27        24        25        28        26        25        27
        26        25        28        27        25        28        25        28        29
        25        28        30        25        28        36        29        28        30
        29        28        36        30        28        36        28        30        31
        30        31        32        30        31        33        32        31        33
        31        33        34        31        33        35        31        33        45
        34        33        35        34        33        45        35        33        45
        28        36        37        28        36        38        28        36        39
        37        36        38        37        36        39        38        36        39
        36        39        40        39        40        41        39        40        42
        41        40        42        40        42        43        40        42        44
        40        42        92        43        42        44        43        42        92
        44        42        92        33        45        46        33        45        47
        33        45        48        46        45        47        46        45        48
        47        45        48        45        48        49        45        48        50
        45        48        51        49        48        50        49        48        51
        50        48        51        48        51        52        48        51        53
        48        51        54        52        51        53        52        51        54
        53        51        54        51        54        55        51        54        56
        51        54        57        55        54        56        55        54        57
        56        54        57        54        57        58        54        57        59
        54        57        60        58        57        59        58        57        60
        59        57        60        57        60        61        57        60        62
        57        60        63        61        60        62        61        60        63
        62        60        63        60        63        64        60        63        65
        64        63        65        63        65        66        63        65        67
        66        65        67        65        67        68        65        67        69
        65        67        70        68        67        69        68        67        70
        69        67        70        67        70        71        67        70        72
        67        70        73        71        70        72        71        70        73
        72        70        73        70        73        74        70        73        75
        70        73        76        74        73        75        74        73        76
        75        73        76        73        76        77        73        76        78
        73        76        79        77        76        78        77        76        79
        78        76        79        76        79        80        76        79        81
        76        79        82        80        79        81        80        79        82
        81        79        82        79        82        83        79        82        84
        79        82        85        83        82        84        83        82        85
        84        82        85        82        85        86        82        85        87
        82        85        88        86        85        87        86        85        88
        87        85        88        85        88        89        85        88        90
        85        88        91        89        88        90        89        88        91
        90        88        91        42        92        93        42        92        94
        42        92        95        93        92        94        93        92        95
        94        92        95        92        95        96        92        95        97
        92        95        98        96        95        97        96        95        98
        97        95        98        95        98        99        95        98       100
        95        98       101        99        98       100        99        98       101
       100        98       101        98       101       102        98       101       103
        98       101       104       102       101       103       102       101       104
       103       101       104       101       104       105       101       104       106
       101       104       107       105       104       106       105       104       107
       106       104       107       104       107       108       104       107       109
       104       107       110       108       107       109       108       107       110
       109       107       110       107       110       111       107       110       112
       107       110       113       111       110       112       111       110       113
       112       110       113       110       113       114       110       113       115
       110       113       116       114       113       115       114       113       116
       115       113       116       113       116       117       113       116       118
       113       116       119       117       116       118       117       116       119
       118       116       119       116       119       120       116       119       121
       116       119       122       120       119       121       120       119       122
       121       119       122       119       122       123       119       122       124
       119       122       125       123       122       124       123       122       125
       124       122       125       122       125       126       122       125       127
       122       125       128       126       125       127       126       125       128
       127       125       128       125       128       129       125       128       130
       125       128       131       129       128       130       129       128       131
       130       128       131       128       131       132       128       131       133
       128       131       134       132       131       133       132       131       134
       133       131       134       136       135       137       136       135       138
       136       135       139       137       135       138       137       135       139
       138       135       139       135       139       140       135       139       141
       135       139       144       140       139       141       140       139       144
       141       139       144       139       141       142       139       141       143
       142       141       143       139       144       145       139       144       146
       139       144       150       145       144       146       145       144       150
       146       144       150       148       147       149       148       147       150
       148       147       151       149       147       150       149       147       151
       150       147       151       144       150       147       147       151       152
       151       152       153       151       152       154       151       152       155
       153       152       154       153       152       155       154       152       155
       152       155       156       152       155       157       152       155       163
       156       155       157       156       155       163       157       155       163
       155       157       158       157       158       159       157       158       160
       159       158       160       158       160       161       158       160       162
       158       160       172       161       160       162       161       160       172
       162       160       172       155       163       164       155       163       165
       155       163       166       164       163       165       164       163       166
       165       163       166       163       166       167       166       167       168
       166       167       169       168       167       169       167       169       170
       167       169       171       167       169       219       170       169       171
       170       169       219       171       169       219       160       172       173
       160       172       174       160       172       175       173       172       174
       173       172       175       174       172       175       172       175       176
       172       175       177       172       175       178       176       175       177
       176       175       178       177       175       178       175       178       179
       175       178       180       175       178       181       179       178       180
       179       178       181       180       178       181       178       181       182
       178       181       183       178       181       184       182       181       183
       182       181       184       183       181       184       181       184       185
       181       184       186       181       184       187       185       184       186
       185       184       187       186       184       187       184       187       188
       184       187       189       184       187       190       188       187       189
       188       187       190       189       187       190       187       190       191
       187       190       192       191       190       192       190       192       193
       190       192       194       193       192       194       192       194       195
       192       194       196       192       194       197       195       194       196
       195       194       197       196       194       197       194       197       198
       194       197       199       194       197       200       198       197       199
       198       197       200       199       197       200       197       200       201
       197       200       202       197       200       203       201       200       202
       201       200       203       202       200       203       200       203       204
       200       203       205       200       203       206       204       203       205
       204       203       206       205       203       206       203       206       207
       203       206       208       203       206       209       207       206       208
       207       206       209       208       206       209       206       209       210
       206       209       211       206       209       212       210       209       211
       210       209       212       211       209       212       209       212       213
       209       212       214       209       212       215       213       212       214
       213       212       215       214       212       215       212       215       216
       212       215       217       212       215       218       216       215       217
       216       215       218       217       215       218       169       219       220
       169       219       221       169       219       222       220       219       221
       220       219       222       221       219       222       219       222       223
       219       222       224       219       222       225       223       222       224
       223       222       225       224       222       225       222       225       226
       222       225       227       222       225       228       226       225       227
       226       225       228       227       225       228       225       228       229
       225       228       230       225       228       231       229       228       230
       229       228       231       230       228       231       228       231       232
       228       231       233       228       231       234       232       231       233
       232       231       234       233       231       234       231       234       235
       231       234       236       231       234       237       235       234       236
       235       234       237       236       234       237       234       237       238
       234       237       239       234       237       240       238       237       239
       238       237       240       239       237       240       237       240       241
       237       240       242       237       240       243       241       240       242
       241       240       243       242       240       243       240       243       244
       240       243       245       240       243       246       244       243       245
       244       243       246       245       243       246       243       246       247
       243       246       248       243       246       249       247       246       248
       247       246       249       248       246       249       246       249       250
       246       249       251       246       249       252       250       249       251
       250       249       252       251       249       252       249       252       253
       249       252       254       249       252       255       253       252       254
       253       252       255       254       252       255       252       255       256
       252       255       257       252       255       258       256       255       257
       256       255       258       257       255       258       255       258       259
       255       258       260       255       258       261       259       258       260
       259       258       261       260       258       261       263       262       266
       263       262       270       263       262       274       266       262       270
       266       262       274       270       262       274       262       263       264
       262       263       265       262       263       278       264       263       265
       264       263       278       265       263       278       262       266       267
       262       266       268       262       266       269       267       266       268
       267       266       269       268       266       269       262       270       271
       262       270       272       262       270       273       271       270       272
       271       270       273       272       270       273       262       274       275
       262       274       276       262       274       277       275       274       276
       275       274       277       276       274       277       263       278       279
       263       278       280       263       278       284       279       278       280
       279       278       284       280       278       284       282       281       283
       282       281       284       282       281       285       283       281       284
       283       281       285       284       281       285       278       284       281
       281       285       286       285       286       287       285       286       288
       285       286       289       287       286       288       287       286       289
       288       286       289       286       289       290       286       289       291
       286       289       297       290       289       291       290       289       297
       291       289       297       289       291       292       291       292       293
       291       292       294       293       292       294       292       294       295
       292       294       296       292       294       306       295       294       296
       295       294       306       296       294       306       289       297       298
       289       297       299       289       297       300       298       297       299
       298       297       300       299       297       300       297       300       301
       300       301       302       300       301       303       302       301       303
       301       303       304       301       303       305       301       303       353
       304       303       305       304       303       353       305       303       353
       294       306       307       294       306       308       294       306       309
       307       306       308       307       306       309       308       306       309
       306       309       310       306       309       311       306       309       312
       310       309       311       310       309       312       311       309       312
       309       312       313       309       312       314       309       312       315
       313       312       314       313       312       315       314       312       315
       312       315       316       312       315       317       312       315       318
       316       315       317       316       315       318       317       315       318
       315       318       319       315       318       320       315       318       321
       319       318       320       319       318       321       320       318       321
       318       321       322       318       321       323       318       321       324
       322       321       323       322       321       324       323       321       324
       321       324       325       321       324       326       325       324       326
       324       326       327       324       326       328       327       326       328
       326       328       329       326       328       330       326       328       331
       329       328       330       329       328       331       330       328       331
       328       331       332       328       331       333       328       331       334
       332       331       333       332       331       334       333       331       334
       331       334       335       331       334       336       331       334       337
       335       334       336       335       334       337       336       334       337
       334       337       338       334       337       339       334       337       340
       338       337       339       338       337       340       339       337       340
       337       340       341       337       340       342       337       340       343
       341       340       342       341       340       343       342       340       343
       340       343       344       340       343       345       340       343       346
       344       343       345       344       343       346       345       343       346
       343       346       347       343       346       348       343       346       349
       347       346       348       347       346       349       348       346       349
       346       349       350       346       349       351       346       349       352
       350       349       351       350       349       352       351       349       352
       303       353       354       303       353       355       303       353       356
       354       353       355       354       353       356       355       353       356
       353       356       357       353       356       358       353       356       359
       357       356       358       357       356       359       358       356       359
       356       359       360       356       359       361       356       359       362
       360       359       361       360       359       362       361       359       362
       359       362       363       359       362       364       359       362       365
       363       362       364       363       362       365       364       362       365
       362       365       366       362       365       367       362       365       368
       366       365       367       366       365       368       367       365       368
       365       368       369       365       368       370       365       368       371
       369       368       370       369       368       371       370       368       371
       368       371       372       368       371       373       368       371       374
       372       371       373       372       371       374       373       371       374
       371       374       375       371       374       376       371       374       377
       375       374       376       375       374       377       376       374       377
       374       377       378       374       377       379       374       377       380
       378       377       379       378       377       380       379       377       380
       377       380       381       377       380       382       377       380       383
       381       380       382       381       380       383       382       380       383
       380       383       384       380       383       385       380       383       386
       384       383       385       384       383       386       385       383       386
       383       386       387       383       386       388       383       386       389
       387       386       388       387       386       389       388       386       389
       386       389       390       386       389       391       386       389       392
       390       389       391       390       389       392       391       389       392
       389       392       393       389       392       394       389       392       395
       393       392       394       393       392       395       394       392       395
       397       396       400       397       396       404       397       396       408
       400       396       404       400       396       408       404       396       408
       396       397       398       396       397       399       396       397       412
       398       397       399       398       397       412       399       397       412
       396       400       401       396       400       402       396       400       403
       401       400       402       401       400       403       402       400       403
       396       404       405       396       404       406       396       404       407
       405       404       406       405       404       407       406       404       407
       396       408       409       396       408       410       396       408       411
       409       408       410       409       408       411       410       408       411
       397       412       413       397       412       414       397       412       418
       413       412       414       413       412       418       414       412       418
       416       415       417       416       415       418       416       415       419
       417       415       418       417       415       419       418       415       419
       412       418       415       415       419       420       419       420       421
       419       420       422       419       420       423       421       420       422
       421       420       423       422       420       423       420       423       424
       420       423       425       420       423       431       424       423       425
       424       423       431       425       423       431       423       425       426
       425       426       427       425       426       428       427       426       428
       426       428       429       426       428       430       426       428       440
       429       428       430       429       428       440       430       428       440
       423       431       432       423       431       433       423       431       434
       432       431       433       432       431       434       433       431       434
       431       434       435       434       435       436       434       435       437
       436       435       437       435       437       438       435       437       439
       435       437       487       438       437       439       438       437       487
       439       437       487       428       440       441       428       440       442
       428       440       443       441       440       442       441       440       443
       442       440       443       440       443       444       440       443       445
       440       443       446       444       443       445       444       443       446
       445       443       446       443       446       447       443       446       448
       443       446       449       447       446       448       447       446       449
       448       446       449       446       449       450       446       449       451
       446       449       452       450       449       451       450       449       452
       451       449       452       449       452       453       449       452       454
       449       452       455       453       452       454       453       452       455
       454       452       455       452       455       456       452       455       457
       452       455       458       456       455       457       456       455       458
       457       455       458       455       458       459       455       458       460
       459       458       460       458       460       461       458       460       462
       461       460       462       460       462       463       460       462       464
       460       462       465       463       462       464       463       462       465
       464       462       465       462       465       466       462       465       467
       462       465       468       466       465       467       466       465       468
       467       465       468       465       468       469       465       468       470
       465       468       471       469       468       470       469       468       471
       470       468       471       468       471       472       468       471       473
       468       471       474       472       471       473       472       471       474
       473       471       474       471       474       475       471       474       476
       471       474       477       475       474       476       475       474       477
       476       474       477       474       477       478       474       477       479
       474       477       480       478       477       479       478       477       480
       479       477       480       477       480       481       477       480       482
       477       480       483       481       480       482       481       480       483
       482       480       483       480       483       484       480       483       485
       480       483       486       484       483       485       484       483       486
       485       483       486       437       487       488       437       487       489
       437       487       490       488       487       489       488       487       490
       489       487       490       487       490       491       487       490       492
       487       490       493       491       490       492       491       490       493
       492       490       493       490       493       494       490       493       495
       490       493       496       494       493       495       494       493       496
       495       493       496       493       496       497       493       496       498
       493       496       499       497       496       498       497       496       499
       498       496       499       496       499       500       496       499       501
       496       499       502       500       499       501       500       499       502
       501       499       502       499       502       503       499       502       504
       499       502       505       503       502       504       503       502       505
       504       502       505       502       505       506       502       505       507
       502       505       508       506       505       507       506       505       508
       507       505       508       505       508       509       505       508       510
       505       508       511       509       508       510       509       508       511
       510       508       511       508       511       512       508       511       513
       508       511       514       512       511       513       512       511       514
       513       511       514       511       514       515       511       514       516
       511       514       517       515       514       516       515       514       517
       516       514       517       514       517       518       514       517       519
       514       517       520       518       517       519       518       517       520
       519       517       520       517       520       521       517       520       522
       517       520       523       521       520       522       521       520       523
       522       520       523       520       523       524       520       523       525
       520       523       526       524       523       525       524       523       526
       525       523       526       523       526       527       523       526       528
       523       526       529       527       526       528       527       526       529
       528       526       529       531       530       534       531       530       538
       531       530       542       534       530       538       534       530       542
       538       530       542       530       531       532       530       531       533
       530       531       546       532       531       533       532       531       546
       533       531       546       530       534       535       530       534       536
       530       534       537       535       534       536       535       534       537
       536       534       537       530       538       539       530       538       540
       530       538       541       539       538       540       539       538       541
       540       538       541       530       542       543       530       542       544
       530       542       545       543       542       544       543       542       545
       544       542       545       531       546       547       531       546       548
       531       546       552       547       546       548       547       546       552
       548       546       552       550       549       551       550       549       552
       550       549       553       551       549       552       551       549       553
       552       549       553       546       552       549       549       553       554
       553       554       555       553       554       556       553       554       557
       555       554       556       555       554       557       556       554       557
       554       557       558       554       557       559       554       557       565
       558       557       559       558       557       565       559       557       565
       557       559       560       559       560       561       559       560       562
       561       560       562       560       562       563       560       562       564
       560       562       574       563       562       564       563       562       574
       564       562       574       557       565       566       557       565       567
       557       565       568       566       565       567       566       565       568
       567       565       568       565       568       569       568       569       570
       568       569       571       570       569       571       569       571       572
       569       571       573       569       571       621       572       571       573
       572       571       621       573       571       621       562       574       575
       562       574       576       562       574       577       575       574       576
       575       574       577       576       574       577       574       577       578
       574       577       579       574       577       580       578       577       579
       578       577       580       579       577       580       577       580       581
       577       580       582       577       580       583       581       580       582
       581       580       583       582       580       583       580       583       584
       580       583       585       580       583       586       584       583       585
       584       583       586       585       583       586       583       586       587
       583       586       588       583       586       589       587       586       588
       587       586       589       588       586       589       586       589       590
       586       589       591       586       589       592       590       589       591
       590       589       592       591       589       592       589       592       593
       589       592       594       593       592       594       592       594       595
       592       594       596       595       594       596       594       596       597
       594       596       598       594       596       599       597       596       598
       597       596       599       598       596       599       596       599       600
       596       599       601       596       599       602       600       599       601
       600       599       602       601       599       602       599       602       603
       599       602       604       599       602       605       603       602       604
       603       602       605       604       602       605       602       605       606
       602       605       607       602       605       608       606       605       607
       606       605       608       607       605       608       605       608       609
       605       608       610       605       608       611       609       608       610
       609       608       611       610       608       611       608       611       612
       608       611       613       608       611       614       612       611       613
       612       611       614       613       611       614       611       614       615
       611       614       616       611       614       617       615       614       616
       615       614       617       616       614       617       614       617       618
       614       617       619       614       617       620       618       617       619
       618       617       620       619       617       620       571       621       622
       571       621       623       571       621       624       622       621       623
       622       621       624       623       621       624       621       624       625
       621       624       626       621       624       627       625       624       626
       625       624       627       626       624       627       624       627       628
       624       627       629       624       627       630       628       627       629
       628       627       630       629       627       630       627       630       631
       627       630       632       627       630       633       631       630       632
       631       630       633       632       630       633       630       633       634
       630       633       635       630       633       636       634       633       635
       634       633       636       635       633       636       633       636       637
       633       636       638       633       636       639       637       636       638
       637       636       639       638       636       639       636       639       640
       636       639       641       636       639       642       640       639       641
       640       639       642       641       639       642       639       642       643
       639       642       644       639       642       645       643       642       644
       643       642       645       644       642       645       642       645       646
       642       645       647       642       645       648       646       645       647
       646       645       648       647       645       648       645       648       649
       645       648       650       645       648       651       649       648       650
       649       648       651       650       648       651       648       651       652
       648       651       653       648       651       654       652       651       653
       652       651       654       653       651       654       651       654       655
       651       654       656       651       654       657       655       654       656
       655       654       657       656       654       657       654       657       658
       654       657       659       654       657       660       658       657       659
       658       657       660       659       657       660       657       660       661
       657       660       662       657       660       663       661       660       662
       661       660       663       662       660       663       665       664       668
       665       664       672       665       664       676       668       664       672
       668       664       676       672       664       676       664       665       666
       664       665       667       664       665       680       666       665       667
       666       665       680       667       665       680       664       668       669
       664       668       670       664       668       671       669       668       670
       669       668       671       670       668       671       664       672       673
       664       672       674       664       672       675       673       672       674
       673       672       675       674       672       675       664       676       677
       664       676       678       664       676       679       677       676       678
       677       676       679       678       676       679       665       680       681
       665       680       682       665       680       686       681       680       682
       681       680       686       682       680       686       684       683       685
       684       683       686       684       683       687       685       683       686
       685       683       687       686       683       687       680       686       683
       683       687       688       687       688       689       687       688       690
       687       688       691       689       688       690       689       688       691
       690       688       691       688       691       692       688       691       693
       688       691       699       692       691       693       692       691       699
       693       691       699       691       693       694       693       694       695
       693       694       696       695       694       696       694       696       697
       694       696       698       694       696       708       697       696       698
       697       696       708       698       696       708       691       699       700
       691       699       701       691       699       702       700       699       701
       700       699       702       701       699       702       699       702       703
       702       703       704       702       703       705       704       703       705
       703       705       706       703       705       707       703       705       755
       706       705       707       706       705       755       707       705       755
       696       708       709       696       708       710       696       708       711
       709       708       710       709       708       711       710       708       711
       708       711       712       708       711       713       708       711       714
       712       711       713       712       711       714       713       711       714
       711       714       715       711       714       716       711       714       717
       715       714       716       715       714       717       716       714       717
       714       717       718       714       717       719       714       717       720
       718       717       719       718       717       720       719       717       720
       717       720       721       717       720       722       717       720       723
       721       720       722       721       720       723       722       720       723
       720       723       724       720       723       725       720       723       726
       724       723       725       724       723       726       725       723       726
       723       726       727       723       726       728       727       726       728
       726       728       729       726       728       730       729       728       730
       728       730       731       728       730       732       728       730       733
       731       730       732       731       730       733       732       730       733
       730       733       734       730       733       735       730       733       736
       734       733       735       734       733       736       735       733       736
       733       736       737       733       736       738       733       736       739
       737       736       738       737       736       739       738       736       739
       736       739       740       736       739       741       736       739       742
       740       739       741       740       739       742       741       739       742
       739       742       743       739       742       744       739       742       745
       743       742       744       743       742       745       744       742       745
       742       745       746       742       745       747       742       745       748
       746       745       747       746       745       748       747       745       748
       745       748       749       745       748       750       745       748       751
       749       748       750       749       748       751       750       748       751
       748       751       752       748       751       753       748       751       754
       752       751       753       752       751       754       753       751       754
       705       755       756       705       755       757       705       755       758
       756       755       757       756       755       758       757       755       758
       755       758       759       755       758       760       755       758       761
       759       758       760       759       758       761       760       758       761
       758       761       762       758       761       763       758       761       764
       762       761       763       762       761       764       763       761       764
       761       764       765       761       764       766       761       764       767
       765       764       766       765       764       767       766       764       767
       764       767       768       764       767       769       764       767       770
       768       767       769       768       767       770       769       767       770
       767       770       771       767       770       772       767       770       773
       771       770       772       771       770       773       772       770       773
       770       773       774       770       773       775       770       773       776
       774       773       775       774       773       776       775       773       776
       773       776       777       773       776       778       773       776       779
       777       776       778       777       776       779       778       776       779
       776       779       780       776       779       781       776       779       782
       780       779       781       780       779       782       781       779       782
       779       782       783       779       782       784       779       782       785
       783       782       784       783       782       785       784       782       785
       782       785       786       782       785       787       782       785       788
       786       785       787       786       785       788       787       785       788
       785       788       789       785       788       790       785       788       791
       789       788       790       789       788       791       790       788       791
       788       791       792       788       791       793       788       791       794
       792       791       793       792       791       794       793       791       794
       791       794       795       791       794       796       791       794       797
       795       794       796       795       794       797       796       794       797
       799       798       802       799       798       806       799       798       810
       802       798       806       802       798       810       806       798       810
       798       799       800       798       799       801       798       799       814
       800       799       801       800       799       814       801       799       814
       798       802       803       798       802       804       798       802       805
       803       802       804       803       802       805       804       802       805
       798       806       807       798       806       808       798       806       809
       807       806       808       807       806       809       808       806       809
       798       810       811       798       810       812       798       810       813
       811       810       812       811       810       813       812       810       813
       799       814       815       799       814       816       799       814       820
       815       814       816       815       814       820       816       814       820
       818       817       819       818       817       820       818       817       821
       819       817       820       819       817       821       820       817       821
       814       820       817       817       821       822       821       822       823
       821       822       824       821       822       825       823       822       824
       823       822       825       824       822       825       822       825       826
       822       825       827       822       825       833       826       825       827
       826       825       833       827       825       833       825       827       828
       827       828       829       827       828       830       829       828       830
       828       830       831       828       830       832       828       830       842
       831       830       832       831       830       842       832       830       842
       825       833       834       825       833       835       825       833       836
       834       833       835       834       833       836       835       833       836
       833       836       837       836       837       838       836       837       839
       838       837       839       837       839       840       837       839       841
       837       839       889       840       839       841       840       839       889
       841       839       889       830       842       843       830       842       844
       830       842       845       843       842       844       843       842       845
       844       842       845       842       845       846       842       845       847
       842       845       848       846       845       847       846       845       848
       847       845       848       845       848       849       845       848       850
       845       848       851       849       848       850       849       848       851
       850       848       851       848       851       852       848       851       853
       848       851       854       852       851       853       852       851       854
       853       851       854       851       854       855       851       854       856
       851       854       857       855       854       856       855       854       857
       856       854       857       854       857       858       854       857       859
       854       857       860       858       857       859       858       857       860
       859       857       860       857       860       861       857       860       862
       861       860       862       860       862       863       860       862       864
       863       862       864       862       864       865       862       864       866
       862       864       867       865       864       866       865       864       867
       866       864       867       864       867       868       864       867       869
       864       867       870       868       867       869       868       867       870
       869       867       870       867       870       871       867       870       872
       867       870       873       871       870       872       871       870       873
       872       870       873       870       873       874       870       873       875
       870       873       876       874       873       875       874       873       876
       875       873       876       873       876       877       873       876       878
       873       876       879       877       876       878       877       876       879
       878       876       879       876       879       880       876       879       881
       876       879       882       880       879       881       880       879       882
       881       879       882       879       882       883       879       882       884
       879       882       885       883       882       884       883       882       885
       884       882       885       882       885       886       882       885       887
       882       885       888       886       885       887       886       885       888
       887       885       888       839       889       890       839       889       891
       839       889       892       890       889       891       890       889       892
       891       889       892       889       892       893       889       892       894
       889       892       895       893       892       894       893       892       895
       894       892       895       892       895       896       892       895       897
       892       895       898       896       895       897       896       895       898
       897       895       898       895       898       899       895       898       900
       895       898       901       899       898       900       899       898       901
       900       898       901       898       901       902       898       901       903
       898       901       904       902       901       903       902       901       904
       903       901       904       901       904       905       901       904       906
       901       904       907       905       904       906       905       904       907
       906       904       907       904       907       908       904       907       909
       904       907       910       908       907       909       908       907       910
       909       907       910       907       910       911       907       910       912
       907       910       913       911       910       912       911       910       913
       912       910       913       910       913       914       910       913       915
       910       913       916       914       913       915       914       913       916
       915       913       916       913       916       917       913       916       918
       913       916       919       917       916       918       917       916       919
       918       916       919       916       919       920       916       919       921
       916       919       922       920       919       921       920       919       922
       921       919       922       919       922       923       919       922       924
       919       922       925       923       922       924       923       922       925
       924       922       925       922       925       926       922       925       927
       922       925       928       926       925       927       926       925       928
       927       925       928       925       928       929       925       928       930
       925       928       931       929       928       930       929       928       931
       930       928       931       933       932       936       933       932       940
       933       932       944       936       932       940       936       932       944
       940       932       944       932       933       934       932       933       935
       932       933       948       934       933       935       934       933       948
       935       933       948       932       936       937       932       936       938
       932       936       939       937       936       938       937       936       939
       938       936       939       932       940       941       932       940       942
       932       940       943       941       940       942       941       940       943
       942       940       943       932       944       945       932       944       946
       932       944       947       945       944       946       945       944       947
       946       944       947       933       948       949       933       948       950
       933       948       954       949       948       950       949       948       954
       950       948       954       952       951       953       952       951       954
       952       951       955       953       951       954       953       951       955
       954       951       955       948       954       951       951       955       956
       955       956       957       955       956       958       955       956       959
       957       956       958       957       956       959       958       956       959
       956       959       960       956       959       961       956       959       967
       960       959       961       960       959       967       961       959       967
       959       961       962       961       962       963       961       962       964
       963       962       964       962       964       965       962       964       966
       962       964       976       965       964       966       965       964       976
       966       964       976       959       967       968       959       967       969
       959       967       970       968       967       969       968       967       970
       969       967       970       967       970       971       970       971       972
       970       971       973       972       971       973       971       973       974
       971       973       975       971       973      1023       974       973       975
       974       973      1023       975       973      1023       964       976       977
       964       976       978       964       976       979       977       976       978
       977       976       979       978       976       979       976       979       980
       976       979       981       976       979       982       980       979       981
       980       979       982       981       979       982       979       982       983
       979       982       984       979       982       985       983       982       984
       983       982       985       984       982       985       982       985       986
       982       985       987       982       985       988       986       985       987
       986       985       988       987       985       988       985       988       989
       985       988       990       985       988       991       989       988       990
       989       988       991       990       988       991       988       991       992
       988       991       993       988       991       994       992       991       993
       992       991       994       993       991       994       991       994       995
       991       994       996       995       994       996       994       996       997
       994       996       998       997       996       998       996       998       999
       996       998      1000       996       998      1001       999       998      1000
       999       998      1001      1000       998      1001       998      1001      1002
       998      1001      1003       998      1001      1004      1002      1001      1003
      1002      1001      1004      1003      1001      1004      1001      1004      1005
      1001      1004      1006      1001      1004      1007      1005      1004      1006
      1005      1004      1007      1006      1004      1007      1004      1007      1008
      1004      1007      1009      1004      1007      1010      1008      1007      1009
      1008      1007      1010      1009      1007      1010      1007      1010      1011
      1007      1010      1012      1007      1010      1013      1011      1010      1012
      1011      1010      1013      1012      1010      1013      1010      1013      1014
      1010      1013      1015      1010      1013      1016      1014      1013      1015
      1014      1013      1016      1015      1013      1016      1013      1016      1017
      1013      1016      1018      1013      1016      1019      1017      1016      1018
      1017      1016      1019      1018      1016      1019      1016      1019      1020
      1016      1019      1021      1016      1019      1022      1020      1019      1021
      1020      1019      1022      1021      1019      1022       973      1023      1024
       973      1023      1025       973      1023      1026      1024      1023      1025
      1024      1023      1026      1025      1023      1026      1023      1026      1027
      1023      1026      1028      1023      1026      1029      1027      1026      1028
      1027      1026      1029      1028      1026      1029      1026      1029      1030
      1026      1029      1031      1026      1029      1032      1030      1029      1031
      1030      1029      1032      1031      1029      1032      1029      1032      1033
      1029      1032      1034      1029      1032      1035      1033      1032      1034
      1033      1032      1035      1034      1032      1035      1032      1035      1036
      1032      1035      1037      1032      1035      1038      1036      1035      1037
      1036      1035      1038      1037      1035      1038      1035      1038      1039
      1035      1038      1040      1035      1038      1041      1039      1038      1040
      1039      1038      1041      1040      1038      1041      1038      1041      1042
      1038      1041      1043      1038      1041      1044      1042      1041      1043
      1042      1041      1044      1043      1041      1044      1041      1044      1045
      1041      1044      1046      1041      1044      1047      1045      1044      1046
      1045      1044      1047      1046      1044      1047      1044      1047      1048
      1044      1047      1049      1044      1047      1050      1048      1047      1049
      1048      1047      1050      1049      1047      1050      1047      1050      1051
      1047      1050      1052      1047      1050      1053      1051      1050      1052
      1051      1050      1053      1052      1050      1053      1050      1053      1054
      1050      1053      1055      1050      1053      1056      1054      1053      1055
      1054      1053      1056      1055      1053      1056      1053      1056      1057
      1053      1056      1058      1053      1056      1059      1057      1056      1058
      1057      1056      1059      1058      1056      1059      1056      1059      1060
      1056      1059      1061      1056      1059      1062      1060      1059      1061
      1060      1059      1062      1061      1059      1062      1059      1062      1063
      1059      1062      1064      1059      1062      1065      1063      1062      1064
      1063      1062      1065      1064      1062      1065      1067      1066      1070
      1067      1066      1074      1067      1066      1078      1070      1066      1074
      1070      1066      1078      1074      1066      1078      1066      1067      1068
      1066      1067      1069      1066      1067      1082      1068      1067      1069
      1068      1067      1082      1069      1067      1082      1066      1070      1071
      1066      1070      1072      1066      1070      1073      1071      1070      1072
      1071      1070      1073      1072      1070      1073      1066      1074      1075
      1066      1074      1076      1066      1074      1077      1075      1074      1076
      1075      1074      1077      1076      1074      1077      1066      1078      1079
      1066      1078      1080      1066      1078      1081      1079      1078      1080
      1079      1078      1081      1080      1078      1081      1067      1082      1083
      1067      1082      1084      1067      1082      1088      1083      1082      1084
      1083      1082      1088      1084      1082      1088      1086      1085      1087
      1086      1085      1088      1086      1085      1089      1087      1085      1088
      1087      1085      1089      1088      1085      1089      1082      1088      1085
      1085      1089      1090      1089      1090      1091      1089      1090      1092
      1089      1090      1093      1091      1090      1092      1091      1090      1093
      1092      1090      1093      1090      1093      1094      1090      1093      1095
      1090      1093      1101      1094      1093      1095      1094      1093      1101
      1095      1093      1101      1093      1095      1096      1095      1096      1097
      1095      1096      1098      1097      1096      1098      1096      1098      1099
      1096      1098      1100      1096      1098      1110      1099      1098      1100
      1099      1098      1110      1100      1098      1110      1093      1101      1102
      1093      1101      1103      1093      1101      1104      1102      1101      1103
      1102      1101      1104      1103      1101      1104      1101      1104      1105
      1104      1105      1106      1104      1105      1107      1106      1105      1107
      1105      1107      1108      1105      1107      1109      1105      1107      1157
      1108      1107      1109      1108      1107      1157      1109      1107      1157
      1098      1110      1111      1098      1110      1112      1098      1110      1113
      1111      1110      1112      1111      1110      1113      1112      1110      1113
      1110      1113      1114      1110      1113      1115      1110      1113      1116
      1114      1113      1115      1114      1113      1116      1115      1113      1116
      1113      1116      1117      1113      1116      1118      1113      1116      1119
      1117      1116      1118      1117      1116      1119      1118      1116      1119
      1116      1119      1120      1116      1119      1121      1116      1119      1122
      1120      1119      1121      1120      1119      1122      1121      1119      1122
      1119      1122      1123      1119      1122      1124      1119      1122      1125
      1123      1122      1124      1123      1122      1125      1124      1122      1125
      1122      1125      1126      1122      1125      1127      1122      1125      1128
      1126      1125      1127      1126      1125      1128      1127      1125      1128
      1125      1128      1129      1125      1128      1130      1129      1128      1130
      1128      1130      1131      1128      1130      1132      1131      1130      1132
      1130      1132      1133      1130      1132      1134      1130      1132      1135
      1133      1132      1134      1133      1132      1135      1134      1132      1135
      1132      1135      1136      1132      1135      1137      1132      1135      1138
      1136      1135      1137      1136      1135      1138      1137      1135      1138
      1135      1138      1139      1135      1138      1140      1135      1138      1141
      1139      1138      1140      1139      1138      1141      1140      1138      1141
      1138      1141      1142      1138      1141      1143      1138      1141      1144
      1142      1141      1143      1142      1141      1144      1143      1141      1144
      1141      1144      1145      1141      1144      1146      1141      1144      1147
      1145      1144      1146      1145      1144      1147      1146      1144      1147
      1144      1147      1148      1144      1147      1149      1144      1147      1150
      1148      1147      1149      1148      1147      1150      1149      1147      1150
      1147      1150      1151      1147      1150      1152      1147      1150      1153
      1151      1150      1152      1151      1150      1153      1152      1150      1153
      1150      1153      1154      1150      1153      1155      1150      1153      1156
      1154      1153      1155      1154      1153      1156      1155      1153      1156
      1107      1157      1158      1107      1157      1159      1107      1157      1160
      1158      1157      1159      1158      1157      1160      1159      1157      1160
      1157      1160      1161      1157      1160      1162      1157      1160      1163
      1161      1160      1162      1161      1160      1163      1162      1160      1163
      1160      1163      1164      1160      1163      1165      1160      1163      1166
      1164      1163      1165      1164      1163      1166      1165      1163      1166
      1163      1166      1167      1163      1166      1168      1163      1166      1169
      1167      1166      1168      1167      1166      1169      1168      1166      1169
      1166      1169      1170      1166      1169      1171      1166      1169      1172
      1170      1169      1171      1170      1169      1172      1171      1169      1172
      1169      1172      1173      1169      1172      1174      1169      1172      1175
      1173      1172      1174      1173      1172      1175      1174      1172      1175
      1172      1175      1176      1172      1175      1177      1172      1175      1178
      1176      1175      1177      1176      1175      1178      1177      1175      1178
      1175      1178      1179      1175      1178      1180      1175      1178      1181
      1179      1178      1180      1179      1178      1181      1180      1178      1181
      1178      1181      1182      1178      1181      1183      1178      1181      1184
      1182      1181      1183      1182      1181      1184      1183      1181      1184
      1181      1184      1185      1181      1184      1186      1181      1184      1187
      1185      1184      1186      1185      1184      1187      1186      1184      1187
      1184      1187      1188      1184      1187      1189      1184      1187      1190
      1188      1187      1189      1188      1187      1190      1189      1187      1190
      1187      1190      1191      1187      1190      1192      1187      1190      1193
      1191      1190      1192      1191      1190      1193      1192      1190      1193
      1190      1193      1194      1190      1193      1195      1190      1193      1196
      1194      1193      1195      1194      1193      1196      1195      1193      1196
      1193      1196      1197      1193      1196      1198      1193      1196      1199
      1197      1196      1198      1197      1196      1199      1198      1196      1199
      1201      1200      1204      1201      1200      1208      1201      1200      1212
      1204      1200      1208      1204      1200      1212      1208      1200      1212
      1200      1201      1202      1200      1201      1203      1200      1201      1216
      1202      1201      1203      1202      1201      1216      1203      1201      1216
      1200      1204      1205      1200      1204      1206      1200      1204      1207
      1205      1204      1206      1205      1204      1207      1206      1204      1207
      1200      1208      1209      1200      1208      1210      1200      1208      1211
      1209      1208      1210      1209      1208      1211      1210      1208      1211
      1200      1212      1213      1200      1212      1214      1200      1212      1215
      1213      1212      1214      1213      1212      1215      1214      1212      1215
      1201      1216      1217      1201      1216      1218      1201      1216      1222
      1217      1216      1218      1217      1216      1222      1218      1216      1222
      1220      1219      1221      1220      1219      1222      1220      1219      1223
      1221      1219      1222      1221      1219      1223      1222      1219      1223
      1216      1222      1219      1219      1223      1224      1223      1224      1225
      1223      1224      1226      1223      1224      1227      1225      1224      1226
      1225      1224      1227      1226      1224      1227      1224      1227      1228
      1224      1227      1229      1224      1227      1235      1228      1227      1229
      1228      1227      1235      1229      1227      1235      1227      1229      1230
      1229      1230      1231      1229      1230      1232      1231      1230      1232
      1230      1232      1233      1230      1232      1234      1230      1232      1244
      1233      1232      1234      1233      1232      1244      1234      1232      1244
      1227      1235      1236      1227      1235      1237      1227      1235      1238
      1236      1235      1237      1236      1235      1238      1237      1235      1238
      1235      1238      1239      1238      1239      1240      1238      1239      1241
      1240      1239      1241      1239      1241      1242      1239      1241      1243
      1239      1241      1291      1242      1241      1243      1242      1241      1291
      1243      1241      1291      1232      1244      1245      1232      1244      1246
      1232      1244      1247      1245      1244      1246      1245      1244      1247
      1246      1244      1247      1244      1247      1248      1244      1247      1249
      1244      1247      1250      1248      1247      1249      1248      1247      1250
      1249      1247      1250      1247      1250      1251      1247      1250      1252
      1247      1250      1253      1251      1250      1252      1251      1250      1253
      1252      1250      1253      1250      1253      1254      1250      1253      1255
      1250      1253      1256      1254      1253      1255      1254      1253      1256
      1255      1253      1256      1253      1256      1257      1253      1256      1258
      1253      1256      1259      1257      1256      1258      1257      1256      1259
      1258      1256      1259      1256      1259      1260      1256      1259      1261
      1256      1259      1262      1260      1259      1261      1260      1259      1262
      1261      1259      1262      1259      1262      1263      1259      1262      1264
      1263      1262      1264      1262      1264      1265      1262      1264      1266
      1265      1264      1266      1264      1266      1267      1264      1266      1268
      1264      1266      1269      1267      1266      1268      1267      1266      1269
      1268      1266      1269      1266      1269      1270      1266      1269      1271
      1266      1269      1272      1270      1269      1271      1270      1269      1272
      1271      1269      1272      1269      1272      1273      1269      1272      1274
      1269      1272      1275      1273      1272      1274      1273      1272      1275
      1274      1272      1275      1272      1275      1276      1272      1275      1277
      1272      1275      1278      1276      1275      1277      1276      1275      1278
      1277      1275      1278      1275      1278      1279      1275      1278      1280
      1275      1278      1281      1279      1278      1280      1279      1278      1281
      1280      1278      1281      1278      1281      1282      1278      1281      1283
      1278      1281      1284      1282      1281      1283      1282      1281      1284
      1283      1281      1284      1281      1284      1285      1281      1284      1286
      1281      1284      1287      1285      1284      1286      1285      1284      1287
      1286      1284      1287      1284      1287      1288      1284      1287      1289
      1284      1287      1290      1288      1287      1289      1288      1287      1290
      1289      1287      1290      1241      1291      1292      1241      1291      1293
      1241      1291      1294      1292      1291      1293      1292      1291      1294
      1293      1291      1294      1291      1294      1295      1291      1294      1296
      1291      1294      1297      1295      1294      1296      1295      1294      1297
      1296      1294      1297      1294      1297      1298      1294      1297      1299
      1294      1297      1300      1298      1297      1299      1298      1297      1300
      1299      1297      1300      1297      1300      1301      1297      1300      1302
      1297      1300      1303      1301      1300      1302      1301      1300      1303
      1302      1300      1303      1300      1303      1304      1300      1303      1305
      1300      1303      1306      1304      1303      1305      1304      1303      1306
      1305      1303      1306      1303      1306      1307      1303      1306      1308
      1303      1306      1309      1307      1306      1308      1307      1306      1309
      1308      1306      1309      1306      1309      1310      1306      1309      1311
      1306      1309      1312      1310      1309      1311      1310      1309      1312
      1311      1309      1312      1309      1312      1313      1309      1312      1314
      1309      1312      1315      1313      1312      1314      1313      1312      1315
      1314      1312      1315      1312      1315      1316      1312      1315      1317
      1312      1315      1318      1316      1315      1317      1316      1315      1318
      1317      1315      1318      1315      1318      1319      1315      1318      1320
      1315      1318      1321      1319      1318      1320      1319      1318      1321
      1320      1318      1321      1318      1321      1322      1318      1321      1323
      1318      1321      1324      1322      1321      1323      1322      1321      1324
      1323      1321      1324      1321      1324      1325      1321      1324      1326
      1321      1324      1327      1325      1324      1326      1325      1324      1327
      1326      1324      1327      1324      1327      1328      1324      1327      1329
      1324      1327      1330      1328      1327      1329      1328      1327      1330
      1329      1327      1330      1327      1330      1331      1327      1330      1332
      1327      1330      1333      1331      1330      1332      1331      1330      1333
      1332      1330      1333      1335      1334      1338      1335      1334      1342
      1335      1334      1346      1338      1334      1342      1338      1334      1346
      1342      1334      1346      1334      1335      1336      1334      1335      1337
      1334      1335      1350      1336      1335      1337      1336      1335      1350
      1337      1335      1350      1334      1338      1339      1334      1338      1340
      1334      1338      1341      1339      1338      1340      1339      1338      1341
      1340      1338      1341      1334      1342      1343      1334      1342      1344
      1334      1342      1345      1343      1342      1344      1343      1342      1345
      1344      1342      1345      1334      1346      1347      1334      1346      1348
      1334      1346      1349      1347      1346      1348      1347      1346      1349
      1348      1346      1349      1335      1350      1351      1335      1350      1352
      1335      1350      1356      1351      1350      1352      1351      1350      1356
      1352      1350      1356      1354      1353      1355      1354      1353      1356
      1354      1353      1357      1355      1353      1356      1355      1353      1357
      1356      1353      1357      1350      1356      1353      1353      1357      1358
      1357      1358      1359      1357      1358      1360      1357      1358      1361
      1359      1358      1360      1359      1358      1361      1360      1358      1361
      1358      1361      1362      1358      1361      1363      1358      1361      1369
      1362      1361      1363      1362      1361      1369      1363      1361      1369
      1361      1363      1364      1363      1364      1365      1363      1364      1366
      1365      1364      1366      1364      1366      1367      1364      1366      1368
      1364      1366      1378      1367      1366      1368      1367      1366      1378
      1368      1366      1378      1361      1369      1370      1361      1369      1371
      1361      1369      1372      1370      1369      1371      1370      1369      1372
      1371      1369      1372      1369      1372      1373      1372      1373      1374
      1372      1373      1375      1374      1373      1375      1373      1375      1376
      1373      1375      1377      1373      1375      1425      1376      1375      1377
      1376      1375      1425      1377      1375      1425      1366      1378      1379
      1366      1378      1380      1366      1378      1381      1379      1378      1380
      1379      1378      1381      1380      1378      1381      1378      1381      1382
      1378      1381      1383      1378      1381      1384      1382      1381      1383
      1382      1381      1384      1383      1381      1384      1381      1384      1385
      1381      1384      1386      1381      1384      1387      1385      1384      1386
      1385      1384      1387      1386      1384      1387      1384      1387      1388
      1384      1387      1389      1384      1387      1390      1388      1387      1389
      1388      1387      1390      1389      1387      1390      1387      1390      1391
      1387      1390      1392      1387      1390      1393      1391      1390      1392
      1391      1390      1393      1392      1390      1393      1390      1393      1394
      1390      1393      1395      1390      1393      1396      1394      1393      1395
      1394      1393      1396      1395      1393      1396      1393      1396      1397
      1393      1396      1398      1397      1396      1398      1396      1398      1399
      1396      1398      1400      1399      1398      1400      1398      1400      1401
      1398      1400      1402      1398      1400      1403      1401      1400      1402
      1401      1400      1403      1402      1400      1403      1400      1403      1404
      1400      1403      1405      1400      1403      1406      1404      1403      1405
      1404      1403      1406      1405      1403      1406      1403      1406      1407
      1403      1406      1408      1403      1406      1409      1407      1406      1408
      1407      1406      1409      1408      1406      1409      1406      1409      1410
      1406      1409      1411      1406      1409      1412      1410      1409      1411
      1410      1409      1412      1411      1409      1412      1409      1412      1413
      1409      1412      1414      1409      1412      1415      1413      1412      1414
      1413      1412      1415      1414      1412      1415      1412      1415      1416
      1412      1415      1417      1412      1415      1418      1416      1415      1417
      1416      1415      1418      1417      1415      1418      1415      1418      1419
      1415      1418      1420      1415      1418      1421      1419      1418      1420
      1419      1418      1421      1420      1418      1421      1418      1421      1422
      1418      1421      1423      1418      1421      1424      1422      1421      1423
      1422      1421      1424      1423      1421      1424      1375      1425      1426
      1375      1425      1427      1375      1425      1428      1426      1425      1427
      1426      1425      1428      1427      1425      1428      1425      1428      1429
      1425      1428      1430      1425      1428      1431      1429      1428      1430
      1429      1428      1431      1430      1428      1431      1428      1431      1432
      1428      1431      1433      1428      1431      1434      1432      1431      1433
      1432      1431      1434      1433      1431      1434      1431      1434      1435
      1431      1434      1436      1431      1434      1437      1435      1434      1436
      1435      1434      1437      1436      1434      1437      1434      1437      1438
      1434      1437      1439      1434      1437      1440      1438      1437      1439
      1438      1437      1440      1439      1437      1440      1437      1440      1441
      1437      1440      1442      1437      1440      1443      1441      1440      1442
      1441      1440      1443      1442      1440      1443      1440      1443      1444
      1440      1443      1445      1440      1443      1446      1444      1443      1445
      1444      1443      1446      1445      1443      1446      1443      1446      1447
      1443      1446      1448      1443      1446      1449      1447      1446      1448
      1447      1446      1449      1448      1446      1449      1446      1449      1450
      1446      1449      1451      1446      1449      1452      1450      1449      1451
      1450      1449      1452      1451      1449      1452      1449      1452      1453
      1449      1452      1454      1449      1452      1455      1453      1452      1454
      1453      1452      1455      1454      1452      1455      1452      1455      1456
      1452      1455      1457      1452      1455      1458      1456      1455      1457
      1456      1455      1458      1457      1455      1458      1455      1458      1459
      1455      1458      1460      1455      1458      1461      1459      1458      1460
      1459      1458      1461      1460      1458      1461      1458      1461      1462
      1458      1461      1463      1458      1461      1464      1462      1461      1463
      1462      1461      1464      1463      1461      1464      1461      1464      1465
      1461      1464      1466      1461      1464      1467      1465      1464      1466
      1465      1464      1467      1466      1464      1467      1469      1468      1472
      1469      1468      1476      1469      1468      1480      1472      1468      1476
      1472      1468      1480      1476      1468      1480      1468      1469      1470
      1468      1469      1471      1468      1469      1484      1470      1469      1471
      1470      1469      1484      1471      1469      1484      1468      1472      1473
      1468      1472      1474      1468      1472      1475      1473      1472      1474
      1473      1472      1475      1474      1472      1475      1468      1476      1477
      1468      1476      1478      1468      1476      1479      1477      1476      1478
      1477      1476      1479      1478      1476      1479      1468      1480      1481
      1468      1480      1482      1468      1480      1483      1481      1480      1482
      1481      1480      1483      1482      1480      1483      1469      1484      1485
      1469      1484      1486      1469      1484      1490      1485      1484      1486
      1485      1484      1490      1486      1484      1490      1488      1487      1489
      1488      1487      1490      1488      1487      1491      1489      1487      1490
      1489      1487      1491      1490      1487      1491      1484      1490      1487
      1487      1491      1492      1491      1492      1493      1491      1492      1494
      1491      1492      1495      1493      1492      1494      1493      1492      1495
      1494      1492      1495      1492      1495      1496      1492      1495      1497
      1492      1495      1503      1496      1495      1497      1496      1495      1503
      1497      1495      1503      1495      1497      1498      1497      1498      1499
      1497      1498      1500      1499      1498      1500      1498      1500      1501
      1498      1500      1502      1498      1500      1512      1501      1500      1502
      1501      1500      1512      1502      1500      1512      1495      1503      1504
      1495      1503      1505      1495      1503      1506      1504      1503      1505
      1504      1503      1506      1505      1503      1506      1503      1506      1507
      1506      1507      1508      1506      1507      1509      1508      1507      1509
      1507      1509      1510      1507      1509      1511      1507      1509      1559
      1510      1509      1511      1510      1509      1559      1511      1509      1559
      1500      1512      1513      1500      1512      1514      1500      1512      1515
      1513      1512      1514      1513      1512      1515      1514      1512      1515
      1512      1515      1516      1512      1515      1517      1512      1515      1518
      1516      1515      1517      1516      1515      1518      1517      1515      1518
      1515      1518      1519      1515      1518      1520      1515      1518      1521
      1519      1518      1520      1519      1518      1521      1520      1518      1521
      1518      1521      1522      1518      1521      1523      1518      1521      1524
      1522      1521      1523      1522      1521      1524      1523      1521      1524
      1521      1524      1525      1521      1524      1526      1521      1524      1527
      1525      1524      1526      1525      1524      1527      1526      1524      1527
      1524      1527      1528      1524      1527      1529      1524      1527      1530
      1528      1527      1529      1528      1527      1530      1529      1527      1530
      1527      1530      1531      1527      1530      1532      1531      1530      1532
      1530      1532      1533      1530      1532      1534      1533      1532      1534
      1532      1534      1535      1532      1534      1536      1532      1534      1537
      1535      1534      1536      1535      1534      1537      1536      1534      1537
      1534      1537      1538      1534      1537      1539      1534      1537      1540
      1538      1537      1539      1538      1537      1540      1539      1537      1540
      1537      1540      1541      1537      1540      1542      1537      1540      1543
      1541      1540      1542      1541      1540      1543      1542      1540      1543
      1540      1543      1544      1540      1543      1545      1540      1543      1546
      1544      1543      1545      1544      1543      1546      1545      1543      1546
      1543      1546      1547      1543      1546      1548      1543      1546      1549
      1547      1546      1548      1547      1546      1549      1548      1546      1549
      1546      1549      1550      1546      1549      1551      1546      1549      1552
      1550      1549      1551      1550      1549      1552      1551      1549      1552
      1549      1552      1553      1549      1552      1554      1549      1552      1555
      1553      1552      1554      1553      1552      1555      1554      1552      1555
      1552      1555      1556      1552      1555      1557      1552      1555      1558
      1556      1555      1557      1556      1555      1558      1557      1555      1558
      1509      1559      1560      1509      1559      1561      1509      1559      1562
      1560      1559      1561      1560      1559      1562      1561      1559      1562
      1559      1562      1563      1559      1562      1564      1559      1562      1565
      1563      1562      1564      1563      1562      1565      1564      1562      1565
      1562      1565      1566      1562      1565      1567      1562      1565      1568
      1566      1565      1567      1566      1565      1568      1567      1565      1568
      1565      1568      1569      1565      1568      1570      1565      1568      1571
      1569      1568      1570      1569      1568      1571      1570      1568      1571
      1568      1571      1572      1568      1571      1573      1568      1571      1574
      1572      1571      1573      1572      1571      1574      1573      1571      1574
      1571      1574      1575      1571      1574      1576      1571      1574      1577
      1575      1574      1576      1575      1574      1577      1576      1574      1577
      1574      1577      1578      1574      1577      1579      1574      1577      1580
      1578      1577      1579      1578      1577      1580      1579      1577      1580
      1577      1580      1581      1577      1580      1582      1577      1580      1583
      1581      1580      1582      1581      1580      1583      1582      1580      1583
      1580      1583      1584      1580      1583      1585      1580      1583      1586
      1584      1583      1585      1584      1583      1586      1585      1583      1586
      1583      1586      1587      1583      1586      1588      1583      1586      1589
      1587      1586      1588      1587      1586      1589      1588      1586      1589
      1586      1589      1590      1586      1589      1591      1586      1589      1592
      1590      1589      1591      1590      1589      1592      1591      1589      1592
      1589      1592      1593      1589      1592      1594      1589      1592      1595
      1593      1592      1594      1593      1592      1595      1594      1592      1595
      1592      1595      1596      1592      1595      1597      1592      1595      1598
      1596      1595      1597      1596      1595      1598      1597      1595      1598
      1595      1598      1599      1595      1598      1600      1595      1598      1601
      1599      1598      1600      1599      1598      1601      1600      1598      1601
      1603      1602      1606      1603      1602      1610      1603      1602      1614
      1606      1602      1610      1606      1602      1614      1610      1602      1614
      1602      1603      1604      1602      1603      1605      1602      1603      1618
      1604      1603      1605      1604      1603      1618      1605      1603      1618
      1602      1606      1607      1602      1606      1608      1602      1606      1609
      1607      1606      1608      1607      1606      1609      1608      1606      1609
      1602      1610      1611      1602      1610      1612      1602      1610      1613
      1611      1610      1612      1611      1610      1613      1612      1610      1613
      1602      1614      1615      1602      1614      1616      1602      1614      1617
      1615      1614      1616      1615      1614      1617      1616      1614      1617
      1603      1618      1619      1603      1618      1620      1603      1618      1624
      1619      1618      1620      1619      1618      1624      1620      1618      1624
      1622      1621      1623      1622      1621      1624      1622      1621      1625
      1623      1621      1624      1623      1621      1625      1624      1621      1625
      1618      1624      1621      1621      1625      1626      1625      1626      1627
      1625      1626      1628      1625      1626      1629      1627      1626      1628
      1627      1626      1629      1628      1626      1629      1626      1629      1630
      1626      1629      1631      1626      1629      1637      1630      1629      1631
      1630      1629      1637      1631      1629      1637      1629      1631      1632
      1631      1632      1633      1631      1632      1634      1633      1632      1634
      1632      1634      1635      1632      1634      1636      1632      1634      1646
      1635      1634      1636      1635      1634      1646      1636      1634      1646
      1629      1637      1638      1629      1637      1639      1629      1637      1640
      1638      1637      1639      1638      1637      1640      1639      1637      1640
      1637      1640      1641      1640      1641      1642      1640      1641      1643
      1642      1641      1643      1641      1643      1644      1641      1643      1645
      1641      1643      1693      1644      1643      1645      1644      1643      1693
      1645      1643      1693      1634      1646      1647      1634      1646      1648
      1634      1646      1649      1647      1646      1648      1647      1646      1649
      1648      1646      1649      1646      1649      1650      1646      1649      1651
      1646      1649      1652      1650      1649      1651      1650      1649      1652
      1651      1649      1652      1649      1652      1653      1649      1652      1654
      1649      1652      1655      1653      1652      1654      1653      1652      1655
      1654      1652      1655      1652      1655      1656      1652      1655      1657
      1652      1655      1658      1656      1655      1657      1656      1655      1658
      1657      1655      1658      1655      1658      1659      1655      1658      1660
      1655      1658      1661      1659      1658      1660      1659      1658      1661
      1660      1658      1661      1658      1661      1662      1658      1661      1663
      1658      1661      1664      1662      1661      1663      1662      1661      1664
      1663      1661      1664      1661      1664      1665      1661      1664      1666
      1665      1664      1666      1664      1666      1667      1664      1666      1668
      1667      1666      1668      1666      1668      1669      1666      1668      1670
      1666      1668      1671      1669      1668      1670      1669      1668      1671
      1670      1668      1671      1668      1671      1672      1668      1671      1673
      1668      1671      1674      1672      1671      1673      1672      1671      1674
      1673      1671      1674      1671      1674      1675      1671      1674      1676
      1671      1674      1677      1675      1674      1676      1675      1674      1677
      1676      1674      1677      1674      1677      1678      1674      1677      1679
      1674      1677      1680      1678      1677      1679      1678      1677      1680
      1679      1677      1680      1677      1680      1681      1677      1680      1682
      1677      1680      1683      1681      1680      1682      1681      1680      1683
      1682      1680      1683      1680      1683      1684      1680      1683      1685
      1680      1683      1686      1684      1683      1685      1684      1683      1686
      1685      1683      1686      1683      1686      1687      1683      1686      1688
      1683      1686      1689      1687      1686      1688      1687      1686      1689
      1688      1686      1689      1686      1689      1690      1686      1689      1691
      1686      1689      1692      1690      1689      1691      1690      1689      1692
      1691      1689      1692      1643      1693      1694      1643      1693      1695
      1643      1693      1696      1694      1693      1695      1694      1693      1696
      1695      1693      1696      1693      1696      1697      1693      1696      1698
      1693      1696      1699      1697      1696      1698      1697      1696      1699
      1698      1696      1699      1696      1699      1700      1696      1699      1701
      1696      1699      1702      1700      1699      1701      1700      1699      1702
      1701      1699      1702      1699      1702      1703      1699      1702      1704
      1699      1702      1705      1703      1702      1704      1703      1702      1705
      1704      1702      1705      1702      1705      1706      1702      1705      1707
      1702      1705      1708      1706      1705      1707      1706      1705      1708
      1707      1705      1708      1705      1708      1709      1705      1708      1710
      1705      1708      1711      1709      1708      1710      1709      1708      1711
      1710      1708      1711      1708      1711      1712      1708      1711      1713
      1708      1711      1714      1712      1711      1713      1712      1711      1714
      1713      1711      1714      1711      1714      1715      1711      1714      1716
      1711      1714      1717      1715      1714      1716      1715      1714      1717
      1716      1714      1717      1714      1717      1718      1714      1717      1719
      1714      1717      1720      1718      1717      1719      1718      1717      1720
      1719      1717      1720      1717      1720      1721      1717      1720      1722
      1717      1720      1723      1721      1720      1722      1721      1720      1723
      1722      1720      1723      1720      1723      1724      1720      1723      1725
      1720      1723      1726      1724      1723      1725      1724      1723      1726
      1725      1723      1726      1723      1726      1727      1723      1726      1728
      1723      1726      1729      1727      1726      1728      1727      1726      1729
      1728      1726      1729      1726      1729      1730      1726      1729      1731
      1726      1729      1732      1730      1729      1731      1730      1729      1732
      1731      1729      1732      1729      1732      1733      1729      1732      1734
      1729      1732      1735      1733      1732      1734      1733      1732      1735
      1734      1732      1735      1737      1736      1740      1737      1736      1744
      1737      1736      1748      1740      1736      1744      1740      1736      1748
      1744      1736      1748      1736      1737      1738      1736      1737      1739
      1736      1737      1752      1738      1737      1739      1738      1737      1752
      1739      1737      1752      1736      1740      1741      1736      1740      1742
      1736      1740      1743      1741      1740      1742      1741      1740      1743
      1742      1740      1743      1736      1744      1745      1736      1744      1746
      1736      1744      1747      1745      1744      1746      1745      1744      1747
      1746      1744      1747      1736      1748      1749      1736      1748      1750
      1736      1748      1751      1749      1748      1750      1749      1748      1751
      1750      1748      1751      1737      1752      1753      1737      1752      1754
      1737      1752      1758      1753      1752      1754      1753      1752      1758
      1754      1752      1758      1756      1755      1757      1756      1755      1758
      1756      1755      1759      1757      1755      1758      1757      1755      1759
      1758      1755      1759      1752      1758      1755      1755      1759      1760
      1759      1760      1761      1759      1760      1762      1759      1760      1763
      1761      1760      1762      1761      1760      1763      1762      1760      1763
      1760      1763      1764      1760      1763      1765      1760      1763      1771
      1764      1763      1765      1764      1763      1771      1765      1763      1771
      1763      1765      1766      1765      1766      1767      1765      1766      1768
      1767      1766      1768      1766      1768      1769      1766      1768      1770
      1766      1768      1780      1769      1768      1770      1769      1768      1780
      1770      1768      1780      1763      1771      1772      1763      1771      1773
      1763      1771      1774      1772      1771      1773      1772      1771      1774
      1773      1771      1774      1771      1774      1775      1774      1775      1776
      1774      1775      1777      1776      1775      1777      1775      1777      1778
      1775      1777      1779      1775      1777      1827      1778      1777      1779
      1778      1777      1827      1779      1777      1827      1768      1780      1781
      1768      1780      1782      1768      1780      1783      1781      1780      1782
      1781      1780      1783      1782      1780      1783      1780      1783      1784
      1780      1783      1785      1780      1783      1786      1784      1783      1785
      1784      1783      1786      1785      1783      1786      1783      1786      1787
      1783      1786      1788      1783      1786      1789      1787      1786      1788
      1787      1786      1789      1788      1786      1789      1786      1789      1790
      1786      1789      1791      1786      1789      1792      1790      1789      1791
      1790      1789      1792      1791      1789      1792      1789      1792      1793
      1789      1792      1794      1789      1792      1795      1793      1792      1794
      1793      1792      1795      1794      1792      1795      1792      1795      1796
      1792      1795      1797      1792      1795      1798      1796      1795      1797
      1796      1795      1798      1797      1795      1798      1795      1798      1799
      1795      1798      1800      1799      1798      1800      1798      1800      1801
      1798      1800      1802      1801      1800      1802      1800      1802      1803
      1800      1802      1804      1800      1802      1805      1803      1802      1804
      1803      1802      1805      1804      1802      1805      1802      1805      1806
      1802      1805      1807      1802      1805      1808      1806      1805      1807
      1806      1805      1808      1807      1805      1808      1805      1808      1809
      1805      1808      1810      1805      1808      1811      1809      1808      1810
      1809      1808      1811      1810      1808      1811      1808      1811      1812
      1808      1811      1813      1808      1811      1814      1812      1811      1813
      1812      1811      1814      1813      1811      1814      1811      1814      1815
      1811      1814      1816      1811      1814      1817      1815      1814      1816
      1815      1814      1817      1816      1814      1817      1814      1817      1818
      1814      1817      1819      1814      1817      1820      1818      1817      1819
      1818      1817      1820      1819      1817      1820      1817      1820      1821
      1817      1820      1822      1817      1820      1823      1821      1820      1822
      1821      1820      1823      1822      1820      1823      1820      1823      1824
      1820      1823      1825      1820      1823      1826      1824      1823      1825
      1824      1823      1826      1825      1823      1826      1777      1827      1828
      1777      1827      1829      1777      1827      1830      1828      1827      1829
      1828      1827      1830      1829      1827      1830      1827      1830      1831
      1827      1830      1832      1827      1830      1833      1831      1830      1832
      1831      1830      1833      1832      1830      1833      1830      1833      1834
      1830      1833      1835      1830      1833      1836      1834      1833      1835
      1834      1833      1836      1835      1833      1836      1833      1836      1837
      1833      1836      1838      1833      1836      1839      1837      1836      1838
      1837      1836      1839      1838      1836      1839      1836      1839      1840
      1836      1839      1841      1836      1839      1842      1840      1839      1841
      1840      1839      1842      1841      1839      1842      1839      1842      1843
      1839      1842      1844      1839      1842      1845      1843      1842      1844
      1843      1842      1845      1844      1842      1845      1842      1845      1846
      1842      1845      1847      1842      1845      1848      1846      1845      1847
      1846      1845      1848      1847      1845      1848      1845      1848      1849
      1845      1848      1850      1845      1848      1851      1849      1848      1850
      1849      1848      1851      1850      1848      1851      1848      1851      1852
      1848      1851      1853      1848      1851      1854      1852      1851      1853
      1852      1851      1854      1853      1851      1854      1851      1854      1855
      1851      1854      1856      1851      1854      1857      1855      1854      1856
      1855      1854      1857      1856      1854      1857      1854      1857      1858
      1854      1857      1859      1854      1857      1860      1858      1857      1859
      1858      1857      1860      1859      1857      1860      1857      1860      1861
      1857      1860      1862      1857      1860      1863      1861      1860      1862
      1861      1860      1863      1862      1860      1863      1860      1863      1864
      1860      1863      1865      1860      1863      1866      1864      1863      1865
      1864      1863      1866      1865      1863      1866      1863      1866      1867
      1863      1866      1868      1863      1866      1869      1867      1866      1868
      1867      1866      1869      1868      1866      1869      1871      1870      1872
      1871      1870      1873      1871      1870      1874      1872      1870      1873
      1872      1870      1874      1873      1870      1874      1870      1874      1875
      1870      1874      1876      1870      1874      1879      1875      1874      1876
      1875      1874      1879      1876      1874      1879      1874      1876      1877
      1874      1876      1878      1877      1876      1878      1874      1879      1880
      1874      1879      1881      1874      1879      1885      1880      1879      1881
      1880      1879      1885      1881      1879      1885      1883      1882      1884
      1883      1882      1885      1883      1882      1886      1884      1882      1885
      1884      1882      1886      1885      1882      1886      1879      1885      1882
      1882      1886      1887      1886      1887      1888      1886      1887      1889
      1886      1887      1890      1888      1887      1889      1888      1887      1890
      1889      1887      1890      1887      1890      1891      1887      1890      1892
      1887      1890      1898      1891      1890      1892      1891      1890      1898
      1892      1890      1898      1890      1892      1893      1892      1893      1894
      1892      1893      1895      1894      1893      1895      1893      1895      1896
      1893      1895      1897      1893      1895      1907      1896      1895      1897
      1896      1895      1907      1897      1895      1907      1890      1898      1899
      1890      1898      1900      1890      1898      1901      1899      1898      1900
      1899      1898      1901      1900      1898      1901      1898      1901      1902
      1901      1902      1903      1901      1902      1904      1903      1902      1904
      1902      1904      1905      1902      1904      1906      1902      1904      1954
      1905      1904      1906      1905      1904      1954      1906      1904      1954
      1895      1907      1908      1895      1907      1909      1895      1907      1910
      1908      1907      1909      1908      1907      1910      1909      1907      1910
      1907      1910      1911      1907      1910      1912      1907      1910      1913
      1911      1910      1912      1911      1910      1913      1912      1910      1913
      1910      1913      1914      1910      1913      1915      1910      1913      1916
      1914      1913      1915      1914      1913      1916      1915      1913      1916
      1913      1916      1917      1913      1916      1918      1913      1916      1919
      1917      1916      1918      1917      1916      1919      1918      1916      1919
      1916      1919      1920      1916      1919      1921      1916      1919      1922
      1920      1919      1921      1920      1919      1922      1921      1919      1922
      1919      1922      1923      1919      1922      1924      1919      1922      1925
      1923      1922      1924      1923      1922      1925      1924      1922      1925
      1922      1925      1926      1922      1925      1927      1926      1925      1927
      1925      1927      1928      1925      1927      1929      1928      1927      1929
      1927      1929      1930      1927      1929      1931      1927      1929      1932
      1930      1929      1931      1930      1929      1932      1931      1929      1932
      1929      1932      1933      1929      1932      1934      1929      1932      1935
      1933      1932      1934      1933      1932      1935      1934      1932      1935
      1932      1935      1936      1932      1935      1937      1932      1935      1938
      1936      1935      1937      1936      1935      1938      1937      1935      1938
      1935      1938      1939      1935      1938      1940      1935      1938      1941
      1939      1938      1940      1939      1938      1941      1940      1938      1941
      1938      1941      1942      1938      1941      1943      1938      1941      1944
      1942      1941      1943      1942      1941      1944      1943      1941      1944
      1941      1944      1945      1941      1944      1946      1941      1944      1947
      1945      1944      1946      1945      1944      1947      1946      1944      1947
      1944      1947      1948      1944      1947      1949      1944      1947      1950
      1948      1947      1949      1948      1947      1950      1949      1947      1950
      1947      1950      1951      1947      1950      1952      1947      1950      1953
      1951      1950      1952      1951      1950      1953      1952      1950      1953
      1904      1954      1955      1904      1954      1956      1904      1954      1957
      1955      1954      1956      1955      1954      1957      1956      1954      1957
      1954      1957      1958      1954      1957      1959      1954      1957      1960
      1958      1957      1959      1958      1957      1960      1959      1957      1960
      1957      1960      1961      1957      1960      1962      1957      1960      1963
      1961      1960      1962      1961      1960      1963      1962      1960      1963
      1960      1963      1964      1960      1963      1965      1960      1963      1966
      1964      1963      1965      1964      1963      1966      1965      1963      1966
      1963      1966      1967      1963      1966      1968      1963      1966      1969
      1967      1966      1968      1967      1966      1969      1968      1966      1969
      1966      1969      1970      1966      1969      1971      1966      1969      1972
      1970      1969      1971      1970      1969      1972      1971      1969      1972
      1969      1972      1973      1969      1972      1974      1969      1972      1975
      1973      1972      1974      1973      1972      1975      1974      1972      1975
      1972      1975      1976      1972      1975      1977      1972      1975      1978
      1976      1975      1977      1976      1975      1978      1977      1975      1978
      1975      1978      1979      1975      1978      1980      1975      1978      1981
      1979      1978      1980      1979      1978      1981      1980      1978      1981
      1978      1981      1982      1978      1981      1983      1978      1981      1984
      1982      1981      1983      1982      1981      1984      1983      1981      1984
      1981      1984      1985      1981      1984      1986      1981      1984      1987
      1985      1984      1986      1985      1984      1987      1986      1984      1987
      1984      1987      1988      1984      1987      1989      1984      1987      1990
      1988      1987      1989      1988      1987      1990      1989      1987      1990
      1987      1990      1991      1987      1990      1992      1987      1990      1993
      1991      1990      1992      1991      1990      1993      1992      1990      1993
      1990      1993      1994      1990      1993      1995      1990      1993      1996
      1994      1993      1995      1994      1993      1996      1995      1993      1996
      1998      1997      2001      1998      1997      2005      1998      1997      2009
      2001      1997      2005      2001      1997      2009      2005      1997      2009
      1997      1998      1999      1997      1998      2000      1997      1998      2013
      1999      1998      2000      1999      1998      2013      2000      1998      2013
      1997      2001      2002      1997      2001      2003      1997      2001      2004
      2002      2001      2003      2002      2001      2004      2003      2001      2004
      1997      2005      2006      1997      2005      2007      1997      2005      2008
      2006      2005      2007      2006      2005      2008      2007      2005      2008
      1997      2009      2010      1997      2009      2011      1997      2009      2012
      2010      2009      2011      2010      2009      2012      2011      2009      2012
      1998      2013      2014      1998      2013      2015      1998      2013      2019
      2014      2013      2015      2014      2013      2019      2015      2013      2019
      2017      2016      2018      2017      2016      2019      2017      2016      2020
      2018      2016      2019      2018      2016      2020      2019      2016      2020
      2013      2019      2016      2016      2020      2021      2020      2021      2022
      2020      2021      2023      2020      2021      2024      2022      2021      2023
      2022      2021      2024      2023      2021      2024      2021      2024      2025
      2021      2024      2026      2021      2024      2032      2025      2024      2026
      2025      2024      2032      2026      2024      2032      2024      2026      2027
      2026      2027      2028      2026      2027      2029      2028      2027      2029
      2027      2029      2030      2027      2029      2031      2027      2029      2041
      2030      2029      2031      2030      2029      2041      2031      2029      2041
      2024      2032      2033      2024      2032      2034      2024      2032      2035
      2033      2032      2034      2033      2032      2035      2034      2032      2035
      2032      2035      2036      2035      2036      2037      2035      2036      2038
      2037      2036      2038      2036      2038      2039      2036      2038      2040
      2036      2038      2088      2039      2038      2040      2039      2038      2088
      2040      2038      2088      2029      2041      2042      2029      2041      2043
      2029      2041      2044      2042      2041      2043      2042      2041      2044
      2043      2041      2044      2041      2044      2045      2041      2044      2046
      2041      2044      2047      2045      2044      2046      2045      2044      2047
      2046      2044      2047      2044      2047      2048      2044      2047      2049
      2044      2047      2050      2048      2047      2049      2048      2047      2050
      2049      2047      2050      2047      2050      2051      2047      2050      2052
      2047      2050      2053      2051      2050      2052      2051      2050      2053
      2052      2050      2053      2050      2053      2054      2050      2053      2055
      2050      2053      2056      2054      2053      2055      2054      2053      2056
      2055      2053      2056      2053      2056      2057      2053      2056      2058
      2053      2056      2059      2057      2056      2058      2057      2056      2059
      2058      2056      2059      2056      2059      2060      2056      2059      2061
      2060      2059      2061      2059      2061      2062      2059      2061      2063
      2062      2061      2063      2061      2063      2064      2061      2063      2065
      2061      2063      2066      2064      2063      2065      2064      2063      2066
      2065      2063      2066      2063      2066      2067      2063      2066      2068
      2063      2066      2069      2067      2066      2068      2067      2066      2069
      2068      2066      2069      2066      2069      2070      2066      2069      2071
      2066      2069      2072      2070      2069      2071      2070      2069      2072
      2071      2069      2072      2069      2072      2073      2069      2072      2074
      2069      2072      2075      2073      2072      2074      2073      2072      2075
      2074      2072      2075      2072      2075      2076      2072      2075      2077
      2072      2075      2078      2076      2075      2077      2076      2075      2078
      2077      2075      2078      2075      2078      2079      2075      2078      2080
      2075      2078      2081      2079      2078      2080      2079      2078      2081
      2080      2078      2081      2078      2081      2082      2078      2081      2083
      2078      2081      2084      2082      2081      2083      2082      2081      2084
      2083      2081      2084      2081      2084      2085      2081      2084      2086
      2081      2084      2087      2085      2084      2086      2085      2084      2087
      2086      2084      2087      2038      2088      2089      2038      2088      2090
      2038      2088      2091      2089      2088      2090      2089      2088      2091
      2090      2088      2091      2088      2091      2092      2088      2091      2093
      2088      2091      2094      2092      2091      2093      2092      2091      2094
      2093      2091      2094      2091      2094      2095      2091      2094      2096
      2091      2094      2097      2095      2094      2096      2095      2094      2097
      2096      2094      2097      2094      2097      2098      2094      2097      2099
      2094      2097      2100      2098      2097      2099      2098      2097      2100
      2099      2097      2100      2097      2100      2101      2097      2100      2102
      2097      2100      2103      2101      2100      2102      2101      2100      2103
      2102      2100      2103      2100      2103      2104      2100      2103      2105
      2100      2103      2106      2104      2103      2105      2104      2103      2106
      2105      2103      2106      2103      2106      2107      2103      2106      2108
      2103      2106      2109      2107      2106      2108      2107      2106      2109
      2108      2106      2109      2106      2109      2110      2106      2109      2111
      2106      2109      2112      2110      2109      2111      2110      2109      2112
      2111      2109      2112      2109      2112      2113      2109      2112      2114
      2109      2112      2115      2113      2112      2114      2113      2112      2115
      2114      2112      2115      2112      2115      2116      2112      2115      2117
      2112      2115      2118      2116      2115      2117      2116      2115      2118
      2117      2115      2118      2115      2118      2119      2115      2118      2120
      2115      2118      2121      2119      2118      2120      2119      2118      2121
      2120      2118      2121      2118      2121      2122      2118      2121      2123
      2118      2121      2124      2122      2121      2123      2122      2121      2124
      2123      2121      2124      2121      2124      2125      2121      2124      2126
      2121      2124      2127      2125      2124      2126      2125      2124      2127
      2126      2124      2127      2124      2127      2128      2124      2127      2129
      2124      2127      2130      2128      2127      2129      2128      2127      2130
      2129      2127      2130      2132      2131      2135      2132      2131      2139
      2132      2131      2143      2135      2131      2139      2135      2131      2143
      2139      2131      2143      2131      2132      2133      2131      2132      2134
      2131      2132      2147      2133      2132      2134      2133      2132      2147
      2134      2132      2147      2131      2135      2136      2131      2135      2137
      2131      2135      2138      2136      2135      2137      2136      2135      2138
      2137      2135      2138      2131      2139      2140      2131      2139      2141
      2131      2139      2142      2140      2139      2141      2140      2139      2142
      2141      2139      2142      2131      2143      2144      2131      2143      2145
      2131      2143      2146      2144      2143      2145      2144      2143      2146
      2145      2143      2146      2132      2147      2148      2132      2147      2149
      2132      2147      2153      2148      2147      2149      2148      2147      2153
      2149      2147      2153      2151      2150      2152      2151      2150      2153
      2151      2150      2154      2152      2150      2153      2152      2150      2154
      2153      2150      2154      2147      2153      2150      2150      2154      2155
      2154      2155      2156      2154      2155      2157      2154      2155      2158
      2156      2155      2157      2156      2155      2158      2157      2155      2158
      2155      2158      2159      2155      2158      2160      2155      2158      2166
      2159      2158      2160      2159      2158      2166      2160      2158      2166
      2158      2160      2161      2160      2161      2162      2160      2161      2163
      2162      2161      2163      2161      2163      2164      2161      2163      2165
      2161      2163      2175      2164      2163      2165      2164      2163      2175
      2165      2163      2175      2158      2166      2167      2158      2166      2168
      2158      2166      2169      2167      2166      2168      2167      2166      2169
      2168      2166      2169      2166      2169      2170      2169      2170      2171
      2169      2170      2172      2171      2170      2172      2170      2172      2173
      2170      2172      2174      2170      2172      2222      2173      2172      2174
      2173      2172      2222      2174      2172      2222      2163      2175      2176
      2163      2175      2177      2163      2175      2178      2176      2175      2177
      2176      2175      2178      2177      2175      2178      2175      2178      2179
      2175      2178      2180      2175      2178      2181      2179      2178      2180
      2179      2178      2181      2180      2178      2181      2178      2181      2182
      2178      2181      2183      2178      2181      2184      2182      2181      2183
      2182      2181      2184      2183      2181      2184      2181      2184      2185
      2181      2184      2186      2181      2184      2187      2185      2184      2186
      2185      2184      2187      2186      2184      2187      2184      2187      2188
      2184      2187      2189      2184      2187      2190      2188      2187      2189
      2188      2187      2190      2189      2187      2190      2187      2190      2191
      2187      2190      2192      2187      2190      2193      2191      2190      2192
      2191      2190      2193      2192      2190      2193      2190      2193      2194
      2190      2193      2195      2194      2193      2195      2193      2195      2196
      2193      2195      2197      2196      2195      2197      2195      2197      2198
      2195      2197      2199      2195      2197      2200      2198      2197      2199
      2198      2197      2200      2199      2197      2200      2197      2200      2201
      2197      2200      2202      2197      2200      2203      2201      2200      2202
      2201      2200      2203      2202      2200      2203      2200      2203      2204
      2200      2203      2205      2200      2203      2206      2204      2203      2205
      2204      2203      2206      2205      2203      2206      2203      2206      2207
      2203      2206      2208      2203      2206      2209      2207      2206      2208
      2207      2206      2209      2208      2206      2209      2206      2209      2210
      2206      2209      2211      2206      2209      2212      2210      2209      2211
      2210      2209      2212      2211      2209      2212      2209      2212      2213
      2209      2212      2214      2209      2212      2215      2213      2212      2214
      2213      2212      2215      2214      2212      2215      2212      2215      2216
      2212      2215      2217      2212      2215      2218      2216      2215      2217
      2216      2215      2218      2217      2215      2218      2215      2218      2219
      2215      2218      2220      2215      2218      2221      2219      2218      2220
      2219      2218      2221      2220      2218      2221      2172      2222      2223
      2172      2222      2224      2172      2222      2225      2223      2222      2224
      2223      2222      2225      2224      2222      2225      2222      2225      2226
      2222      2225      2227      2222      2225      2228      2226      2225      2227
      2226      2225      2228      2227      2225      2228      2225      2228      2229
      2225      2228      2230      2225      2228      2231      2229      2228      2230
      2229      2228      2231      2230      2228      2231      2228      2231      2232
      2228      2231      2233      2228      2231      2234      2232      2231      2233
      2232      2231      2234      2233      2231      2234      2231      2234      2235
      2231      2234      2236      2231      2234      2237      2235      2234      2236
      2235      2234      2237      2236      2234      2237      2234      2237      2238
      2234      2237      2239      2234      2237      2240      2238      2237      2239
      2238      2237      2240      2239      2237      2240      2237      2240      2241
      2237      2240      2242      2237      2240      2243      2241      2240      2242
      2241      2240      2243      2242      2240      2243      2240      2243      2244
      2240      2243      2245      2240      2243      2246      2244      2243      2245
      2244      2243      2246      2245      2243      2246      2243      2246      2247
      2243      2246      2248      2243      2246      2249      2247      2246      2248
      2247      2246      2249      2248      2246      2249      2246      2249      2250
      2246      2249      2251      2246      2249      2252      2250      2249      2251
      2250      2249      2252      2251      2249      2252      2249      2252      2253
      2249      2252      2254      2249      2252      2255      2253      2252      2254
      2253      2252      2255      2254      2252      2255      2252      2255      2256
      2252      2255      2257      2252      2255      2258      2256      2255      2257
      2256      2255      2258      2257      2255      2258      2255      2258      2259
      2255      2258      2260      2255      2258      2261      2259      2258      2260
      2259      2258      2261      2260      2258      2261      2258      2261      2262
      2258      2261      2263      2258      2261      2264      2262      2261      2263
      2262      2261      2264      2263      2261      2264      2266      2265      2269
      2266      2265      2273      2266      2265      2277      2269      2265      2273
      2269      2265      2277      2273      2265      2277      2265      2266      2267
      2265      2266      2268      2265      2266      2281      2267      2266      2268
      2267      2266      2281      2268      2266      2281      2265      2269      2270
      2265      2269      2271      2265      2269      2272      2270      2269      2271
      2270      2269      2272      2271      2269      2272      2265      2273      2274
      2265      2273      2275      2265      2273      2276      2274      2273      2275
      2274      2273      2276      2275      2273      2276      2265      2277      2278
      2265      2277      2279      2265      2277      2280      2278      2277      2279
      2278      2277      2280      2279      2277      2280      2266      2281      2282
      2266      2281      2283      2266      2281      2287      2282      2281      2283
      2282      2281      2287      2283      2281      2287      2285      2284      2286
      2285      2284      2287      2285      2284      2288      2286      2284      2287
      2286      2284      2288      2287      2284      2288      2281      2287      2284
      2284      2288      2289      2288      2289      2290      2288      2289      2291
      2288      2289      2292      2290      2289      2291      2290      2289      2292
      2291      2289      2292      2289      2292      2293      2289      2292      2294
      2289      2292      2300      2293      2292      2294      2293      2292      2300
      2294      2292      2300      2292      2294      2295      2294      2295      2296
      2294      2295      2297      2296      2295      2297      2295      2297      2298
      2295      2297      2299      2295      2297      2309      2298      2297      2299
      2298      2297      2309      2299      2297      2309      2292      2300      2301
      2292      2300      2302      2292      2300      2303      2301      2300      2302
      2301      2300      2303      2302      2300      2303      2300      2303      2304
      2303      2304      2305      2303      2304      2306      2305      2304      2306
      2304      2306      2307      2304      2306      2308      2304      2306      2356
      2307      2306      2308      2307      2306      2356      2308      2306      2356
      2297      2309      2310      2297      2309      2311      2297      2309      2312
      2310      2309      2311      2310      2309      2312      2311      2309      2312
      2309      2312      2313      2309      2312      2314      2309      2312      2315
      2313      2312      2314      2313      2312      2315      2314      2312      2315
      2312      2315      2316      2312      2315      2317      2312      2315      2318
      2316      2315      2317      2316      2315      2318      2317      2315      2318
      2315      2318      2319      2315      2318      2320      2315      2318      2321
      2319      2318      2320      2319      2318      2321      2320      2318      2321
      2318      2321      2322      2318      2321      2323      2318      2321      2324
      2322      2321      2323      2322      2321      2324      2323      2321      2324
      2321      2324      2325      2321      2324      2326      2321      2324      2327
      2325      2324      2326      2325      2324      2327      2326      2324      2327
      2324      2327      2328      2324      2327      2329      2328      2327      2329
      2327      2329      2330      2327      2329      2331      2330      2329      2331
      2329      2331      2332      2329      2331      2333      2329      2331      2334
      2332      2331      2333      2332      2331      2334      2333      2331      2334
      2331      2334      2335      2331      2334      2336      2331      2334      2337
      2335      2334      2336      2335      2334      2337      2336      2334      2337
      2334      2337      2338      2334      2337      2339      2334      2337      2340
      2338      2337      2339      2338      2337      2340      2339      2337      2340
      2337      2340      2341      2337      2340      2342      2337      2340      2343
      2341      2340      2342      2341      2340      2343      2342      2340      2343
      2340      2343      2344      2340      2343      2345      2340      2343      2346
      2344      2343      2345      2344      2343      2346      2345      2343      2346
      2343      2346      2347      2343      2346      2348      2343      2346      2349
      2347      2346      2348      2347      2346      2349      2348      2346      2349
      2346      2349      2350      2346      2349      2351      2346      2349      2352
      2350      2349      2351      2350      2349      2352      2351      2349      2352
      2349      2352      2353      2349      2352      2354      2349      2352      2355
      2353      2352      2354      2353      2352      2355      2354      2352      2355
      2306      2356      2357      2306      2356      2358      2306      2356      2359
      2357      2356      2358      2357      2356      2359      2358      2356      2359
      2356      2359      2360      2356      2359      2361      2356      2359      2362
      2360      2359      2361      2360      2359      2362      2361      2359      2362
      2359      2362      2363      2359      2362      2364      2359      2362      2365
      2363      2362      2364      2363      2362      2365      2364      2362      2365
      2362      2365      2366      2362      2365      2367      2362      2365      2368
      2366      2365      2367      2366      2365      2368      2367      2365      2368
      2365      2368      2369      2365      2368      2370      2365      2368      2371
      2369      2368      2370      2369      2368      2371      2370      2368      2371
      2368      2371      2372      2368      2371      2373      2368      2371      2374
      2372      2371      2373      2372      2371      2374      2373      2371      2374
      2371      2374      2375      2371      2374      2376      2371      2374      2377
      2375      2374      2376      2375      2374      2377      2376      2374      2377
      2374      2377      2378      2374      2377      2379      2374      2377      2380
      2378      2377      2379      2378      2377      2380      2379      2377      2380
      2377      2380      2381      2377      2380      2382      2377      2380      2383
      2381      2380      2382      2381      2380      2383      2382      2380      2383
      2380      2383      2384      2380      2383      2385      2380      2383      2386
      2384      2383      2385      2384      2383      2386      2385      2383      2386
      2383      2386      2387      2383      2386      2388      2383      2386      2389
      2387      2386      2388      2387      2386      2389      2388      2386      2389
      2386      2389      2390      2386      2389      2391      2386      2389      2392
      2390      2389      2391      2390      2389      2392      2391      2389      2392
      2389      2392      2393      2389      2392      2394      2389      2392      2395
      2393      2392      2394      2393      2392      2395      2394      2392      2395
      2392      2395      2396      2392      2395      2397      2392      2395      2398
      2396      2395      2397      2396      2395      2398      2397      2395      2398
      2400      2399      2403      2400      2399      2407      2400      2399      2411
      2403      2399      2407      2403      2399      2411      2407      2399      2411
      2399      2400      2401      2399      2400      2402      2399      2400      2415
      2401      2400      2402      2401      2400      2415      2402      2400      2415
      2399      2403      2404      2399      2403      2405      2399      2403      2406
      2404      2403      2405      2404      2403      2406      2405      2403      2406
      2399      2407      2408      2399      2407      2409      2399      2407      2410
      2408      2407      2409      2408      2407      2410      2409      2407      2410
      2399      2411      2412      2399      2411      2413      2399      2411      2414
      2412      2411      2413      2412      2411      2414      2413      2411      2414
      2400      2415      2416      2400      2415      2417      2400      2415      2421
      2416      2415      2417      2416      2415      2421      2417      2415      2421
      2419      2418      2420      2419      2418      2421      2419      2418      2422
      2420      2418      2421      2420      2418      2422      2421      2418      2422
      2415      2421      2418      2418      2422      2423      2422      2423      2424
      2422      2423      2425      2422      2423      2426      2424      2423      2425
      2424      2423      2426      2425      2423      2426      2423      2426      2427
      2423      2426      2428      2423      2426      2434      2427      2426      2428
      2427      2426      2434      2428      2426      2434      2426      2428      2429
      2428      2429      2430      2428      2429      2431      2430      2429      2431
      2429      2431      2432      2429      2431      2433      2429      2431      2443
      2432      2431      2433      2432      2431      2443      2433      2431      2443
      2426      2434      2435      2426      2434      2436      2426      2434      2437
      2435      2434      2436      2435      2434      2437      2436      2434      2437
      2434      2437      2438      2437      2438      2439      2437      2438      2440
      2439      2438      2440      2438      2440      2441      2438      2440      2442
      2438      2440      2490      2441      2440      2442      2441      2440      2490
      2442      2440      2490      2431      2443      2444      2431      2443      2445
      2431      2443      2446      2444      2443      2445      2444      2443      2446
      2445      2443      2446      2443      2446      2447      2443      2446      2448
      2443      2446      2449      2447      2446      2448      2447      2446      2449
      2448      2446      2449      2446      2449      2450      2446      2449      2451
      2446      2449      2452      2450      2449      2451      2450      2449      2452
      2451      2449      2452      2449      2452      2453      2449      2452      2454
      2449      2452      2455      2453      2452      2454      2453      2452      2455
      2454      2452      2455      2452      2455      2456      2452      2455      2457
      2452      2455      2458      2456      2455      2457      2456      2455      2458
      2457      2455      2458      2455      2458      2459      2455      2458      2460
      2455      2458      2461      2459      2458      2460      2459      2458      2461
      2460      2458      2461      2458      2461      2462      2458      2461      2463
      2462      2461      2463      2461      2463      2464      2461      2463      2465
      2464      2463      2465      2463      2465      2466      2463      2465      2467
      2463      2465      2468      2466      2465      2467      2466      2465      2468
      2467      2465      2468      2465      2468      2469      2465      2468      2470
      2465      2468      2471      2469      2468      2470      2469      2468      2471
      2470      2468      2471      2468      2471      2472      2468      2471      2473
      2468      2471      2474      2472      2471      2473      2472      2471      2474
      2473      2471      2474      2471      2474      2475      2471      2474      2476
      2471      2474      2477      2475      2474      2476      2475      2474      2477
      2476      2474      2477      2474      2477      2478      2474      2477      2479
      2474      2477      2480      2478      2477      2479      2478      2477      2480
      2479      2477      2480      2477      2480      2481      2477      2480      2482
      2477      2480      2483      2481      2480      2482      2481      2480      2483
      2482      2480      2483      2480      2483      2484      2480      2483      2485
      2480      2483      2486      2484      2483      2485      2484      2483      2486
      2485      2483      2486      2483      2486      2487      2483      2486      2488
      2483      2486      2489      2487      2486      2488      2487      2486      2489
      2488      2486      2489      2440      2490      2491      2440      2490      2492
      2440      2490      2493      2491      2490      2492      2491      2490      2493
      2492      2490      2493      2490      2493      2494      2490      2493      2495
      2490      2493      2496      2494      2493      2495      2494      2493      2496
      2495      2493      2496      2493      2496      2497      2493      2496      2498
      2493      2496      2499      2497      2496      2498      2497      2496      2499
      2498      2496      2499      2496      2499      2500      2496      2499      2501
      2496      2499      2502      2500      2499      2501      2500      2499      2502
      2501      2499      2502      2499      2502      2503      2499      2502      2504
      2499      2502      2505      2503      2502      2504      2503      2502      2505
      2504      2502      2505      2502      2505      2506      2502      2505      2507
      2502      2505      2508      2506      2505      2507      2506      2505      2508
      2507      2505      2508      2505      2508      2509      2505      2508      2510
      2505      2508      2511      2509      2508      2510      2509      2508      2511
      2510      2508      2511      2508      2511      2512      2508      2511      2513
      2508      2511      2514      2512      2511      2513      2512      2511      2514
      2513      2511      2514      2511      2514      2515      2511      2514      2516
      2511      2514      2517      2515      2514      2516      2515      2514      2517
      2516      2514      2517      2514      2517      2518      2514      2517      2519
      2514      2517      2520      2518      2517      2519      2518      2517      2520
      2519      2517      2520      2517      2520      2521      2517      2520      2522
      2517      2520      2523      2521      2520      2522      2521      2520      2523
      2522      2520      2523      2520      2523      2524      2520      2523      2525
      2520      2523      2526      2524      2523      2525      2524      2523      2526
      2525      2523      2526      2523      2526      2527      2523      2526      2528
      2523      2526      2529      2527      2526      2528      2527      2526      2529
      2528      2526      2529      2526      2529      2530      2526      2529      2531
      2526      2529      2532      2530      2529      2531      2530      2529      2532
      2531      2529      2532      2534      2533      2537      2534      2533      2541
      2534      2533      2545      2537      2533      2541      2537      2533      2545
      2541      2533      2545      2533      2534      2535      2533      2534      2536
      2533      2534      2549      2535      2534      2536      2535      2534      2549
      2536      2534      2549      2533      2537      2538      2533      2537      2539
      2533      2537      2540      2538      2537      2539      2538      2537      2540
      2539      2537      2540      2533      2541      2542      2533      2541      2543
      2533      2541      2544      2542      2541      2543      2542      2541      2544
      2543      2541      2544      2533      2545      2546      2533      2545      2547
      2533      2545      2548      2546      2545      2547      2546      2545      2548
      2547      2545      2548      2534      2549      2550      2534      2549      2551
      2534      2549      2555      2550      2549      2551      2550      2549      2555
      2551      2549      2555      2553      2552      2554      2553      2552      2555
      2553      2552      2556      2554      2552      2555      2554      2552      2556
      2555      2552      2556      2549      2555      2552      2552      2556      2557
      2556      2557      2558      2556      2557      2559      2556      2557      2560
      2558      2557      2559      2558      2557      2560      2559      2557      2560
      2557      2560      2561      2557      2560      2562      2557      2560      2568
      2561      2560      2562      2561      2560      2568      2562      2560      2568
      2560      2562      2563      2562      2563      2564      2562      2563      2565
      2564      2563      2565      2563      2565      2566      2563      2565      2567
      2563      2565      2577      2566      2565      2567      2566      2565      2577
      2567      2565      2577      2560      2568      2569      2560      2568      2570
      2560      2568      2571      2569      2568      2570      2569      2568      2571
      2570      2568      2571      2568      2571      2572      2571      2572      2573
      2571      2572      2574      2573      2572      2574      2572      2574      2575
      2572      2574      2576      2572      2574      2624      2575      2574      2576
      2575      2574      2624      2576      2574      2624      2565      2577      2578
      2565      2577      2579      2565      2577      2580      2578      2577      2579
      2578      2577      2580      2579      2577      2580      2577      2580      2581
      2577      2580      2582      2577      2580      2583      2581      2580      2582
      2581      2580      2583      2582      2580      2583      2580      2583      2584
      2580      2583      2585      2580      2583      2586      2584      2583      2585
      2584      2583      2586      2585      2583      2586      2583      2586      2587
      2583      2586      2588      2583      2586      2589      2587      2586      2588
      2587      2586      2589      2588      2586      2589      2586      2589      2590
      2586      2589      2591      2586      2589      2592      2590      2589      2591
      2590      2589      2592      2591      2589      2592      2589      2592      2593
      2589      2592      2594      2589      2592      2595      2593      2592      2594
      2593      2592      2595      2594      2592      2595      2592      2595      2596
      2592      2595      2597      2596      2595      2597      2595      2597      2598
      2595      2597      2599      2598      2597      2599      2597      2599      2600
      2597      2599      2601      2597      2599      2602      2600      2599      2601
      2600      2599      2602      2601      2599      2602      2599      2602      2603
      2599      2602      2604      2599      2602      2605      2603      2602      2604
      2603      2602      2605      2604      2602      2605      2602      2605      2606
      2602      2605      2607      2602      2605      2608      2606      2605      2607
      2606      2605      2608      2607      2605      2608      2605      2608      2609
      2605      2608      2610      2605      2608      2611      2609      2608      2610
      2609      2608      2611      2610      2608      2611      2608      2611      2612
      2608      2611      2613      2608      2611      2614      2612      2611      2613
      2612      2611      2614      2613      2611      2614      2611      2614      2615
      2611      2614      2616      2611      2614      2617      2615      2614      2616
      2615      2614      2617      2616      2614      2617      2614      2617      2618
      2614      2617      2619      2614      2617      2620      2618      2617      2619
      2618      2617      2620      2619      2617      2620      2617      2620      2621
      2617      2620      2622      2617      2620      2623      2621      2620      2622
      2621      2620      2623      2622      2620      2623      2574      2624      2625
      2574      2624      2626      2574      2624      2627      2625      2624      2626
      2625      2624      2627      2626      2624      2627      2624      2627      2628
      2624      2627      2629      2624      2627      2630      2628      2627      2629
      2628      2627      2630      2629      2627      2630      2627      2630      2631
      2627      2630      2632      2627      2630      2633      2631      2630      2632
      2631      2630      2633      2632      2630      2633      2630      2633      2634
      2630      2633      2635      2630      2633      2636      2634      2633      2635
      2634      2633      2636      2635      2633      2636      2633      2636      2637
      2633      2636      2638      2633      2636      2639      2637      2636      2638
      2637      2636      2639      2638      2636      2639      2636      2639      2640
      2636      2639      2641      2636      2639      2642      2640      2639      2641
      2640      2639      2642      2641      2639      2642      2639      2642      2643
      2639      2642      2644      2639      2642      2645      2643      2642      2644
      2643      2642      2645      2644      2642      2645      2642      2645      2646
      2642      2645      2647      2642      2645      2648      2646      2645      2647
      2646      2645      2648      2647      2645      2648      2645      2648      2649
      2645      2648      2650      2645      2648      2651      2649      2648      2650
      2649      2648      2651      2650      2648      2651      2648      2651      2652
      2648      2651      2653      2648      2651      2654      2652      2651      2653
      2652      2651      2654      2653      2651      2654      2651      2654      2655
      2651      2654      2656      2651      2654      2657      2655      2654      2656
      2655      2654      2657      2656      2654      2657      2654      2657      2658
      2654      2657      2659      2654      2657      2660      2658      2657      2659
      2658      2657      2660      2659      2657      2660      2657      2660      2661
      2657      2660      2662      2657      2660      2663      2661      2660      2662
      2661      2660      2663      2662      2660      2663      2660      2663      2664
      2660      2663      2665      2660      2663      2666      2664      2663      2665
      2664      2663      2666      2665      2663      2666      2668      2667      2671
      2668      2667      2675      2668      2667      2679      2671      2667      2675
      2671      2667      2679      2675      2667      2679      2667      2668      2669
      2667      2668      2670      2667      2668      2683      2669      2668      2670
      2669      2668      2683      2670      2668      2683      2667      2671      2672
      2667      2671      2673      2667      2671      2674      2672      2671      2673
      2672      2671      2674      2673      2671      2674      2667      2675      2676
      2667      2675      2677      2667      2675      2678      2676      2675      2677
      2676      2675      2678      2677      2675      2678      2667      2679      2680
      2667      2679      2681      2667      2679      2682      2680      2679      2681
      2680      2679      2682      2681      2679      2682      2668      2683      2684
      2668      2683      2685      2668      2683      2689      2684      2683      2685
      2684      2683      2689      2685      2683      2689      2687      2686      2688
      2687      2686      2689      2687      2686      2690      2688      2686      2689
      2688      2686      2690      2689      2686      2690      2683      2689      2686
      2686      2690      2691      2690      2691      2692      2690      2691      2693
      2690      2691      2694      2692      2691      2693      2692      2691      2694
      2693      2691      2694      2691      2694      2695      2691      2694      2696
      2691      2694      2702      2695      2694      2696      2695      2694      2702
      2696      2694      2702      2694      2696      2697      2696      2697      2698
      2696      2697      2699      2698      2697      2699      2697      2699      2700
      2697      2699      2701      2697      2699      2711      2700      2699      2701
      2700      2699      2711      2701      2699      2711      2694      2702      2703
      2694      2702      2704      2694      2702      2705      2703      2702      2704
      2703      2702      2705      2704      2702      2705      2702      2705      2706
      2705      2706      2707      2705      2706      2708      2707      2706      2708
      2706      2708      2709      2706      2708      2710      2706      2708      2758
      2709      2708      2710      2709      2708      2758      2710      2708      2758
      2699      2711      2712      2699      2711      2713      2699      2711      2714
      2712      2711      2713      2712      2711      2714      2713      2711      2714
      2711      2714      2715      2711      2714      2716      2711      2714      2717
      2715      2714      2716      2715      2714      2717      2716      2714      2717
      2714      2717      2718      2714      2717      2719      2714      2717      2720
      2718      2717      2719      2718      2717      2720      2719      2717      2720
      2717      2720      2721      2717      2720      2722      2717      2720      2723
      2721      2720      2722      2721      2720      2723      2722      2720      2723
      2720      2723      2724      2720      2723      2725      2720      2723      2726
      2724      2723      2725      2724      2723      2726      2725      2723      2726
      2723      2726      2727      2723      2726      2728      2723      2726      2729
      2727      2726      2728      2727      2726      2729      2728      2726      2729
      2726      2729      2730      2726      2729      2731      2730      2729      2731
      2729      2731      2732      2729      2731      2733      2732      2731      2733
      2731      2733      2734      2731      2733      2735      2731      2733      2736
      2734      2733      2735      2734      2733      2736      2735      2733      2736
      2733      2736      2737      2733      2736      2738      2733      2736      2739
      2737      2736      2738      2737      2736      2739      2738      2736      2739
      2736      2739      2740      2736      2739      2741      2736      2739      2742
      2740      2739      2741      2740      2739      2742      2741      2739      2742
      2739      2742      2743      2739      2742      2744      2739      2742      2745
      2743      2742      2744      2743      2742      2745      2744      2742      2745
      2742      2745      2746      2742      2745      2747      2742      2745      2748
      2746      2745      2747      2746      2745      2748      2747      2745      2748
      2745      2748      2749      2745      2748      2750      2745      2748      2751
      2749      2748      2750      2749      2748      2751      2750      2748      2751
      2748      2751      2752      2748      2751      2753      2748      2751      2754
      2752      2751      2753      2752      2751      2754      2753      2751      2754
      2751      2754      2755      2751      2754      2756      2751      2754      2757
      2755      2754      2756      2755      2754      2757      2756      2754      2757
      2708      2758      2759      2708      2758      2760      2708      2758      2761
      2759      2758      2760      2759      2758      2761      2760      2758      2761
      2758      2761      2762      2758      2761      2763      2758      2761      2764
      2762      2761      2763      2762      2761      2764      2763      2761      2764
      2761      2764      2765      2761      2764      2766      2761      2764      2767
      2765      2764      2766      2765      2764      2767      2766      2764      2767
      2764      2767      2768      2764      2767      2769      2764      2767      2770
      2768      2767      2769      2768      2767      2770      2769      2767      2770
      2767      2770      2771      2767      2770      2772      2767      2770      2773
      2771      2770      2772      2771      2770      2773      2772      2770      2773
      2770      2773      2774      2770      2773      2775      2770      2773      2776
      2774      2773      2775      2774      2773      2776      2775      2773      2776
      2773      2776      2777      2773      2776      2778      2773      2776      2779
      2777      2776      2778      2777      2776      2779      2778      2776      2779
      2776      2779      2780      2776      2779      2781      2776      2779      2782
      2780      2779      2781      2780      2779      2782      2781      2779      2782
      2779      2782      2783      2779      2782      2784      2779      2782      2785
      2783      2782      2784      2783      2782      2785      2784      2782      2785
      2782      2785      2786      2782      2785      2787      2782      2785      2788
      2786      2785      2787      2786      2785      2788      2787      2785      2788
      2785      2788      2789      2785      2788      2790      2785      2788      2791
      2789      2788      2790      2789      2788      2791      2790      2788      2791
      2788      2791      2792      2788      2791      2793      2788      2791      2794
      2792      2791      2793      2792      2791      2794      2793      2791      2794
      2791      2794      2795      2791      2794      2796      2791      2794      2797
      2795      2794      2796      2795      2794      2797      2796      2794      2797
      2794      2797      2798      2794      2797      2799      2794      2797      2800
      2798      2797      2799      2798      2797      2800      2799      2797      2800
      2802      2801      2803      2802      2801      2804      2802      2801      2805
      2803      2801      2804      2803      2801      2805      2804      2801      2805
      2801      2805      2806      2801      2805      2807      2801      2805      2810
      2806      2805      2807      2806      2805      2810      2807      2805      2810
      2805      2807      2808      2805      2807      2809      2808      2807      2809
      2805      2810      2811      2805      2810      2812      2805      2810      2816
      2811      2810      2812      2811      2810      2816      2812      2810      2816
      2814      2813      2815      2814      2813      2816      2814      2813      2817
      2815      2813      2816      2815      2813      2817      2816      2813      2817
      2810      2816      2813      2813      2817      2818      2817      2818      2819
      2817      2818      2820      2817      2818      2821      2819      2818      2820
      2819      2818      2821      2820      2818      2821      2818      2821      2822
      2818      2821      2823      2818      2821      2829      2822      2821      2823
      2822      2821      2829      2823      2821      2829      2821      2823      2824
      2823      2824      2825      2823      2824      2826      2825      2824      2826
      2824      2826      2827      2824      2826      2828      2824      2826      2838
      2827      2826      2828      2827      2826      2838      2828      2826      2838
      2821      2829      2830      2821      2829      2831      2821      2829      2832
      2830      2829      2831      2830      2829      2832      2831      2829      2832
      2829      2832      2833      2832      2833      2834      2832      2833      2835
      2834      2833      2835      2833      2835      2836      2833      2835      2837
      2833      2835      2885      2836      2835      2837      2836      2835      2885
      2837      2835      2885      2826      2838      2839      2826      2838      2840
      2826      2838      2841      2839      2838      2840      2839      2838      2841
      2840      2838      2841      2838      2841      2842      2838      2841      2843
      2838      2841      2844      2842      2841      2843      2842      2841      2844
      2843      2841      2844      2841      2844      2845      2841      2844      2846
      2841      2844      2847      2845      2844      2846      2845      2844      2847
      2846      2844      2847      2844      2847      2848      2844      2847      2849
      2844      2847      2850      2848      2847      2849      2848      2847      2850
      2849      2847      2850      2847      2850      2851      2847      2850      2852
      2847      2850      2853      2851      2850      2852      2851      2850      2853
      2852      2850      2853      2850      2853      2854      2850      2853      2855
      2850      2853      2856      2854      2853      2855      2854      2853      2856
      2855      2853      2856      2853      2856      2857      2853      2856      2858
      2857      2856      2858      2856      2858      2859      2856      2858      2860
      2859      2858      2860      2858      2860      2861      2858      2860      2862
      2858      2860      2863      2861      2860      2862      2861      2860      2863
      2862      2860      2863      2860      2863      2864      2860      2863      2865
      2860      2863      2866      2864      2863      2865      2864      2863      2866
      2865      2863      2866      2863      2866      2867      2863      2866      2868
      2863      2866      2869      2867      2866      2868      2867      2866      2869
      2868      2866      2869      2866      2869      2870      2866      2869      2871
      2866      2869      2872      2870      2869      2871      2870      2869      2872
      2871      2869      2872      2869      2872      2873      2869      2872      2874
      2869      2872      2875      2873      2872      2874      2873      2872      2875
      2874      2872      2875      2872      2875      2876      2872      2875      2877
      2872      2875      2878      2876      2875      2877      2876      2875      2878
      2877      2875      2878      2875      2878      2879      2875      2878      2880
      2875      2878      2881      2879      2878      2880      2879      2878      2881
      2880      2878      2881      2878      2881      2882      2878      2881      2883
      2878      2881      2884      2882      2881      2883      2882      2881      2884
      2883      2881      2884      2835      2885      2886      2835      2885      2887
      2835      2885      2888      2886      2885      2887      2886      2885      2888
      2887      2885      2888      2885      2888      2889      2885      2888      2890
      2885      2888      2891      2889      2888      2890      2889      2888      2891
      2890      2888      2891      2888      2891      2892      2888      2891      2893
      2888      2891      2894      2892      2891      2893      2892      2891      2894
      2893      2891      2894      2891      2894      2895      2891      2894      2896
      2891      2894      2897      2895      2894      2896      2895      2894      2897
      2896      2894      2897      2894      2897      2898      2894      2897      2899
      2894      2897      2900      2898      2897      2899      2898      2897      2900
      2899      2897      2900      2897      2900      2901      2897      2900      2902
      2897      2900      2903      2901      2900      2902      2901      2900      2903
      2902      2900      2903      2900      2903      2904      2900      2903      2905
      2900      2903      2906      2904      2903      2905      2904      2903      2906
      2905      2903      2906      2903      2906      2907      2903      2906      2908
      2903      2906      2909      2907      2906      2908      2907      2906      2909
      2908      2906      2909      2906      2909      2910      2906      2909      2911
      2906      2909      2912      2910      2909      2911      2910      2909      2912
      2911      2909      2912      2909      2912      2913      2909      2912      2914
      2909      2912      2915      2913      2912      2914      2913      2912      2915
      2914      2912      2915      2912      2915      2916      2912      2915      2917
      2912      2915      2918      2916      2915      2917      2916      2915      2918
      2917      2915      2918      2915      2918      2919      2915      2918      2920
      2915      2918      2921      2919      2918      2920      2919      2918      2921
      2920      2918      2921      2918      2921      2922      2918      2921      2923
      2918      2921      2924      2922      2921      2923      2922      2921      2924
      2923      2921      2924      2921      2924      2925      2921      2924      2926
      2921      2924      2927      2925      2924      2926      2925      2924      2927
      2926      2924      2927      2929      2928      2932      2929      2928      2936
      2929      2928      2940      2932      2928      2936      2932      2928      2940
      2936      2928      2940      2928      2929      2930      2928      2929      2931
      2928      2929      2944      2930      2929      2931      2930      2929      2944
      2931      2929      2944      2928      2932      2933      2928      2932      2934
      2928      2932      2935      2933      2932      2934      2933      2932      2935
      2934      2932      2935      2928      2936      2937      2928      2936      2938
      2928      2936      2939      2937      2936      2938      2937      2936      2939
      2938      2936      2939      2928      2940      2941      2928      2940      2942
      2928      2940      2943      2941      2940      2942      2941      2940      2943
      2942      2940      2943      2929      2944      2945      2929      2944      2946
      2929      2944      2950      2945      2944      2946      2945      2944      2950
      2946      2944      2950      2948      2947      2949      2948      2947      2950
      2948      2947      2951      2949      2947      2950      2949      2947      2951
      2950      2947      2951      2944      2950      2947      2947      2951      2952
      2951      2952      2953      2951      2952      2954      2951      2952      2955
      2953      2952      2954      2953      2952      2955      2954      2952      2955
      2952      2955      2956      2952      2955      2957      2952      2955      2963
      2956      2955      2957      2956      2955      2963      2957      2955      2963
      2955      2957      2958      2957      2958      2959      2957      2958      2960
      2959      2958      2960      2958      2960      2961      2958      2960      2962
      2958      2960      2972      2961      2960      2962      2961      2960      2972
      2962      2960      2972      2955      2963      2964      2955      2963      2965
      2955      2963      2966      2964      2963      2965      2964      2963      2966
      2965      2963      2966      2963      2966      2967      2966      2967      2968
      2966      2967      2969      2968      2967      2969      2967      2969      2970
      2967      2969      2971      2967      2969      3019      2970      2969      2971
      2970      2969      3019      2971      2969      3019      2960      2972      2973
      2960      2972      2974      2960      2972      2975      2973      2972      2974
      2973      2972      2975      2974      2972      2975      2972      2975      2976
      2972      2975      2977      2972      2975      2978      2976      2975      2977
      2976      2975      2978      2977      2975      2978      2975      2978      2979
      2975      2978      2980      2975      2978      2981      2979      2978      2980
      2979      2978      2981      2980      2978      2981      2978      2981      2982
      2978      2981      2983      2978      2981      2984      2982      2981      2983
      2982      2981      2984      2983      2981      2984      2981      2984      2985
      2981      2984      2986      2981      2984      2987      2985      2984      2986
      2985      2984      2987      2986      2984      2987      2984      2987      2988
      2984      2987      2989      2984      2987      2990      2988      2987      2989
      2988      2987      2990      2989      2987      2990      2987      2990      2991
      2987      2990      2992      2991      2990      2992      2990      2992      2993
      2990      2992      2994      2993      2992      2994      2992      2994      2995
      2992      2994      2996      2992      2994      2997      2995      2994      2996
      2995      2994      2997      2996      2994      2997      2994      2997      2998
      2994      2997      2999      2994      2997      3000      2998      2997      2999
      2998      2997      3000      2999      2997      3000      2997      3000      3001
      2997      3000      3002      2997      3000      3003      3001      3000      3002
      3001      3000      3003      3002      3000      3003      3000      3003      3004
      3000      3003      3005      3000      3003      3006      3004      3003      3005
      3004      3003      3006      3005      3003      3006      3003      3006      3007
      3003      3006      3008      3003      3006      3009      3007      3006      3008
      3007      3006      3009      3008      3006      3009      3006      3009      3010
      3006      3009      3011      3006      3009      3012      3010      3009      3011
      3010      3009      3012      3011      3009      3012      3009      3012      3013
      3009      3012      3014      3009      3012      3015      3013      3012      3014
      3013      3012      3015      3014      3012      3015      3012      3015      3016
      3012      3015      3017      3012      3015      3018      3016      3015      3017
      3016      3015      3018      3017      3015      3018      2969      3019      3020
      2969      3019      3021      2969      3019      3022      3020      3019      3021
      3020      3019      3022      3021      3019      3022      3019      3022      3023
      3019      3022      3024      3019      3022      3025      3023      3022      3024
      3023      3022      3025      3024      3022      3025      3022      3025      3026
      3022      3025      3027      3022      3025      3028      3026      3025      3027
      3026      3025      3028      3027      3025      3028      3025      3028      3029
      3025      3028      3030      3025      3028      3031      3029      3028      3030
      3029      3028      3031      3030      3028      3031      3028      3031      3032
      3028      3031      3033      3028      3031      3034      3032      3031      3033
      3032      3031      3034      3033      3031      3034      3031      3034      3035
      3031      3034      3036      3031      3034      3037      3035      3034      3036
      3035      3034      3037      3036      3034      3037      3034      3037      3038
      3034      3037      3039      3034      3037      3040      3038      3037      3039
      3038      3037      3040      3039      3037      3040      3037      3040      3041
      3037      3040      3042      3037      3040      3043      3041      3040      3042
      3041      3040      3043      3042      3040      3043      3040      3043      3044
      3040      3043      3045      3040      3043      3046      3044      3043      3045
      3044      3043      3046      3045      3043      3046      3043      3046      3047
      3043      3046      3048      3043      3046      3049      3047      3046      3048
      3047      3046      3049      3048      3046      3049      3046      3049      3050
      3046      3049      3051      3046      3049      3052      3050      3049      3051
      3050      3049      3052      3051      3049      3052      3049      3052      3053
      3049      3052      3054      3049      3052      3055      3053      3052      3054
      3053      3052      3055      3054      3052      3055      3052      3055      3056
      3052      3055      3057      3052      3055      3058      3056      3055      3057
      3056      3055      3058      3057      3055      3058      3055      3058      3059
      3055      3058      3060      3055      3058      3061      3059      3058      3060
      3059      3058      3061      3060      3058      3061      3063      3062      3064
      3063      3062      3065      3063      3062      3066      3064      3062      3065
      3064      3062      3066      3065      3062      3066      3062      3066      3067
      3062      3066      3068      3062      3066      3071      3067      3066      3068
      3067      3066      3071      3068      3066      3071      3066      3068      3069
      3066      3068      3070      3069      3068      3070      3066      3071      3072
      3066      3071      3073      3066      3071      3077      3072      3071      3073
      3072      3071      3077      3073      3071      3077      3075      3074      3076
      3075      3074      3077      3075      3074      3078      3076      3074      3077
      3076      3074      3078      3077      3074      3078      3071      3077      3074
      3074      3078      3079      3078      3079      3080      3078      3079      3081
      3078      3079      3082      3080      3079      3081      3080      3079      3082
      3081      3079      3082      3079      3082      3083      3079      3082      3084
      3079      3082      3090      3083      3082      3084      3083      3082      3090
      3084      3082      3090      3082      3084      3085      3084      3085      3086
      3084      3085      3087      3086      3085      3087      3085      3087      3088
      3085      3087      3089      3085      3087      3099      3088      3087      3089
      3088      3087      3099      3089      3087      3099      3082      3090      3091
      3082      3090      3092      3082      3090      3093      3091      3090      3092
      3091      3090      3093      3092      3090      3093      3090      3093      3094
      3093      3094      3095      3093      3094      3096      3095      3094      3096
      3094      3096      3097      3094      3096      3098      3094      3096      3146
      3097      3096      3098      3097      3096      3146      3098      3096      3146
      3087      3099      3100      3087      3099      3101      3087      3099      3102
      3100      3099      3101      3100      3099      3102      3101      3099      3102
      3099      3102      3103      3099      3102      3104      3099      3102      3105
      3103      3102      3104      3103      3102      3105      3104      3102      3105
      3102      3105      3106      3102      3105      3107      3102      3105      3108
      3106      3105      3107      3106      3105      3108      3107      3105      3108
      3105      3108      3109      3105      3108      3110      3105      3108      3111
      3109      3108      3110      3109      3108      3111      3110      3108      3111
      3108      3111      3112      3108      3111      3113      3108      3111      3114
      3112      3111      3113      3112      3111      3114      3113      3111      3114
      3111      3114      3115      3111      3114      3116      3111      3114      3117
      3115      3114      3116      3115      3114      3117      3116      3114      3117
      3114      3117      3118      3114      3117      3119      3118      3117      3119
      3117      3119      3120      3117      3119      3121      3120      3119      3121
      3119      3121      3122      3119      3121      3123      3119      3121      3124
      3122      3121      3123      3122      3121      3124      3123      3121      3124
      3121      3124      3125      3121      3124      3126      3121      3124      3127
      3125      3124      3126      3125      3124      3127      3126      3124      3127
      3124      3127      3128      3124      3127      3129      3124      3127      3130
      3128      3127      3129      3128      3127      3130      3129      3127      3130
      3127      3130      3131      3127      3130      3132      3127      3130      3133
      3131      3130      3132      3131      3130      3133      3132      3130      3133
      3130      3133      3134      3130      3133      3135      3130      3133      3136
      3134      3133      3135      3134      3133      3136      3135      3133      3136
      3133      3136      3137      3133      3136      3138      3133      3136      3139
      3137      3136      3138      3137      3136      3139      3138      3136      3139
      3136      3139      3140      3136      3139      3141      3136      3139      3142
      3140      3139      3141      3140      3139      3142      3141      3139      3142
      3139      3142      3143      3139      3142      3144      3139      3142      3145
      3143      3142      3144      3143      3142      3145      3144      3142      3145
      3096      3146      3147      3096      3146      3148      3096      3146      3149
      3147      3146      3148      3147      3146      3149      3148      3146      3149
      3146      3149      3150      3146      3149      3151      3146      3149      3152
      3150      3149      3151      3150      3149      3152      3151      3149      3152
      3149      3152      3153      3149      3152      3154      3149      3152      3155
      3153      3152      3154      3153      3152      3155      3154      3152      3155
      3152      3155      3156      3152      3155      3157      3152      3155      3158
      3156      3155      3157      3156      3155      3158      3157      3155      3158
      3155      3158      3159      3155      3158      3160      3155      3158      3161
      3159      3158      3160      3159      3158      3161      3160      3158      3161
      3158      3161      3162      3158      3161      3163      3158      3161      3164
      3162      3161      3163      3162      3161      3164      3163      3161      3164
      3161      3164      3165      3161      3164      3166      3161      3164      3167
      3165      3164      3166      3165      3164      3167      3166      3164      3167
      3164      3167      3168      3164      3167      3169      3164      3167      3170
      3168      3167      3169      3168      3167      3170      3169      3167      3170
      3167      3170      3171      3167      3170      3172      3167      3170      3173
      3171      3170      3172      3171      3170      3173      3172      3170      3173
      3170      3173      3174      3170      3173      3175      3170      3173      3176
      3174      3173      3175      3174      3173      3176      3175      3173      3176
      3173      3176      3177      3173      3176      3178      3173      3176      3179
      3177      3176      3178      3177      3176      3179      3178      3176      3179
      3176      3179      3180      3176      3179      3181      3176      3179      3182
      3180      3179      3181      3180      3179      3182      3181      3179      3182
      3179      3182      3183      3179      3182      3184      3179      3182      3185
      3183      3182      3184      3183      3182      3185      3184      3182      3185
      3182      3185      3186      3182      3185      3187      3182      3185      3188
      3186      3185      3187      3186      3185      3188      3187      3185      3188
      3190      3189      3193      3190      3189      3197      3190      3189      3201
      3193      3189      3197      3193      3189      3201      3197      3189      3201
      3189      3190      3191      3189      3190      3192      3189      3190      3205
      3191      3190      3192      3191      3190      3205      3192      3190      3205
      3189      3193      3194      3189      3193      3195      3189      3193      3196
      3194      3193      3195      3194      3193      3196      3195      3193      3196
      3189      3197      3198      3189      3197      3199      3189      3197      3200
      3198      3197      3199      3198      3197      3200      3199      3197      3200
      3189      3201      3202      3189      3201      3203      3189      3201      3204
      3202      3201      3203      3202      3201      3204      3203      3201      3204
      3190      3205      3206      3190      3205      3207      3190      3205      3211
      3206      3205      3207      3206      3205      3211      3207      3205      3211
      3209      3208      3210      3209      3208      3211      3209      3208      3212
      3210      3208      3211      3210      3208      3212      3211      3208      3212
      3205      3211      3208      3208      3212      3213      3212      3213      3214
      3212      3213      3215      3212      3213      3216      3214      3213      3215
      3214      3213      3216      3215      3213      3216      3213      3216      3217
      3213      3216      3218      3213      3216      3224      3217      3216      3218
      3217      3216      3224      3218      3216      3224      3216      3218      3219
      3218      3219      3220      3218      3219      3221      3220      3219      3221
      3219      3221      3222      3219      3221      3223      3219      3221      3233
      3222      3221      3223      3222      3221      3233      3223      3221      3233
      3216      3224      3225      3216      3224      3226      3216      3224      3227
      3225      3224      3226      3225      3224      3227      3226      3224      3227
      3224      3227      3228      3227      3228      3229      3227      3228      3230
      3229      3228      3230      3228      3230      3231      3228      3230      3232
      3228      3230      3280      3231      3230      3232      3231      3230      3280
      3232      3230      3280      3221      3233      3234      3221      3233      3235
      3221      3233      3236      3234      3233      3235      3234      3233      3236
      3235      3233      3236      3233      3236      3237      3233      3236      3238
      3233      3236      3239      3237      3236      3238      3237      3236      3239
      3238      3236      3239      3236      3239      3240      3236      3239      3241
      3236      3239      3242      3240      3239      3241      3240      3239      3242
      3241      3239      3242      3239      3242      3243      3239      3242      3244
      3239      3242      3245      3243      3242      3244      3243      3242      3245
      3244      3242      3245      3242      3245      3246      3242      3245      3247
      3242      3245      3248      3246      3245      3247      3246      3245      3248
      3247      3245      3248      3245      3248      3249      3245      3248      3250
      3245      3248      3251      3249      3248      3250      3249      3248      3251
      3250      3248      3251      3248      3251      3252      3248      3251      3253
      3252      3251      3253      3251      3253      3254      3251      3253      3255
      3254      3253      3255      3253      3255      3256      3253      3255      3257
      3253      3255      3258      3256      3255      3257      3256      3255      3258
      3257      3255      3258      3255      3258      3259      3255      3258      3260
      3255      3258      3261      3259      3258      3260      3259      3258      3261
      3260      3258      3261      3258      3261      3262      3258      3261      3263
      3258      3261      3264      3262      3261      3263      3262      3261      3264
      3263      3261      3264      3261      3264      3265      3261      3264      3266
      3261      3264      3267      3265      3264      3266      3265      3264      3267
      3266      3264      3267      3264      3267      3268      3264      3267      3269
      3264      3267      3270      3268      3267      3269      3268      3267      3270
      3269      3267      3270      3267      3270      3271      3267      3270      3272
      3267      3270      3273      3271      3270      3272      3271      3270      3273
      3272      3270      3273      3270      3273      3274      3270      3273      3275
      3270      3273      3276      3274      3273      3275      3274      3273      3276
      3275      3273      3276      3273      3276      3277      3273      3276      3278
      3273      3276      3279      3277      3276      3278      3277      3276      3279
      3278      3276      3279      3230      3280      3281      3230      3280      3282
      3230      3280      3283      3281      3280      3282      3281      3280      3283
      3282      3280      3283      3280      3283      3284      3280      3283      3285
      3280      3283      3286      3284      3283      3285      3284      3283      3286
      3285      3283      3286      3283      3286      3287      3283      3286      3288
      3283      3286      3289      3287      3286      3288      3287      3286      3289
      3288      3286      3289      3286      3289      3290      3286      3289      3291
      3286      3289      3292      3290      3289      3291      3290      3289      3292
      3291      3289      3292      3289      3292      3293      3289      3292      3294
      3289      3292      3295      3293      3292      3294      3293      3292      3295
      3294      3292      3295      3292      3295      3296      3292      3295      3297
      3292      3295      3298      3296      3295      3297      3296      3295      3298
      3297      3295      3298      3295      3298      3299      3295      3298      3300
      3295      3298      3301      3299      3298      3300      3299      3298      3301
      3300      3298      3301      3298      3301      3302      3298      3301      3303
      3298      3301      3304      3302      3301      3303      3302      3301      3304
      3303      3301      3304      3301      3304      3305      3301      3304      3306
      3301      3304      3307      3305      3304      3306      3305      3304      3307
      3306      3304      3307      3304      3307      3308      3304      3307      3309
      3304      3307      3310      3308      3307      3309      3308      3307      3310
      3309      3307      3310      3307      3310      3311      3307      3310      3312
      3307      3310      3313      3311      3310      3312      3311      3310      3313
      3312      3310      3313      3310      3313      3314      3310      3313      3315
      3310      3313      3316      3314      3313      3315      3314      3313      3316
      3315      3313      3316      3313      3316      3317      3313      3316      3318
      3313      3316      3319      3317      3316      3318      3317      3316      3319
      3318      3316      3319      3316      3319      3320      3316      3319      3321
      3316      3319      3322      3320      3319      3321      3320      3319      3322
      3321      3319      3322      3324      3323      3327      3324      3323      3331
      3324      3323      3335      3327      3323      3331      3327      3323      3335
      3331      3323      3335      3323      3324      3325      3323      3324      3326
      3323      3324      3339      3325      3324      3326      3325      3324      3339
      3326      3324      3339      3323      3327      3328      3323      3327      3329
      3323      3327      3330      3328      3327      3329      3328      3327      3330
      3329      3327      3330      3323      3331      3332      3323      3331      3333
      3323      3331      3334      3332      3331      3333      3332      3331      3334
      3333      3331      3334      3323      3335      3336      3323      3335      3337
      3323      3335      3338      3336      3335      3337      3336      3335      3338
      3337      3335      3338      3324      3339      3340      3324      3339      3341
      3324      3339      3345      3340      3339      3341      3340      3339      3345
      3341      3339      3345      3343      3342      3344      3343      3342      3345
      3343      3342      3346      3344      3342      3345      3344      3342      3346
      3345      3342      3346      3339      3345      3342      3342      3346      3347
      3346      3347      3348      3346      3347      3349      3346      3347      3350
      3348      3347      3349      3348      3347      3350      3349      3347      3350
      3347      3350      3351      3347      3350      3352      3347      3350      3358
      3351      3350      3352      3351      3350      3358      3352      3350      3358
      3350      3352      3353      3352      3353      3354      3352      3353      3355
      3354      3353      3355      3353      3355      3356      3353      3355      3357
      3353      3355      3367      3356      3355      3357      3356      3355      3367
      3357      3355      3367      3350      3358      3359      3350      3358      3360
      3350      3358      3361      3359      3358      3360      3359      3358      3361
      3360      3358      3361      3358      3361      3362      3361      3362      3363
      3361      3362      3364      3363      3362      3364      3362      3364      3365
      3362      3364      3366      3362      3364      3414      3365      3364      3366
      3365      3364      3414      3366      3364      3414      3355      3367      3368
      3355      3367      3369      3355      3367      3370      3368      3367      3369
      3368      3367      3370      3369      3367      3370      3367      3370      3371
      3367      3370      3372      3367      3370      3373      3371      3370      3372
      3371      3370      3373      3372      3370      3373      3370      3373      3374
      3370      3373      3375      3370      3373      3376      3374      3373      3375
      3374      3373      3376      3375      3373      3376      3373      3376      3377
      3373      3376      3378      3373      3376      3379      3377      3376      3378
      3377      3376      3379      3378      3376      3379      3376      3379      3380
      3376      3379      3381      3376      3379      3382      3380      3379      3381
      3380      3379      3382      3381      3379      3382      3379      3382      3383
      3379      3382      3384      3379      3382      3385      3383      3382      3384
      3383      3382      3385      3384      3382      3385      3382      3385      3386
      3382      3385      3387      3386      3385      3387      3385      3387      3388
      3385      3387      3389      3388      3387      3389      3387      3389      3390
      3387      3389      3391      3387      3389      3392      3390      3389      3391
      3390      3389      3392      3391      3389      3392      3389      3392      3393
      3389      3392      3394      3389      3392      3395      3393      3392      3394
      3393      3392      3395      3394      3392      3395      3392      3395      3396
      3392      3395      3397      3392      3395      3398      3396      3395      3397
      3396      3395      3398      3397      3395      3398      3395      3398      3399
      3395      3398      3400      3395      3398      3401      3399      3398      3400
      3399      3398      3401      3400      3398      3401      3398      3401      3402
      3398      3401      3403      3398      3401      3404      3402      3401      3403
      3402      3401      3404      3403      3401      3404      3401      3404      3405
      3401      3404      3406      3401      3404      3407      3405      3404      3406
      3405      3404      3407      3406      3404      3407      3404      3407      3408
      3404      3407      3409      3404      3407      3410      3408      3407      3409
      3408      3407      3410      3409      3407      3410      3407      3410      3411
      3407      3410      3412      3407      3410      3413      3411      3410      3412
      3411      3410      3413      3412      3410      3413      3364      3414      3415
      3364      3414      3416      3364      3414      3417      3415      3414      3416
      3415      3414      3417      3416      3414      3417      3414      3417      3418
      3414      3417      3419      3414      3417      3420      3418      3417      3419
      3418      3417      3420      3419      3417      3420      3417      3420      3421
      3417      3420      3422      3417      3420      3423      3421      3420      3422
      3421      3420      3423      3422      3420      3423      3420      3423      3424
      3420      3423      3425      3420      3423      3426      3424      3423      3425
      3424      3423      3426      3425      3423      3426      3423      3426      3427
      3423      3426      3428      3423      3426      3429      3427      3426      3428
      3427      3426      3429      3428      3426      3429      3426      3429      3430
      3426      3429      3431      3426      3429      3432      3430      3429      3431
      3430      3429      3432      3431      3429      3432      3429      3432      3433
      3429      3432      3434      3429      3432      3435      3433      3432      3434
      3433      3432      3435      3434      3432      3435      3432      3435      3436
      3432      3435      3437      3432      3435      3438      3436      3435      3437
      3436      3435      3438      3437      3435      3438      3435      3438      3439
      3435      3438      3440      3435      3438      3441      3439      3438      3440
      3439      3438      3441      3440      3438      3441      3438      3441      3442
      3438      3441      3443      3438      3441      3444      3442      3441      3443
      3442      3441      3444      3443      3441      3444      3441      3444      3445
      3441      3444      3446      3441      3444      3447      3445      3444      3446
      3445      3444      3447      3446      3444      3447      3444      3447      3448
      3444      3447      3449      3444      3447      3450      3448      3447      3449
      3448      3447      3450      3449      3447      3450      3447      3450      3451
      3447      3450      3452      3447      3450      3453      3451      3450      3452
      3451      3450      3453      3452      3450      3453      3450      3453      3454
      3450      3453      3455      3450      3453      3456      3454      3453      3455
      3454      3453      3456      3455      3453      3456      3458      3457      3459
      3458      3457      3460      3458      3457      3461      3459      3457      3460
      3459      3457      3461      3460      3457      3461      3457      3461      3462
      3457      3461      3463      3457      3461      3466      3462      3461      3463
      3462      3461      3466      3463      3461      3466      3461      3463      3464
      3461      3463      3465      3464      3463      3465      3461      3466      3467
      3461      3466      3468      3461      3466      3472      3467      3466      3468
      3467      3466      3472      3468      3466      3472      3470      3469      3471
      3470      3469      3472      3470      3469      3473      3471      3469      3472
      3471      3469      3473      3472      3469      3473      3466      3472      3469
      3469      3473      3474      3473      3474      3475      3473      3474      3476
      3473      3474      3477      3475      3474      3476      3475      3474      3477
      3476      3474      3477      3474      3477      3478      3474      3477      3479
      3474      3477      3485      3478      3477      3479      3478      3477      3485
      3479      3477      3485      3477      3479      3480      3479      3480      3481
      3479      3480      3482      3481      3480      3482      3480      3482      3483
      3480      3482      3484      3480      3482      3494      3483      3482      3484
      3483      3482      3494      3484      3482      3494      3477      3485      3486
      3477      3485      3487      3477      3485      3488      3486      3485      3487
      3486      3485      3488      3487      3485      3488      3485      3488      3489
      3488      3489      3490      3488      3489      3491      3490      3489      3491
      3489      3491      3492      3489      3491      3493      3489      3491      3541
      3492      3491      3493      3492      3491      3541      3493      3491      3541
      3482      3494      3495      3482      3494      3496      3482      3494      3497
      3495      3494      3496      3495      3494      3497      3496      3494      3497
      3494      3497      3498      3494      3497      3499      3494      3497      3500
      3498      3497      3499      3498      3497      3500      3499      3497      3500
      3497      3500      3501      3497      3500      3502      3497      3500      3503
      3501      3500      3502      3501      3500      3503      3502      3500      3503
      3500      3503      3504      3500      3503      3505      3500      3503      3506
      3504      3503      3505      3504      3503      3506      3505      3503      3506
      3503      3506      3507      3503      3506      3508      3503      3506      3509
      3507      3506      3508      3507      3506      3509      3508      3506      3509
      3506      3509      3510      3506      3509      3511      3506      3509      3512
      3510      3509      3511      3510      3509      3512      3511      3509      3512
      3509      3512      3513      3509      3512      3514      3513      3512      3514
      3512      3514      3515      3512      3514      3516      3515      3514      3516
      3514      3516      3517      3514      3516      3518      3514      3516      3519
      3517      3516      3518      3517      3516      3519      3518      3516      3519
      3516      3519      3520      3516      3519      3521      3516      3519      3522
      3520      3519      3521      3520      3519      3522      3521      3519      3522
      3519      3522      3523      3519      3522      3524      3519      3522      3525
      3523      3522      3524      3523      3522      3525      3524      3522      3525
      3522      3525      3526      3522      3525      3527      3522      3525      3528
      3526      3525      3527      3526      3525      3528      3527      3525      3528
      3525      3528      3529      3525      3528      3530      3525      3528      3531
      3529      3528      3530      3529      3528      3531      3530      3528      3531
      3528      3531      3532      3528      3531      3533      3528      3531      3534
      3532      3531      3533      3532      3531      3534      3533      3531      3534
      3531      3534      3535      3531      3534      3536      3531      3534      3537
      3535      3534      3536      3535      3534      3537      3536      3534      3537
      3534      3537      3538      3534      3537      3539      3534      3537      3540
      3538      3537      3539      3538      3537      3540      3539      3537      3540
      3491      3541      3542      3491      3541      3543      3491      3541      3544
      3542      3541      3543      3542      3541      3544      3543      3541      3544
      3541      3544      3545      3541      3544      3546      3541      3544      3547
      3545      3544      3546      3545      3544      3547      3546      3544      3547
      3544      3547      3548      3544      3547      3549      3544      3547      3550
      3548      3547      3549      3548      3547      3550      3549      3547      3550
      3547      3550      3551      3547      3550      3552      3547      3550      3553
      3551      3550      3552      3551      3550      3553      3552      3550      3553
      3550      3553      3554      3550      3553      3555      3550      3553      3556
      3554      3553      3555      3554      3553      3556      3555      3553      3556
      3553      3556      3557      3553      3556      3558      3553      3556      3559
      3557      3556      3558      3557      3556      3559      3558      3556      3559
      3556      3559      3560      3556      3559      3561      3556      3559      3562
      3560      3559      3561      3560      3559      3562      3561      3559      3562
      3559      3562      3563      3559      3562      3564      3559      3562      3565
      3563      3562      3564      3563      3562      3565      3564      3562      3565
      3562      3565      3566      3562      3565      3567      3562      3565      3568
      3566      3565      3567      3566      3565      3568      3567      3565      3568
      3565      3568      3569      3565      3568      3570      3565      3568      3571
      3569      3568      3570      3569      3568      3571      3570      3568      3571
      3568      3571      3572      3568      3571      3573      3568      3571      3574
      3572      3571      3573      3572      3571      3574      3573      3571      3574
      3571      3574      3575      3571      3574      3576      3571      3574      3577
      3575      3574      3576      3575      3574      3577      3576      3574      3577
      3574      3577      3578      3574      3577      3579      3574      3577      3580
      3578      3577      3579      3578      3577      3580      3579      3577      3580
      3577      3580      3581      3577      3580      3582      3577      3580      3583
      3581      3580      3582      3581      3580      3583      3582      3580      3583
      3585      3584      3588      3585      3584      3592      3585      3584      3596
      3588      3584      3592      3588      3584      3596      3592      3584      3596
      3584      3585      3586      3584      3585      3587      3584      3585      3600
      3586      3585      3587      3586      3585      3600      3587      3585      3600
      3584      3588      3589      3584      3588      3590      3584      3588      3591
      3589      3588      3590      3589      3588      3591      3590      3588      3591
      3584      3592      3593      3584      3592      3594      3584      3592      3595
      3593      3592      3594      3593      3592      3595      3594      3592      3595
      3584      3596      3597      3584      3596      3598      3584      3596      3599
      3597      3596      3598      3597      3596      3599      3598      3596      3599
      3585      3600      3601      3585      3600      3602      3585      3600      3606
      3601      3600      3602      3601      3600      3606      3602      3600      3606
      3604      3603      3605      3604      3603      3606      3604      3603      3607
      3605      3603      3606      3605      3603      3607      3606      3603      3607
      3600      3606      3603      3603      3607      3608      3607      3608      3609
      3607      3608      3610      3607      3608      3611      3609      3608      3610
      3609      3608      3611      3610      3608      3611      3608      3611      3612
      3608      3611      3613      3608      3611      3619      3612      3611      3613
      3612      3611      3619      3613      3611      3619      3611      3613      3614
      3613      3614      3615      3613      3614      3616      3615      3614      3616
      3614      3616      3617      3614      3616      3618      3614      3616      3628
      3617      3616      3618      3617      3616      3628      3618      3616      3628
      3611      3619      3620      3611      3619      3621      3611      3619      3622
      3620      3619      3621      3620      3619      3622      3621      3619      3622
      3619      3622      3623      3622      3623      3624      3622      3623      3625
      3624      3623      3625      3623      3625      3626      3623      3625      3627
      3623      3625      3675      3626      3625      3627      3626      3625      3675
      3627      3625      3675      3616      3628      3629      3616      3628      3630
      3616      3628      3631      3629      3628      3630      3629      3628      3631
      3630      3628      3631      3628      3631      3632      3628      3631      3633
      3628      3631      3634      3632      3631      3633      3632      3631      3634
      3633      3631      3634      3631      3634      3635      3631      3634      3636
      3631      3634      3637      3635      3634      3636      3635      3634      3637
      3636      3634      3637      3634      3637      3638      3634      3637      3639
      3634      3637      3640      3638      3637      3639      3638      3637      3640
      3639      3637      3640      3637      3640      3641      3637      3640      3642
      3637      3640      3643      3641      3640      3642      3641      3640      3643
      3642      3640      3643      3640      3643      3644      3640      3643      3645
      3640      3643      3646      3644      3643      3645      3644      3643      3646
      3645      3643      3646      3643      3646      3647      3643      3646      3648
      3647      3646      3648      3646      3648      3649      3646      3648      3650
      3649      3648      3650      3648      3650      3651      3648      3650      3652
      3648      3650      3653      3651      3650      3652      3651      3650      3653
      3652      3650      3653      3650      3653      3654      3650      3653      3655
      3650      3653      3656      3654      3653      3655      3654      3653      3656
      3655      3653      3656      3653      3656      3657      3653      3656      3658
      3653      3656      3659      3657      3656      3658      3657      3656      3659
      3658      3656      3659      3656      3659      3660      3656      3659      3661
      3656      3659      3662      3660      3659      3661      3660      3659      3662
      3661      3659      3662      3659      3662      3663      3659      3662      3664
      3659      3662      3665      3663      3662      3664      3663      3662      3665
      3664      3662      3665      3662      3665      3666      3662      3665      3667
      3662      3665      3668      3666      3665      3667      3666      3665      3668
      3667      3665      3668      3665      3668      3669      3665      3668      3670
      3665      3668      3671      3669      3668      3670      3669      3668      3671
      3670      3668      3671      3668      3671      3672      3668      3671      3673
      3668      3671      3674      3672      3671      3673      3672      3671      3674
      3673      3671      3674      3625      3675      3676      3625      3675      3677
      3625      3675      3678      3676      3675      3677      3676      3675      3678
      3677      3675      3678      3675      3678      3679      3675      3678      3680
      3675      3678      3681      3679      3678      3680      3679      3678      3681
      3680      3678      3681      3678      3681      3682      3678      3681      3683
      3678      3681      3684      3682      3681      3683      3682      3681      3684
      3683      3681      3684      3681      3684      3685      3681      3684      3686
      3681      3684      3687      3685      3684      3686      3685      3684      3687
      3686      3684      3687      3684      3687      3688      3684      3687      3689
      3684      3687      3690      3688      3687      3689      3688      3687      3690
      3689      3687      3690      3687      3690      3691      3687      3690      3692
      3687      3690      3693      3691      3690      3692      3691      3690      3693
      3692      3690      3693      3690      3693      3694      3690      3693      3695
      3690      3693      3696      3694      3693      3695      3694      3693      3696
      3695      3693      3696      3693      3696      3697      3693      3696      3698
      3693      3696      3699      3697      3696      3698      3697      3696      3699
      3698      3696      3699      3696      3699      3700      3696      3699      3701
      3696      3699      3702      3700      3699      3701      3700      3699      3702
      3701      3699      3702      3699      3702      3703      3699      3702      3704
      3699      3702      3705      3703      3702      3704      3703      3702      3705
      3704      3702      3705      3702      3705      3706      3702      3705      3707
      3702      3705      3708      3706      3705      3707      3706      3705      3708
      3707      3705      3708      3705      3708      3709      3705      3708      3710
      3705      3708      3711      3709      3708      3710      3709      3708      3711
      3710      3708      3711      3708      3711      3712      3708      3711      3713
      3708      3711      3714      3712      3711      3713      3712      3711      3714
      3713      3711      3714      3711      3714      3715      3711      3714      3716
      3711      3714      3717      3715      3714      3716      3715      3714      3717
      3716      3714      3717      3719      3718      3722      3719      3718      3726
      3719      3718      3730      3722      3718      3726      3722      3718      3730
      3726      3718      3730      3718      3719      3720      3718      3719      3721
      3718      3719      3734      3720      3719      3721      3720      3719      3734
      3721      3719      3734      3718      3722      3723      3718      3722      3724
      3718      3722      3725      3723      3722      3724      3723      3722      3725
      3724      3722      3725      3718      3726      3727      3718      3726      3728
      3718      3726      3729      3727      3726      3728      3727      3726      3729
      3728      3726      3729      3718      3730      3731      3718      3730      3732
      3718      3730      3733      3731      3730      3732      3731      3730      3733
      3732      3730      3733      3719      3734      3735      3719      3734      3736
      3719      3734      3740      3735      3734      3736      3735      3734      3740
      3736      3734      3740      3738      3737      3739      3738      3737      3740
      3738      3737      3741      3739      3737      3740      3739      3737      3741
      3740      3737      3741      3734      3740      3737      3737      3741      3742
      3741      3742      3743      3741      3742      3744      3741      3742      3745
      3743      3742      3744      3743      3742      3745      3744      3742      3745
      3742      3745      3746      3742      3745      3747      3742      3745      3753
      3746      3745      3747      3746      3745      3753      3747      3745      3753
      3745      3747      3748      3747      3748      3749      3747      3748      3750
      3749      3748      3750      3748      3750      3751      3748      3750      3752
      3748      3750      3762      3751      3750      3752      3751      3750      3762
      3752      3750      3762      3745      3753      3754      3745      3753      3755
      3745      3753      3756      3754      3753      3755      3754      3753      3756
      3755      3753      3756      3753      3756      3757      3756      3757      3758
      3756      3757      3759      3758      3757      3759      3757      3759      3760
      3757      3759      3761      3757      3759      3809      3760      3759      3761
      3760      3759      3809      3761      3759      3809      3750      3762      3763
      3750      3762      3764      3750      3762      3765      3763      3762      3764
      3763      3762      3765      3764      3762      3765      3762      3765      3766
      3762      3765      3767      3762      3765      3768      3766      3765      3767
      3766      3765      3768      3767      3765      3768      3765      3768      3769
      3765      3768      3770      3765      3768      3771      3769      3768      3770
      3769      3768      3771      3770      3768      3771      3768      3771      3772
      3768      3771      3773      3768      3771      3774      3772      3771      3773
      3772      3771      3774      3773      3771      3774      3771      3774      3775
      3771      3774      3776      3771      3774      3777      3775      3774      3776
      3775      3774      3777      3776      3774      3777      3774      3777      3778
      3774      3777      3779      3774      3777      3780      3778      3777      3779
      3778      3777      3780      3779      3777      3780      3777      3780      3781
      3777      3780      3782      3781      3780      3782      3780      3782      3783
      3780      3782      3784      3783      3782      3784      3782      3784      3785
      3782      3784      3786      3782      3784      3787      3785      3784      3786
      3785      3784      3787      3786      3784      3787      3784      3787      3788
      3784      3787      3789      3784      3787      3790      3788      3787      3789
      3788      3787      3790      3789      3787      3790      3787      3790      3791
      3787      3790      3792      3787      3790      3793      3791      3790      3792
      3791      3790      3793      3792      3790      3793      3790      3793      3794
      3790      3793      3795      3790      3793      3796      3794      3793      3795
      3794      3793      3796      3795      3793      3796      3793      3796      3797
      3793      3796      3798      3793      3796      3799      3797      3796      3798
      3797      3796      3799      3798      3796      3799      3796      3799      3800
      3796      3799      3801      3796      3799      3802      3800      3799      3801
      3800      3799      3802      3801      3799      3802      3799      3802      3803
      3799      3802      3804      3799      3802      3805      3803      3802      3804
      3803      3802      3805      3804      3802      3805      3802      3805      3806
      3802      3805      3807      3802      3805      3808      3806      3805      3807
      3806      3805      3808      3807      3805      3808      3759      3809      3810
      3759      3809      3811      3759      3809      3812      3810      3809      3811
      3810      3809      3812      3811      3809      3812      3809      3812      3813
      3809      3812      3814      3809      3812      3815      3813      3812      3814
      3813      3812      3815      3814      3812      3815      3812      3815      3816
      3812      3815      3817      3812      3815      3818      3816      3815      3817
      3816      3815      3818      3817      3815      3818      3815      3818      3819
      3815      3818      3820      3815      3818      3821      3819      3818      3820
      3819      3818      3821      3820      3818      3821      3818      3821      3822
      3818      3821      3823      3818      3821      3824      3822      3821      3823
      3822      3821      3824      3823      3821      3824      3821      3824      3825
      3821      3824      3826      3821      3824      3827      3825      3824      3826
      3825      3824      3827      3826      3824      3827      3824      3827      3828
      3824      3827      3829      3824      3827      3830      3828      3827      3829
      3828      3827      3830      3829      3827      3830      3827      3830      3831
      3827      3830      3832      3827      3830      3833      3831      3830      3832
      3831      3830      3833      3832      3830      3833      3830      3833      3834
      3830      3833      3835      3830      3833      3836      3834      3833      3835
      3834      3833      3836      3835      3833      3836      3833      3836      3837
      3833      3836      3838      3833      3836      3839      3837      3836      3838
      3837      3836      3839      3838      3836      3839      3836      3839      3840
      3836      3839      3841      3836      3839      3842      3840      3839      3841
      3840      3839      3842      3841      3839      3842      3839      3842      3843
      3839      3842      3844      3839      3842      3845      3843      3842      3844
      3843      3842      3845      3844      3842      3845      3842      3845      3846
      3842      3845      3847      3842      3845      3848      3846      3845      3847
      3846      3845      3848      3847      3845      3848      3845      3848      3849
      3845      3848      3850      3845      3848      3851      3849      3848      3850
      3849      3848      3851      3850      3848      3851      3853      3852      3856
      3853      3852      3860      3853      3852      3864      3856      3852      3860
      3856      3852      3864      3860      3852      3864      3852      3853      3854
      3852      3853      3855      3852      3853      3868      3854      3853      3855
      3854      3853      3868      3855      3853      3868      3852      3856      3857
      3852      3856      3858      3852      3856      3859      3857      3856      3858
      3857      3856      3859      3858      3856      3859      3852      3860      3861
      3852      3860      3862      3852      3860      3863      3861      3860      3862
      3861      3860      3863      3862      3860      3863      3852      3864      3865
      3852      3864      3866      3852      3864      3867      3865      3864      3866
      3865      3864      3867      3866      3864      3867      3853      3868      3869
      3853      3868      3870      3853      3868      3874      3869      3868      3870
      3869      3868      3874      3870      3868      3874      3872      3871      3873
      3872      3871      3874      3872      3871      3875      3873      3871      3874
      3873      3871      3875      3874      3871      3875      3868      3874      3871
      3871      3875      3876      3875      3876      3877      3875      3876      3878
      3875      3876      3879      3877      3876      3878      3877      3876      3879
      3878      3876      3879      3876      3879      3880      3876      3879      3881
      3876      3879      3887      3880      3879      3881      3880      3879      3887
      3881      3879      3887      3879      3881      3882      3881      3882      3883
      3881      3882      3884      3883      3882      3884      3882      3884      3885
      3882      3884      3886      3882      3884      3896      3885      3884      3886
      3885      3884      3896      3886      3884      3896      3879      3887      3888
      3879      3887      3889      3879      3887      3890      3888      3887      3889
      3888      3887      3890      3889      3887      3890      3887      3890      3891
      3890      3891      3892      3890      3891      3893      3892      3891      3893
      3891      3893      3894      3891      3893      3895      3891      3893      3943
      3894      3893      3895      3894      3893      3943      3895      3893      3943
      3884      3896      3897      3884      3896      3898      3884      3896      3899
      3897      3896      3898      3897      3896      3899      3898      3896      3899
      3896      3899      3900      3896      3899      3901      3896      3899      3902
      3900      3899      3901      3900      3899      3902      3901      3899      3902
      3899      3902      3903      3899      3902      3904      3899      3902      3905
      3903      3902      3904      3903      3902      3905      3904      3902      3905
      3902      3905      3906      3902      3905      3907      3902      3905      3908
      3906      3905      3907      3906      3905      3908      3907      3905      3908
      3905      3908      3909      3905      3908      3910      3905      3908      3911
      3909      3908      3910      3909      3908      3911      3910      3908      3911
      3908      3911      3912      3908      3911      3913      3908      3911      3914
      3912      3911      3913      3912      3911      3914      3913      3911      3914
      3911      3914      3915      3911      3914      3916      3915      3914      3916
      3914      3916      3917      3914      3916      3918      3917      3916      3918
      3916      3918      3919      3916      3918      3920      3916      3918      3921
      3919      3918      3920      3919      3918      3921      3920      3918      3921
      3918      3921      3922      3918      3921      3923      3918      3921      3924
      3922      3921      3923      3922      3921      3924      3923      3921      3924
      3921      3924      3925      3921      3924      3926      3921      3924      3927
      3925      3924      3926      3925      3924      3927      3926      3924      3927
      3924      3927      3928      3924      3927      3929      3924      3927      3930
      3928      3927      3929      3928      3927      3930      3929      3927      3930
      3927      3930      3931      3927      3930      3932      3927      3930      3933
      3931      3930      3932      3931      3930      3933      3932      3930      3933
      3930      3933      3934      3930      3933      3935      3930      3933      3936
      3934      3933      3935      3934      3933      3936      3935      3933      3936
      3933      3936      3937      3933      3936      3938      3933      3936      3939
      3937      3936      3938      3937      3936      3939      3938      3936      3939
      3936      3939      3940      3936      3939      3941      3936      3939      3942
      3940      3939      3941      3940      3939      3942      3941      3939      3942
      3893      3943      3944      3893      3943      3945      3893      3943      3946
      3944      3943      3945      3944      3943      3946      3945      3943      3946
      3943      3946      3947      3943      3946      3948      3943      3946      3949
      3947      3946      3948      3947      3946      3949      3948      3946      3949
      3946      3949      3950      3946      3949      3951      3946      3949      3952
      3950      3949      3951      3950      3949      3952      3951      3949      3952
      3949      3952      3953      3949      3952      3954      3949      3952      3955
      3953      3952      3954      3953      3952      3955      3954      3952      3955
      3952      3955      3956      3952      3955      3957      3952      3955      3958
      3956      3955      3957      3956      3955      3958      3957      3955      3958
      3955      3958      3959      3955      3958      3960      3955      3958      3961
      3959      3958      3960      3959      3958      3961      3960      3958      3961
      3958      3961      3962      3958      3961      3963      3958      3961      3964
      3962      3961      3963      3962      3961      3964      3963      3961      3964
      3961      3964      3965      3961      3964      3966      3961      3964      3967
      3965      3964      3966      3965      3964      3967      3966      3964      3967
      3964      3967      3968      3964      3967      3969      3964      3967      3970
      3968      3967      3969      3968      3967      3970      3969      3967      3970
      3967      3970      3971      3967      3970      3972      3967      3970      3973
      3971      3970      3972      3971      3970      3973      3972      3970      3973
      3970      3973      3974      3970      3973      3975      3970      3973      3976
      3974      3973      3975      3974      3973      3976      3975      3973      3976
      3973      3976      3977      3973      3976      3978      3973      3976      3979
      3977      3976      3978      3977      3976      3979      3978      3976      3979
      3976      3979      3980      3976      3979      3981      3976      3979      3982
      3980      3979      3981      3980      3979      3982      3981      3979      3982
      3979      3982      3983      3979      3982      3984      3979      3982      3985
      3983      3982      3984      3983      3982      3985      3984      3982      3985
      3987      3986      3988      3987      3986      3989      3987      3986      3990
      3988      3986      3989      3988      3986      3990      3989      3986      3990
      3986      3990      3991      3986      3990      3992      3986      3990      3995
      3991      3990      3992      3991      3990      3995      3992      3990      3995
      3990      3992      3993      3990      3992      3994      3993      3992      3994
      3990      3995      3996      3990      3995      3997      3990      3995      4001
      3996      3995      3997      3996      3995      4001      3997      3995      4001
      3999      3998      4000      3999      3998      4001      3999      3998      4002
      4000      3998      4001      4000      3998      4002      4001      3998      4002
      3995      4001      3998      3998      4002      4003      4002      4003      4004
      4002      4003      4005      4002      4003      4006      4004      4003      4005
      4004      4003      4006      4005      4003      4006      4003      4006      4007
      4003      4006      4008      4003      4006      4014      4007      4006      4008
      4007      4006      4014      4008      4006      4014      4006      4008      4009
      4008      4009      4010      4008      4009      4011      4010      4009      4011
      4009      4011      4012      4009      4011      4013      4009      4011      4023
      4012      4011      4013      4012      4011      4023      4013      4011      4023
      4006      4014      4015      4006      4014      4016      4006      4014      4017
      4015      4014      4016      4015      4014      4017      4016      4014      4017
      4014      4017      4018      4017      4018      4019      4017      4018      4020
      4019      4018      4020      4018      4020      4021      4018      4020      4022
      4018      4020      4070      4021      4020      4022      4021      4020      4070
      4022      4020      4070      4011      4023      4024      4011      4023      4025
      4011      4023      4026      4024      4023      4025      4024      4023      4026
      4025      4023      4026      4023      4026      4027      4023      4026      4028
      4023      4026      4029      4027      4026      4028      4027      4026      4029
      4028      4026      4029      4026      4029      4030      4026      4029      4031
      4026      4029      4032      4030      4029      4031      4030      4029      4032
      4031      4029      4032      4029      4032      4033      4029      4032      4034
      4029      4032      4035      4033      4032      4034      4033      4032      4035
      4034      4032      4035      4032      4035      4036      4032      4035      4037
      4032      4035      4038      4036      4035      4037      4036      4035      4038
      4037      4035      4038      4035      4038      4039      4035      4038      4040
      4035      4038      4041      4039      4038      4040      4039      4038      4041
      4040      4038      4041      4038      4041      4042      4038      4041      4043
      4042      4041      4043      4041      4043      4044      4041      4043      4045
      4044      4043      4045      4043      4045      4046      4043      4045      4047
      4043      4045      4048      4046      4045      4047      4046      4045      4048
      4047      4045      4048      4045      4048      4049      4045      4048      4050
      4045      4048      4051      4049      4048      4050      4049      4048      4051
      4050      4048      4051      4048      4051      4052      4048      4051      4053
      4048      4051      4054      4052      4051      4053      4052      4051      4054
      4053      4051      4054      4051      4054      4055      4051      4054      4056
      4051      4054      4057      4055      4054      4056      4055      4054      4057
      4056      4054      4057      4054      4057      4058      4054      4057      4059
      4054      4057      4060      4058      4057      4059      4058      4057      4060
      4059      4057      4060      4057      4060      4061      4057      4060      4062
      4057      4060      4063      4061      4060      4062      4061      4060      4063
      4062      4060      4063      4060      4063      4064      4060      4063      4065
      4060      4063      4066      4064      4063      4065      4064      4063      4066
      4065      4063      4066      4063      4066      4067      4063      4066      4068
      4063      4066      4069      4067      4066      4068      4067      4066      4069
      4068      4066      4069      4020      4070      4071      4020      4070      4072
      4020      4070      4073      4071      4070      4072      4071      4070      4073
      4072      4070      4073      4070      4073      4074      4070      4073      4075
      4070      4073      4076      4074      4073      4075      4074      4073      4076
      4075      4073      4076      4073      4076      4077      4073      4076      4078
      4073      4076      4079      4077      4076      4078      4077      4076      4079
      4078      4076      4079      4076      4079      4080      4076      4079      4081
      4076      4079      4082      4080      4079      4081      4080      4079      4082
      4081      4079      4082      4079      4082      4083      4079      4082      4084
      4079      4082      4085      4083      4082      4084      4083      4082      4085
      4084      4082      4085      4082      4085      4086      4082      4085      4087
      4082      4085      4088      4086      4085      4087      4086      4085      4088
      4087      4085      4088      4085      4088      4089      4085      4088      4090
      4085      4088      4091      4089      4088      4090      4089      4088      4091
      4090      4088      4091      4088      4091      4092      4088      4091      4093
      4088      4091      4094      4092      4091      4093      4092      4091      4094
      4093      4091      4094      4091      4094      4095      4091      4094      4096
      4091      4094      4097      4095      4094      4096      4095      4094      4097
      4096      4094      4097      4094      4097      4098      4094      4097      4099
      4094      4097      4100      4098      4097      4099      4098      4097      4100
      4099      4097      4100      4097      4100      4101      4097      4100      4102
      4097      4100      4103      4101      4100      4102      4101      4100      4103
      4102      4100      4103      4100      4103      4104      4100      4103      4105
      4100      4103      4106      4104      4103      4105      4104      4103      4106
      4105      4103      4106      4103      4106      4107      4103      4106      4108
      4103      4106      4109      4107      4106      4108      4107      4106      4109
      4108      4106      4109      4106      4109      4110      4106      4109      4111
      4106      4109      4112      4110      4109      4111      4110      4109      4112
      4111      4109      4112      4114      4113      4117      4114      4113      4121
      4114      4113      4125      4117      4113      4121      4117      4113      4125
      4121      4113      4125      4113      4114      4115      4113      4114      4116
      4113      4114      4129      4115      4114      4116      4115      4114      4129
      4116      4114      4129      4113      4117      4118      4113      4117      4119
      4113      4117      4120      4118      4117      4119      4118      4117      4120
      4119      4117      4120      4113      4121      4122      4113      4121      4123
      4113      4121      4124      4122      4121      4123      4122      4121      4124
      4123      4121      4124      4113      4125      4126      4113      4125      4127
      4113      4125      4128      4126      4125      4127      4126      4125      4128
      4127      4125      4128      4114      4129      4130      4114      4129      4131
      4114      4129      4135      4130      4129      4131      4130      4129      4135
      4131      4129      4135      4133      4132      4134      4133      4132      4135
      4133      4132      4136      4134      4132      4135      4134      4132      4136
      4135      4132      4136      4129      4135      4132      4132      4136      4137
      4136      4137      4138      4136      4137      4139      4136      4137      4140
      4138      4137      4139      4138      4137      4140      4139      4137      4140
      4137      4140      4141      4137      4140      4142      4137      4140      4148
      4141      4140      4142      4141      4140      4148      4142      4140      4148
      4140      4142      4143      4142      4143      4144      4142      4143      4145
      4144      4143      4145      4143      4145      4146      4143      4145      4147
      4143      4145      4157      4146      4145      4147      4146      4145      4157
      4147      4145      4157      4140      4148      4149      4140      4148      4150
      4140      4148      4151      4149      4148      4150      4149      4148      4151
      4150      4148      4151      4148      4151      4152      4151      4152      4153
      4151      4152      4154      4153      4152      4154      4152      4154      4155
      4152      4154      4156      4152      4154      4204      4155      4154      4156
      4155      4154      4204      4156      4154      4204      4145      4157      4158
      4145      4157      4159      4145      4157      4160      4158      4157      4159
      4158      4157      4160      4159      4157      4160      4157      4160      4161
      4157      4160      4162      4157      4160      4163      4161      4160      4162
      4161      4160      4163      4162      4160      4163      4160      4163      4164
      4160      4163      4165      4160      4163      4166      4164      4163      4165
      4164      4163      4166      4165      4163      4166      4163      4166      4167
      4163      4166      4168      4163      4166      4169      4167      4166      4168
      4167      4166      4169      4168      4166      4169      4166      4169      4170
      4166      4169      4171      4166      4169      4172      4170      4169      4171
      4170      4169      4172      4171      4169      4172      4169      4172      4173
      4169      4172      4174      4169      4172      4175      4173      4172      4174
      4173      4172      4175      4174      4172      4175      4172      4175      4176
      4172      4175      4177      4176      4175      4177      4175      4177      4178
      4175      4177      4179      4178      4177      4179      4177      4179      4180
      4177      4179      4181      4177      4179      4182      4180      4179      4181
      4180      4179      4182      4181      4179      4182      4179      4182      4183
      4179      4182      4184      4179      4182      4185      4183      4182      4184
      4183      4182      4185      4184      4182      4185      4182      4185      4186
      4182      4185      4187      4182      4185      4188      4186      4185      4187
      4186      4185      4188      4187      4185      4188      4185      4188      4189
      4185      4188      4190      4185      4188      4191      4189      4188      4190
      4189      4188      4191      4190      4188      4191      4188      4191      4192
      4188      4191      4193      4188      4191      4194      4192      4191      4193
      4192      4191      4194      4193      4191      4194      4191      4194      4195
      4191      4194      4196      4191      4194      4197      4195      4194      4196
      4195      4194      4197      4196      4194      4197      4194      4197      4198
      4194      4197      4199      4194      4197      4200      4198      4197      4199
      4198      4197      4200      4199      4197      4200      4197      4200      4201
      4197      4200      4202      4197      4200      4203      4201      4200      4202
      4201      4200      4203      4202      4200      4203      4154      4204      4205
      4154      4204      4206      4154      4204      4207      4205      4204      4206
      4205      4204      4207      4206      4204      4207      4204      4207      4208
      4204      4207      4209      4204      4207      4210      4208      4207      4209
      4208      4207      4210      4209      4207      4210      4207      4210      4211
      4207      4210      4212      4207      4210      4213      4211      4210      4212
      4211      4210      4213      4212      4210      4213      4210      4213      4214
      4210      4213      4215      4210      4213      4216      4214      4213      4215
      4214      4213      4216      4215      4213      4216      4213      4216      4217
      4213      4216      4218      4213      4216      4219      4217      4216      4218
      4217      4216      4219      4218      4216      4219      4216      4219      4220
      4216      4219      4221      4216      4219      4222      4220      4219      4221
      4220      4219      4222      4221      4219      4222      4219      4222      4223
      4219      4222      4224      4219      4222      4225      4223      4222      4224
      4223      4222      4225      4224      4222      4225      4222      4225      4226
      4222      4225      4227      4222      4225      4228      4226      4225      4227
      4226      4225      4228      4227      4225      4228      4225      4228      4229
      4225      4228      4230      4225      4228      4231      4229      4228      4230
      4229      4228      4231      4230      4228      4231      4228      4231      4232
      4228      4231      4233      4228      4231      4234      4232      4231      4233
      4232      4231      4234      4233      4231      4234      4231      4234      4235
      4231      4234      4236      4231      4234      4237      4235      4234      4236
      4235      4234      4237      4236      4234      4237      4234      4237      4238
      4234      4237      4239      4234      4237      4240      4238      4237      4239
      4238      4237      4240      4239      4237      4240      4237      4240      4241
      4237      4240      4242      4237      4240      4243      4241      4240      4242
      4241      4240      4243      4242      4240      4243      4240      4243      4244
      4240      4243      4245      4240      4243      4246      4244      4243      4245
      4244      4243      4246      4245      4243      4246      4248      4247      4251
      4248      4247      4255      4248      4247      4259      4251      4247      4255
      4251      4247      4259      4255      4247      4259      4247      4248      4249
      4247      4248      4250      4247      4248      4263      4249      4248      4250
      4249      4248      4263      4250      4248      4263      4247      4251      4252
      4247      4251      4253      4247      4251      4254      4252      4251      4253
      4252      4251      4254      4253      4251      4254      4247      4255      4256
      4247      4255      4257      4247      4255      4258      4256      4255      4257
      4256      4255      4258      4257      4255      4258      4247      4259      4260
      4247      4259      4261      4247      4259      4262      4260      4259      4261
      4260      4259      4262      4261      4259      4262      4248      4263      4264
      4248      4263      4265      4248      4263      4269      4264      4263      4265
      4264      4263      4269      4265      4263      4269      4267      4266      4268
      4267      4266      4269      4267      4266      4270      4268      4266      4269
      4268      4266      4270      4269      4266      4270      4263      4269      4266
      4266      4270      4271      4270      4271      4272      4270      4271      4273
      4270      4271      4274      4272      4271      4273      4272      4271      4274
      4273      4271      4274      4271      4274      4275      4271      4274      4276
      4271      4274      4282      4275      4274      4276      4275      4274      4282
      4276      4274      4282      4274      4276      4277      4276      4277      4278
      4276      4277      4279      4278      4277      4279      4277      4279      4280
      4277      4279      4281      4277      4279      4291      4280      4279      4281
      4280      4279      4291      4281      4279      4291      4274      4282      4283
      4274      4282      4284      4274      4282      4285      4283      4282      4284
      4283      4282      4285      4284      4282      4285      4282      4285      4286
      4285      4286      4287      4285      4286      4288      4287      4286      4288
      4286      4288      4289      4286      4288      4290      4286      4288      4338
      4289      4288      4290      4289      4288      4338      4290      4288      4338
      4279      4291      4292      4279      4291      4293      4279      4291      4294
      4292      4291      4293      4292      4291      4294      4293      4291      4294
      4291      4294      4295      4291      4294      4296      4291      4294      4297
      4295      4294      4296      4295      4294      4297      4296      4294      4297
      4294      4297      4298      4294      4297      4299      4294      4297      4300
      4298      4297      4299      4298      4297      4300      4299      4297      4300
      4297      4300      4301      4297      4300      4302      4297      4300      4303
      4301      4300      4302      4301      4300      4303      4302      4300      4303
      4300      4303      4304      4300      4303      4305      4300      4303      4306
      4304      4303      4305      4304      4303      4306      4305      4303      4306
      4303      4306      4307      4303      4306      4308      4303      4306      4309
      4307      4306      4308      4307      4306      4309      4308      4306      4309
      4306      4309      4310      4306      4309      4311      4310      4309      4311
      4309      4311      4312      4309      4311      4313      4312      4311      4313
      4311      4313      4314      4311      4313      4315      4311      4313      4316
      4314      4313      4315      4314      4313      4316      4315      4313      4316
      4313      4316      4317      4313      4316      4318      4313      4316      4319
      4317      4316      4318      4317      4316      4319      4318      4316      4319
      4316      4319      4320      4316      4319      4321      4316      4319      4322
      4320      4319      4321      4320      4319      4322      4321      4319      4322
      4319      4322      4323      4319      4322      4324      4319      4322      4325
      4323      4322      4324      4323      4322      4325      4324      4322      4325
      4322      4325      4326      4322      4325      4327      4322      4325      4328
      4326      4325      4327      4326      4325      4328      4327      4325      4328
      4325      4328      4329      4325      4328      4330      4325      4328      4331
      4329      4328      4330      4329      4328      4331      4330      4328      4331
      4328      4331      4332      4328      4331      4333      4328      4331      4334
      4332      4331      4333      4332      4331      4334      4333      4331      4334
      4331      4334      4335      4331      4334      4336      4331      4334      4337
      4335      4334      4336      4335      4334      4337      4336      4334      4337
      4288      4338      4339      4288      4338      4340      4288      4338      4341
      4339      4338      4340      4339      4338      4341      4340      4338      4341
      4338      4341      4342      4338      4341      4343      4338      4341      4344
      4342      4341      4343      4342      4341      4344      4343      4341      4344
      4341      4344      4345      4341      4344      4346      4341      4344      4347
      4345      4344      4346      4345      4344      4347      4346      4344      4347
      4344      4347      4348      4344      4347      4349      4344      4347      4350
      4348      4347      4349      4348      4347      4350      4349      4347      4350
      4347      4350      4351      4347      4350      4352      4347      4350      4353
      4351      4350      4352      4351      4350      4353      4352      4350      4353
      4350      4353      4354      4350      4353      4355      4350      4353      4356
      4354      4353      4355      4354      4353      4356      4355      4353      4356
      4353      4356      4357      4353      4356      4358      4353      4356      4359
      4357      4356      4358      4357      4356      4359      4358      4356      4359
      4356      4359      4360      4356      4359      4361      4356      4359      4362
      4360      4359      4361      4360      4359      4362      4361      4359      4362
      4359      4362      4363      4359      4362      4364      4359      4362      4365
      4363      4362      4364      4363      4362      4365      4364      4362      4365
      4362      4365      4366      4362      4365      4367      4362      4365      4368
      4366      4365      4367      4366      4365      4368      4367      4365      4368
      4365      4368      4369      4365      4368      4370      4365      4368      4371
      4369      4368      4370      4369      4368      4371      4370      4368      4371
      4368      4371      4372      4368      4371      4373      4368      4371      4374
      4372      4371      4373      4372      4371      4374      4373      4371      4374
      4371      4374      4375      4371      4374      4376      4371      4374      4377
      4375      4374      4376      4375      4374      4377      4376      4374      4377
      4374      4377      4378      4374      4377      4379      4374      4377      4380
      4378      4377      4379      4378      4377      4380      4379      4377      4380
      4382      4381      4383      4382      4381      4384      4382      4381      4385
      4383      4381      4384      4383      4381      4385      4384      4381      4385
      4381      4385      4386      4381      4385      4387      4381      4385      4390
      4386      4385      4387      4386      4385      4390      4387      4385      4390
      4385      4387      4388      4385      4387      4389      4388      4387      4389
      4385      4390      4391      4385      4390      4392      4385      4390      4396
      4391      4390      4392      4391      4390      4396      4392      4390      4396
      4394      4393      4395      4394      4393      4396      4394      4393      4397
      4395      4393      4396      4395      4393      4397      4396      4393      4397
      4390      4396      4393      4393      4397      4398      4397      4398      4399
      4397      4398      4400      4397      4398      4401      4399      4398      4400
      4399      4398      4401      4400      4398      4401      4398      4401      4402
      4398      4401      4403      4398      4401      4409      4402      4401      4403
      4402      4401      4409      4403      4401      4409      4401      4403      4404
      4403      4404      4405      4403      4404      4406      4405      4404      4406
      4404      4406      4407      4404      4406      4408      4404      4406      4418
      4407      4406      4408      4407      4406      4418      4408      4406      4418
      4401      4409      4410      4401      4409      4411      4401      4409      4412
      4410      4409      4411      4410      4409      4412      4411      4409      4412
      4409      4412      4413      4412      4413      4414      4412      4413      4415
      4414      4413      4415      4413      4415      4416      4413      4415      4417
      4413      4415      4465      4416      4415      4417      4416      4415      4465
      4417      4415      4465      4406      4418      4419      4406      4418      4420
      4406      4418      4421      4419      4418      4420      4419      4418      4421
      4420      4418      4421      4418      4421      4422      4418      4421      4423
      4418      4421      4424      4422      4421      4423      4422      4421      4424
      4423      4421      4424      4421      4424      4425      4421      4424      4426
      4421      4424      4427      4425      4424      4426      4425      4424      4427
      4426      4424      4427      4424      4427      4428      4424      4427      4429
      4424      4427      4430      4428      4427      4429      4428      4427      4430
      4429      4427      4430      4427      4430      4431      4427      4430      4432
      4427      4430      4433      4431      4430      4432      4431      4430      4433
      4432      4430      4433      4430      4433      4434      4430      4433      4435
      4430      4433      4436      4434      4433      4435      4434      4433      4436
      4435      4433      4436      4433      4436      4437      4433      4436      4438
      4437      4436      4438      4436      4438      4439      4436      4438      4440
      4439      4438      4440      4438      4440      4441      4438      4440      4442
      4438      4440      4443      4441      4440      4442      4441      4440      4443
      4442      4440      4443      4440      4443      4444      4440      4443      4445
      4440      4443      4446      4444      4443      4445      4444      4443      4446
      4445      4443      4446      4443      4446      4447      4443      4446      4448
      4443      4446      4449      4447      4446      4448      4447      4446      4449
      4448      4446      4449      4446      4449      4450      4446      4449      4451
      4446      4449      4452      4450      4449      4451      4450      4449      4452
      4451      4449      4452      4449      4452      4453      4449      4452      4454
      4449      4452      4455      4453      4452      4454      4453      4452      4455
      4454      4452      4455      4452      4455      4456      4452      4455      4457
      4452      4455      4458      4456      4455      4457      4456      4455      4458
      4457      4455      4458      4455      4458      4459      4455      4458      4460
      4455      4458      4461      4459      4458      4460      4459      4458      4461
      4460      4458      4461      4458      4461      4462      4458      4461      4463
      4458      4461      4464      4462      4461      4463      4462      4461      4464
      4463      4461      4464      4415      4465      4466      4415      4465      4467
      4415      4465      4468      4466      4465      4467      4466      4465      4468
      4467      4465      4468      4465      4468      4469      4465      4468      4470
      4465      4468      4471      4469      4468      4470      4469      4468      4471
      4470      4468      4471      4468      4471      4472      4468      4471      4473
      4468      4471      4474      4472      4471      4473      4472      4471      4474
      4473      4471      4474      4471      4474      4475      4471      4474      4476
      4471      4474      4477      4475      4474      4476      4475      4474      4477
      4476      4474      4477      4474      4477      4478      4474      4477      4479
      4474      4477      4480      4478      4477      4479      4478      4477      4480
      4479      4477      4480      4477      4480      4481      4477      4480      4482
      4477      4480      4483      4481      4480      4482      4481      4480      4483
      4482      4480      4483      4480      4483      4484      4480      4483      4485
      4480      4483      4486      4484      4483      4485      4484      4483      4486
      4485      4483      4486      4483      4486      4487      4483      4486      4488
      4483      4486      4489      4487      4486      4488      4487      4486      4489
      4488      4486      4489      4486      4489      4490      4486      4489      4491
      4486      4489      4492      4490      4489      4491      4490      4489      4492
      4491      4489      4492      4489      4492      4493      4489      4492      4494
      4489      4492      4495      4493      4492      4494      4493      4492      4495
      4494      4492      4495      4492      4495      4496      4492      4495      4497
      4492      4495      4498      4496      4495      4497      4496      4495      4498
      4497      4495      4498      4495      4498      4499      4495      4498      4500
      4495      4498      4501      4499      4498      4500      4499      4498      4501
      4500      4498      4501      4498      4501      4502      4498      4501      4503
      4498      4501      4504      4502      4501      4503      4502      4501      4504
      4503      4501      4504      4501      4504      4505      4501      4504      4506
      4501      4504      4507      4505      4504      4506      4505      4504      4507
      4506      4504      4507      4509      4508      4510      4509      4508      4511
      4509      4508      4512      4510      4508      4511      4510      4508      4512
      4511      4508      4512      4508      4512      4513      4508      4512      4514
      4508      4512      4517      4513      4512      4514      4513      4512      4517
      4514      4512      4517      4512      4514      4515      4512      4514      4516
      4515      4514      4516      4512      4517      4518      4512      4517      4519
      4512      4517      4523      4518      4517      4519      4518      4517      4523
      4519      4517      4523      4521      4520      4522      4521      4520      4523
      4521      4520      4524      4522      4520      4523      4522      4520      4524
      4523      4520      4524      4517      4523      4520      4520      4524      4525
      4524      4525      4526      4524      4525      4527      4524      4525      4528
      4526      4525      4527      4526      4525      4528      4527      4525      4528
      4525      4528      4529      4525      4528      4530      4525      4528      4536
      4529      4528      4530      4529      4528      4536      4530      4528      4536
      4528      4530      4531      4530      4531      4532      4530      4531      4533
      4532      4531      4533      4531      4533      4534      4531      4533      4535
      4531      4533      4545      4534      4533      4535      4534      4533      4545
      4535      4533      4545      4528      4536      4537      4528      4536      4538
      4528      4536      4539      4537      4536      4538      4537      4536      4539
      4538      4536      4539      4536      4539      4540      4539      4540      4541
      4539      4540      4542      4541      4540      4542      4540      4542      4543
      4540      4542      4544      4540      4542      4592      4543      4542      4544
      4543      4542      4592      4544      4542      4592      4533      4545      4546
      4533      4545      4547      4533      4545      4548      4546      4545      4547
      4546      4545      4548      4547      4545      4548      4545      4548      4549
      4545      4548      4550      4545      4548      4551      4549      4548      4550
      4549      4548      4551      4550      4548      4551      4548      4551      4552
      4548      4551      4553      4548      4551      4554      4552      4551      4553
      4552      4551      4554      4553      4551      4554      4551      4554      4555
      4551      4554      4556      4551      4554      4557      4555      4554      4556
      4555      4554      4557      4556      4554      4557      4554      4557      4558
      4554      4557      4559      4554      4557      4560      4558      4557      4559
      4558      4557      4560      4559      4557      4560      4557      4560      4561
      4557      4560      4562      4557      4560      4563      4561      4560      4562
      4561      4560      4563      4562      4560      4563      4560      4563      4564
      4560      4563      4565      4564      4563      4565      4563      4565      4566
      4563      4565      4567      4566      4565      4567      4565      4567      4568
      4565      4567      4569      4565      4567      4570      4568      4567      4569
      4568      4567      4570      4569      4567      4570      4567      4570      4571
      4567      4570      4572      4567      4570      4573      4571      4570      4572
      4571      4570      4573      4572      4570      4573      4570      4573      4574
      4570      4573      4575      4570      4573      4576      4574      4573      4575
      4574      4573      4576      4575      4573      4576      4573      4576      4577
      4573      4576      4578      4573      4576      4579      4577      4576      4578
      4577      4576      4579      4578      4576      4579      4576      4579      4580
      4576      4579      4581      4576      4579      4582      4580      4579      4581
      4580      4579      4582      4581      4579      4582      4579      4582      4583
      4579      4582      4584      4579      4582      4585      4583      4582      4584
      4583      4582      4585      4584      4582      4585      4582      4585      4586
      4582      4585      4587      4582      4585      4588      4586      4585      4587
      4586      4585      4588      4587      4585      4588      4585      4588      4589
      4585      4588      4590      4585      4588      4591      4589      4588      4590
      4589      4588      4591      4590      4588      4591      4542      4592      4593
      4542      4592      4594      4542      4592      4595      4593      4592      4594
      4593      4592      4595      4594      4592      4595      4592      4595      4596
      4592      4595      4597      4592      4595      4598      4596      4595      4597
      4596      4595      4598      4597      4595      4598      4595      4598      4599
      4595      4598      4600      4595      4598      4601      4599      4598      4600
      4599      4598      4601      4600      4598      4601      4598      4601      4602
      4598      4601      4603      4598      4601      4604      4602      4601      4603
      4602      4601      4604      4603      4601      4604      4601      4604      4605
      4601      4604      4606      4601      4604      4607      4605      4604      4606
      4605      4604      4607      4606      4604      4607      4604      4607      4608
      4604      4607      4609      4604      4607      4610      4608      4607      4609
      4608      4607      4610      4609      4607      4610      4607      4610      4611
      4607      4610      4612      4607      4610      4613      4611      4610      4612
      4611      4610      4613      4612      4610      4613      4610      4613      4614
      4610      4613      4615      4610      4613      4616      4614      4613      4615
      4614      4613      4616      4615      4613      4616      4613      4616      4617
      4613      4616      4618      4613      4616      4619      4617      4616      4618
      4617      4616      4619      4618      4616      4619      4616      4619      4620
      4616      4619      4621      4616      4619      4622      4620      4619      4621
      4620      4619      4622      4621      4619      4622      4619      4622      4623
      4619      4622      4624      4619      4622      4625      4623      4622      4624
      4623      4622      4625      4624      4622      4625      4622      4625      4626
      4622      4625      4627      4622      4625      4628      4626      4625      4627
      4626      4625      4628      4627      4625      4628      4625      4628      4629
      4625      4628      4630      4625      4628      4631      4629      4628      4630
      4629      4628      4631      4630      4628      4631      4628      4631      4632
      4628      4631      4633      4628      4631      4634      4632      4631      4633
      4632      4631      4634      4633      4631      4634      4636      4635      4639
      4636      4635      4643      4636      4635      4647      4639      4635      4643
      4639      4635      4647      4643      4635      4647      4635      4636      4637
      4635      4636      4638      4635      4636      4651      4637      4636      4638
      4637      4636      4651      4638      4636      4651      4635      4639      4640
      4635      4639      4641      4635      4639      4642      4640      4639      4641
      4640      4639      4642      4641      4639      4642      4635      4643      4644
      4635      4643      4645      4635      4643      4646      4644      4643      4645
      4644      4643      4646      4645      4643      4646      4635      4647      4648
      4635      4647      4649      4635      4647      4650      4648      4647      4649
      4648      4647      4650      4649      4647      4650      4636      4651      4652
      4636      4651      4653      4636      4651      4657      4652      4651      4653
      4652      4651      4657      4653      4651      4657      4655      4654      4656
      4655      4654      4657      4655      4654      4658      4656      4654      4657
      4656      4654      4658      4657      4654      4658      4651      4657      4654
      4654      4658      4659      4658      4659      4660      4658      4659      4661
      4658      4659      4662      4660      4659      4661      4660      4659      4662
      4661      4659      4662      4659      4662      4663      4659      4662      4664
      4659      4662      4670      4663      4662      4664      4663      4662      4670
      4664      4662      4670      4662      4664      4665      4664      4665      4666
      4664      4665      4667      4666      4665      4667      4665      4667      4668
      4665      4667      4669      4665      4667      4679      4668      4667      4669
      4668      4667      4679      4669      4667      4679      4662      4670      4671
      4662      4670      4672      4662      4670      4673      4671      4670      4672
      4671      4670      4673      4672      4670      4673      4670      4673      4674
      4673      4674      4675      4673      4674      4676      4675      4674      4676
      4674      4676      4677      4674      4676      4678      4674      4676      4726
      4677      4676      4678      4677      4676      4726      4678      4676      4726
      4667      4679      4680      4667      4679      4681      4667      4679      4682
      4680      4679      4681      4680      4679      4682      4681      4679      4682
      4679      4682      4683      4679      4682      4684      4679      4682      4685
      4683      4682      4684      4683      4682      4685      4684      4682      4685
      4682      4685      4686      4682      4685      4687      4682      4685      4688
      4686      4685      4687      4686      4685      4688      4687      4685      4688
      4685      4688      4689      4685      4688      4690      4685      4688      4691
      4689      4688      4690      4689      4688      4691      4690      4688      4691
      4688      4691      4692      4688      4691      4693      4688      4691      4694
      4692      4691      4693      4692      4691      4694      4693      4691      4694
      4691      4694      4695      4691      4694      4696      4691      4694      4697
      4695      4694      4696      4695      4694      4697      4696      4694      4697
      4694      4697      4698      4694      4697      4699      4698      4697      4699
      4697      4699      4700      4697      4699      4701      4700      4699      4701
      4699      4701      4702      4699      4701      4703      4699      4701      4704
      4702      4701      4703      4702      4701      4704      4703      4701      4704
      4701      4704      4705      4701      4704      4706      4701      4704      4707
      4705      4704      4706      4705      4704      4707      4706      4704      4707
      4704      4707      4708      4704      4707      4709      4704      4707      4710
      4708      4707      4709      4708      4707      4710      4709      4707      4710
      4707      4710      4711      4707      4710      4712      4707      4710      4713
      4711      4710      4712      4711      4710      4713      4712      4710      4713
      4710      4713      4714      4710      4713      4715      4710      4713      4716
      4714      4713      4715      4714      4713      4716      4715      4713      4716
      4713      4716      4717      4713      4716      4718      4713      4716      4719
      4717      4716      4718      4717      4716      4719      4718      4716      4719
      4716      4719      4720      4716      4719      4721      4716      4719      4722
      4720      4719      4721      4720      4719      4722      4721      4719      4722
      4719      4722      4723      4719      4722      4724      4719      4722      4725
      4723      4722      4724      4723      4722      4725      4724      4722      4725
      4676      4726      4727      4676      4726      4728      4676      4726      4729
      4727      4726      4728      4727      4726      4729      4728      4726      4729
      4726      4729      4730      4726      4729      4731      4726      4729      4732
      4730      4729      4731      4730      4729      4732      4731      4729      4732
      4729      4732      4733      4729      4732      4734      4729      4732      4735
      4733      4732      4734      4733      4732      4735      4734      4732      4735
      4732      4735      4736      4732      4735      4737      4732      4735      4738
      4736      4735      4737      4736      4735      4738      4737      4735      4738
      4735      4738      4739      4735      4738      4740      4735      4738      4741
      4739      4738      4740      4739      4738      4741      4740      4738      4741
      4738      4741      4742      4738      4741      4743      4738      4741      4744
      4742      4741      4743      4742      4741      4744      4743      4741      4744
      4741      4744      4745      4741      4744      4746      4741      4744      4747
      4745      4744      4746      4745      4744      4747      4746      4744      4747
      4744      4747      4748      4744      4747      4749      4744      4747      4750
      4748      4747      4749      4748      4747      4750      4749      4747      4750
      4747      4750      4751      4747      4750      4752      4747      4750      4753
      4751      4750      4752      4751      4750      4753      4752      4750      4753
      4750      4753      4754      4750      4753      4755      4750      4753      4756
      4754      4753      4755      4754      4753      4756      4755      4753      4756
      4753      4756      4757      4753      4756      4758      4753      4756      4759
      4757      4756      4758      4757      4756      4759      4758      4756      4759
      4756      4759      4760      4756      4759      4761      4756      4759      4762
      4760      4759      4761      4760      4759      4762      4761      4759      4762
      4759      4762      4763      4759      4762      4764      4759      4762      4765
      4763      4762      4764      4763      4762      4765      4764      4762      4765
      4762      4765      4766      4762      4765      4767      4762      4765      4768
      4766      4765      4767      4766      4765      4768      4767      4765      4768
      4770      4769      4773      4770      4769      4777      4770      4769      4781
      4773      4769      4777      4773      4769      4781      4777      4769      4781
      4769      4770      4771      4769      4770      4772      4769      4770      4785
      4771      4770      4772      4771      4770      4785      4772      4770      4785
      4769      4773      4774      4769      4773      4775      4769      4773      4776
      4774      4773      4775      4774      4773      4776      4775      4773      4776
      4769      4777      4778      4769      4777      4779      4769      4777      4780
      4778      4777      4779      4778      4777      4780      4779      4777      4780
      4769      4781      4782      4769      4781      4783      4769      4781      4784
      4782      4781      4783      4782      4781      4784      4783      4781      4784
      4770      4785      4786      4770      4785      4787      4770      4785      4791
      4786      4785      4787      4786      4785      4791      4787      4785      4791
      4789      4788      4790      4789      4788      4791      4789      4788      4792
      4790      4788      4791      4790      4788      4792      4791      4788      4792
      4785      4791      4788      4788      4792      4793      4792      4793      4794
      4792      4793      4795      4792      4793      4796      4794      4793      4795
      4794      4793      4796      4795      4793      4796      4793      4796      4797
      4793      4796      4798      4793      4796      4804      4797      4796      4798
      4797      4796      4804      4798      4796      4804      4796      4798      4799
      4798      4799      4800      4798      4799      4801      4800      4799      4801
      4799      4801      4802      4799      4801      4803      4799      4801      4813
      4802      4801      4803      4802      4801      4813      4803      4801      4813
      4796      4804      4805      4796      4804      4806      4796      4804      4807
      4805      4804      4806      4805      4804      4807      4806      4804      4807
      4804      4807      4808      4807      4808      4809      4807      4808      4810
      4809      4808      4810      4808      4810      4811      4808      4810      4812
      4808      4810      4860      4811      4810      4812      4811      4810      4860
      4812      4810      4860      4801      4813      4814      4801      4813      4815
      4801      4813      4816      4814      4813      4815      4814      4813      4816
      4815      4813      4816      4813      4816      4817      4813      4816      4818
      4813      4816      4819      4817      4816      4818      4817      4816      4819
      4818      4816      4819      4816      4819      4820      4816      4819      4821
      4816      4819      4822      4820      4819      4821      4820      4819      4822
      4821      4819      4822      4819      4822      4823      4819      4822      4824
      4819      4822      4825      4823      4822      4824      4823      4822      4825
      4824      4822      4825      4822      4825      4826      4822      4825      4827
      4822      4825      4828      4826      4825      4827      4826      4825      4828
      4827      4825      4828      4825      4828      4829      4825      4828      4830
      4825      4828      4831      4829      4828      4830      4829      4828      4831
      4830      4828      4831      4828      4831      4832      4828      4831      4833
      4832      4831      4833      4831      4833      4834      4831      4833      4835
      4834      4833      4835      4833      4835      4836      4833      4835      4837
      4833      4835      4838      4836      4835      4837      4836      4835      4838
      4837      4835      4838      4835      4838      4839      4835      4838      4840
      4835      4838      4841      4839      4838      4840      4839      4838      4841
      4840      4838      4841      4838      4841      4842      4838      4841      4843
      4838      4841      4844      4842      4841      4843      4842      4841      4844
      4843      4841      4844      4841      4844      4845      4841      4844      4846
      4841      4844      4847      4845      4844      4846      4845      4844      4847
      4846      4844      4847      4844      4847      4848      4844      4847      4849
      4844      4847      4850      4848      4847      4849      4848      4847      4850
      4849      4847      4850      4847      4850      4851      4847      4850      4852
      4847      4850      4853      4851      4850      4852      4851      4850      4853
      4852      4850      4853      4850      4853      4854      4850      4853      4855
      4850      4853      4856      4854      4853      4855      4854      4853      4856
      4855      4853      4856      4853      4856      4857      4853      4856      4858
      4853      4856      4859      4857      4856      4858      4857      4856      4859
      4858      4856      4859      4810      4860      4861      4810      4860      4862
      4810      4860      4863      4861      4860      4862      4861      4860      4863
      4862      4860      4863      4860      4863      4864      4860      4863      4865
      4860      4863      4866      4864      4863      4865      4864      4863      4866
      4865      4863      4866      4863      4866      4867      4863      4866      4868
      4863      4866      4869      4867      4866      4868      4867      4866      4869
      4868      4866      4869      4866      4869      4870      4866      4869      4871
      4866      4869      4872      4870      4869      4871      4870      4869      4872
      4871      4869      4872      4869      4872      4873      4869      4872      4874
      4869      4872      4875      4873      4872      4874      4873      4872      4875
      4874      4872      4875      4872      4875      4876      4872      4875      4877
      4872      4875      4878      4876      4875      4877      4876      4875      4878
      4877      4875      4878      4875      4878      4879      4875      4878      4880
      4875      4878      4881      4879      4878      4880      4879      4878      4881
      4880      4878      4881      4878      4881      4882      4878      4881      4883
      4878      4881      4884      4882      4881      4883      4882      4881      4884
      4883      4881      4884      4881      4884      4885      4881      4884      4886
      4881      4884      4887      4885      4884      4886      4885      4884      4887
      4886      4884      4887      4884      4887      4888      4884      4887      4889
      4884      4887      4890      4888      4887      4889      4888      4887      4890
      4889      4887      4890      4887      4890      4891      4887      4890      4892
      4887      4890      4893      4891      4890      4892      4891      4890      4893
      4892      4890      4893      4890      4893      4894      4890      4893      4895
      4890      4893      4896      4894      4893      4895      4894      4893      4896
      4895      4893      4896      4893      4896      4897      4893      4896      4898
      4893      4896      4899      4897      4896      4898      4897      4896      4899
      4898      4896      4899      4896      4899      4900      4896      4899      4901
      4896      4899      4902      4900      4899      4901      4900      4899      4902
      4901      4899      4902      4904      4903      4905      4904      4903      4906
      4904      4903      4907      4905      4903      4906      4905      4903      4907
      4906      4903      4907      4903      4907      4908      4903      4907      4909
      4903      4907      4912      4908      4907      4909      4908      4907      4912
      4909      4907      4912      4907      4909      4910      4907      4909      4911
      4910      4909      4911      4907      4912      4913      4907      4912      4914
      4907      4912      4918      4913      4912      4914      4913      4912      4918
      4914      4912      4918      4916      4915      4917      4916      4915      4918
      4916      4915      4919      4917      4915      4918      4917      4915      4919
      4918      4915      4919      4912      4918      4915      4915      4919      4920
      4919      4920      4921      4919      4920      4922      4919      4920      4923
      4921      4920      4922      4921      4920      4923      4922      4920      4923
      4920      4923      4924      4920      4923      4925      4920      4923      4931
      4924      4923      4925      4924      4923      4931      4925      4923      4931
      4923      4925      4926      4925      4926      4927      4925      4926      4928
      4927      4926      4928      4926      4928      4929      4926      4928      4930
      4926      4928      4940      4929      4928      4930      4929      4928      4940
      4930      4928      4940      4923      4931      4932      4923      4931      4933
      4923      4931      4934      4932      4931      4933      4932      4931      4934
      4933      4931      4934      4931      4934      4935      4934      4935      4936
      4934      4935      4937      4936      4935      4937      4935      4937      4938
      4935      4937      4939      4935      4937      4987      4938      4937      4939
      4938      4937      4987      4939      4937      4987      4928      4940      4941
      4928      4940      4942      4928      4940      4943      4941      4940      4942
      4941      4940      4943      4942      4940      4943      4940      4943      4944
      4940      4943      4945      4940      4943      4946      4944      4943      4945
      4944      4943      4946      4945      4943      4946      4943      4946      4947
      4943      4946      4948      4943      4946      4949      4947      4946      4948
      4947      4946      4949      4948      4946      4949      4946      4949      4950
      4946      4949      4951      4946      4949      4952      4950      4949      4951
      4950      4949      4952      4951      4949      4952      4949      4952      4953
      4949      4952      4954      4949      4952      4955      4953      4952      4954
      4953      4952      4955      4954      4952      4955      4952      4955      4956
      4952      4955      4957      4952      4955      4958      4956      4955      4957
      4956      4955      4958      4957      4955      4958      4955      4958      4959
      4955      4958      4960      4959      4958      4960      4958      4960      4961
      4958      4960      4962      4961      4960      4962      4960      4962      4963
      4960      4962      4964      4960      4962      4965      4963      4962      4964
      4963      4962      4965      4964      4962      4965      4962      4965      4966
      4962      4965      4967      4962      4965      4968      4966      4965      4967
      4966      4965      4968      4967      4965      4968      4965      4968      4969
      4965      4968      4970      4965      4968      4971      4969      4968      4970
      4969      4968      4971      4970      4968      4971      4968      4971      4972
      4968      4971      4973      4968      4971      4974      4972      4971      4973
      4972      4971      4974      4973      4971      4974      4971      4974      4975
      4971      4974      4976      4971      4974      4977      4975      4974      4976
      4975      4974      4977      4976      4974      4977      4974      4977      4978
      4974      4977      4979      4974      4977      4980      4978      4977      4979
      4978      4977      4980      4979      4977      4980      4977      4980      4981
      4977      4980      4982      4977      4980      4983      4981      4980      4982
      4981      4980      4983      4982      4980      4983      4980      4983      4984
      4980      4983      4985      4980      4983      4986      4984      4983      4985
      4984      4983      4986      4985      4983      4986      4937      4987      4988
      4937      4987      4989      4937      4987      4990      4988      4987      4989
      4988      4987      4990      4989      4987      4990      4987      4990      4991
      4987      4990      4992      4987      4990      4993      4991      4990      4992
      4991      4990      4993      4992      4990      4993      4990      4993      4994
      4990      4993      4995      4990      4993      4996      4994      4993      4995
      4994      4993      4996      4995      4993      4996      4993      4996      4997
      4993      4996      4998      4993      4996      4999      4997      4996      4998
      4997      4996      4999      4998      4996      4999      4996      4999      5000
      4996      4999      5001      4996      4999      5002      5000      4999      5001
      5000      4999      5002      5001      4999      5002      4999      5002      5003
      4999      5002      5004      4999      5002      5005      5003      5002      5004
      5003      5002      5005      5004      5002      5005      5002      5005      5006
      5002      5005      5007      5002      5005      5008      5006      5005      5007
      5006      5005      5008      5007      5005      5008      5005      5008      5009
      5005      5008      5010      5005      5008      5011      5009      5008      5010
      5009      5008      5011      5010      5008      5011      5008      5011      5012
      5008      5011      5013      5008      5011      5014      5012      5011      5013
      5012      5011      5014      5013      5011      5014      5011      5014      5015
      5011      5014      5016      5011      5014      5017      5015      5014      5016
      5015      5014      5017      5016      5014      5017      5014      5017      5018
      5014      5017      5019      5014      5017      5020      5018      5017      5019
      5018      5017      5020      5019      5017      5020      5017      5020      5021
      5017      5020      5022      5017      5020      5023      5021      5020      5022
      5021      5020      5023      5022      5020      5023      5020      5023      5024
      5020      5023      5025      5020      5023      5026      5024      5023      5025
      5024      5023      5026      5025      5023      5026      5023      5026      5027
      5023      5026      5028      5023      5026      5029      5027      5026      5028
      5027      5026      5029      5028      5026      5029      5031      5030      5034
      5031      5030      5038      5031      5030      5042      5034      5030      5038
      5034      5030      5042      5038      5030      5042      5030      5031      5032
      5030      5031      5033      5030      5031      5046      5032      5031      5033
      5032      5031      5046      5033      5031      5046      5030      5034      5035
      5030      5034      5036      5030      5034      5037      5035      5034      5036
      5035      5034      5037      5036      5034      5037      5030      5038      5039
      5030      5038      5040      5030      5038      5041      5039      5038      5040
      5039      5038      5041      5040      5038      5041      5030      5042      5043
      5030      5042      5044      5030      5042      5045      5043      5042      5044
      5043      5042      5045      5044      5042      5045      5031      5046      5047
      5031      5046      5048      5031      5046      5052      5047      5046      5048
      5047      5046      5052      5048      5046      5052      5050      5049      5051
      5050      5049      5052      5050      5049      5053      5051      5049      5052
      5051      5049      5053      5052      5049      5053      5046      5052      5049
      5049      5053      5054      5053      5054      5055      5053      5054      5056
      5053      5054      5057      5055      5054      5056      5055      5054      5057
      5056      5054      5057      5054      5057      5058      5054      5057      5059
      5054      5057      5065      5058      5057      5059      5058      5057      5065
      5059      5057      5065      5057      5059      5060      5059      5060      5061
      5059      5060      5062      5061      5060      5062      5060      5062      5063
      5060      5062      5064      5060      5062      5074      5063      5062      5064
      5063      5062      5074      5064      5062      5074      5057      5065      5066
      5057      5065      5067      5057      5065      5068      5066      5065      5067
      5066      5065      5068      5067      5065      5068      5065      5068      5069
      5068      5069      5070      5068      5069      5071      5070      5069      5071
      5069      5071      5072      5069      5071      5073      5069      5071      5121
      5072      5071      5073      5072      5071      5121      5073      5071      5121
      5062      5074      5075      5062      5074      5076      5062      5074      5077
      5075      5074      5076      5075      5074      5077      5076      5074      5077
      5074      5077      5078      5074      5077      5079      5074      5077      5080
      5078      5077      5079      5078      5077      5080      5079      5077      5080
      5077      5080      5081      5077      5080      5082      5077      5080      5083
      5081      5080      5082      5081      5080      5083      5082      5080      5083
      5080      5083      5084      5080      5083      5085      5080      5083      5086
      5084      5083      5085      5084      5083      5086      5085      5083      5086
      5083      5086      5087      5083      5086      5088      5083      5086      5089
      5087      5086      5088      5087      5086      5089      5088      5086      5089
      5086      5089      5090      5086      5089      5091      5086      5089      5092
      5090      5089      5091      5090      5089      5092      5091      5089      5092
      5089      5092      5093      5089      5092      5094      5093      5092      5094
      5092      5094      5095      5092      5094      5096      5095      5094      5096
      5094      5096      5097      5094      5096      5098      5094      5096      5099
      5097      5096      5098      5097      5096      5099      5098      5096      5099
      5096      5099      5100      5096      5099      5101      5096      5099      5102
      5100      5099      5101      5100      5099      5102      5101      5099      5102
      5099      5102      5103      5099      5102      5104      5099      5102      5105
      5103      5102      5104      5103      5102      5105      5104      5102      5105
      5102      5105      5106      5102      5105      5107      5102      5105      5108
      5106      5105      5107      5106      5105      5108      5107      5105      5108
      5105      5108      5109      5105      5108      5110      5105      5108      5111
      5109      5108      5110      5109      5108      5111      5110      5108      5111
      5108      5111      5112      5108      5111      5113      5108      5111      5114
      5112      5111      5113      5112      5111      5114      5113      5111      5114
      5111      5114      5115      5111      5114      5116      5111      5114      5117
      5115      5114      5116      5115      5114      5117      5116      5114      5117
      5114      5117      5118      5114      5117      5119      5114      5117      5120
      5118      5117      5119      5118      5117      5120      5119      5117      5120
      5071      5121      5122      5071      5121      5123      5071      5121      5124
      5122      5121      5123      5122      5121      5124      5123      5121      5124
      5121      5124      5125      5121      5124      5126      5121      5124      5127
      5125      5124      5126      5125      5124      5127      5126      5124      5127
      5124      5127      5128      5124      5127      5129      5124      5127      5130
      5128      5127      5129      5128      5127      5130      5129      5127      5130
      5127      5130      5131      5127      5130      5132      5127      5130      5133
      5131      5130      5132      5131      5130      5133      5132      5130      5133
      5130      5133      5134      5130      5133      5135      5130      5133      5136
      5134      5133      5135      5134      5133      5136      5135      5133      5136
      5133      5136      5137      5133      5136      5138      5133      5136      5139
      5137      5136      5138      5137      5136      5139      5138      5136      5139
      5136      5139      5140      5136      5139      5141      5136      5139      5142
      5140      5139      5141      5140      5139      5142      5141      5139      5142
      5139      5142      5143      5139      5142      5144      5139      5142      5145
      5143      5142      5144      5143      5142      5145      5144      5142      5145
      5142      5145      5146      5142      5145      5147      5142      5145      5148
      5146      5145      5147      5146      5145      5148      5147      5145      5148
      5145      5148      5149      5145      5148      5150      5145      5148      5151
      5149      5148      5150      5149      5148      5151      5150      5148      5151
      5148      5151      5152      5148      5151      5153      5148      5151      5154
      5152      5151      5153      5152      5151      5154      5153      5151      5154
      5151      5154      5155      5151      5154      5156      5151      5154      5157
      5155      5154      5156      5155      5154      5157      5156      5154      5157
      5154      5157      5158      5154      5157      5159      5154      5157      5160
      5158      5157      5159      5158      5157      5160      5159      5157      5160
      5157      5160      5161      5157      5160      5162      5157      5160      5163
      5161      5160      5162      5161      5160      5163      5162      5160      5163
      5165      5164      5168      5165      5164      5172      5165      5164      5176
      5168      5164      5172      5168      5164      5176      5172      5164      5176
      5164      5165      5166      5164      5165      5167      5164      5165      5180
      5166      5165      5167      5166      5165      5180      5167      5165      5180
      5164      5168      5169      5164      5168      5170      5164      5168      5171
      5169      5168      5170      5169      5168      5171      5170      5168      5171
      5164      5172      5173      5164      5172      5174      5164      5172      5175
      5173      5172      5174      5173      5172      5175      5174      5172      5175
      5164      5176      5177      5164      5176      5178      5164      5176      5179
      5177      5176      5178      5177      5176      5179      5178      5176      5179
      5165      5180      5181      5165      5180      5182      5165      5180      5186
      5181      5180      5182      5181      5180      5186      5182      5180      5186
      5184      5183      5185      5184      5183      5186      5184      5183      5187
      5185      5183      5186      5185      5183      5187      5186      5183      5187
      5180      5186      5183      5183      5187      5188      5187      5188      5189
      5187      5188      5190      5187      5188      5191      5189      5188      5190
      5189      5188      5191      5190      5188      5191      5188      5191      5192
      5188      5191      5193      5188      5191      5199      5192      5191      5193
      5192      5191      5199      5193      5191      5199      5191      5193      5194
      5193      5194      5195      5193      5194      5196      5195      5194      5196
      5194      5196      5197      5194      5196      5198      5194      5196      5208
      5197      5196      5198      5197      5196      5208      5198      5196      5208
      5191      5199      5200      5191      5199      5201      5191      5199      5202
      5200      5199      5201      5200      5199      5202      5201      5199      5202
      5199      5202      5203      5202      5203      5204      5202      5203      5205
      5204      5203      5205      5203      5205      5206      5203      5205      5207
      5203      5205      5255      5206      5205      5207      5206      5205      5255
      5207      5205      5255      5196      5208      5209      5196      5208      5210
      5196      5208      5211      5209      5208      5210      5209      5208      5211
      5210      5208      5211      5208      5211      5212      5208      5211      5213
      5208      5211      5214      5212      5211      5213      5212      5211      5214
      5213      5211      5214      5211      5214      5215      5211      5214      5216
      5211      5214      5217      5215      5214      5216      5215      5214      5217
      5216      5214      5217      5214      5217      5218      5214      5217      5219
      5214      5217      5220      5218      5217      5219      5218      5217      5220
      5219      5217      5220      5217      5220      5221      5217      5220      5222
      5217      5220      5223      5221      5220      5222      5221      5220      5223
      5222      5220      5223      5220      5223      5224      5220      5223      5225
      5220      5223      5226      5224      5223      5225      5224      5223      5226
      5225      5223      5226      5223      5226      5227      5223      5226      5228
      5227      5226      5228      5226      5228      5229      5226      5228      5230
      5229      5228      5230      5228      5230      5231      5228      5230      5232
      5228      5230      5233      5231      5230      5232      5231      5230      5233
      5232      5230      5233      5230      5233      5234      5230      5233      5235
      5230      5233      5236      5234      5233      5235      5234      5233      5236
      5235      5233      5236      5233      5236      5237      5233      5236      5238
      5233      5236      5239      5237      5236      5238      5237      5236      5239
      5238      5236      5239      5236      5239      5240      5236      5239      5241
      5236      5239      5242      5240      5239      5241      5240      5239      5242
      5241      5239      5242      5239      5242      5243      5239      5242      5244
      5239      5242      5245      5243      5242      5244      5243      5242      5245
      5244      5242      5245      5242      5245      5246      5242      5245      5247
      5242      5245      5248      5246      5245      5247      5246      5245      5248
      5247      5245      5248      5245      5248      5249      5245      5248      5250
      5245      5248      5251      5249      5248      5250      5249      5248      5251
      5250      5248      5251      5248      5251      5252      5248      5251      5253
      5248      5251      5254      5252      5251      5253      5252      5251      5254
      5253      5251      5254      5205      5255      5256      5205      5255      5257
      5205      5255      5258      5256      5255      5257      5256      5255      5258
      5257      5255      5258      5255      5258      5259      5255      5258      5260
      5255      5258      5261      5259      5258      5260      5259      5258      5261
      5260      5258      5261      5258      5261      5262      5258      5261      5263
      5258      5261      5264      5262      5261      5263      5262      5261      5264
      5263      5261      5264      5261      5264      5265      5261      5264      5266
      5261      5264      5267      5265      5264      5266      5265      5264      5267
      5266      5264      5267      5264      5267      5268      5264      5267      5269
      5264      5267      5270      5268      5267      5269      5268      5267      5270
      5269      5267      5270      5267      5270      5271      5267      5270      5272
      5267      5270      5273      5271      5270      5272      5271      5270      5273
      5272      5270      5273      5270      5273      5274      5270      5273      5275
      5270      5273      5276      5274      5273      5275      5274      5273      5276
      5275      5273      5276      5273      5276      5277      5273      5276      5278
      5273      5276      5279      5277      5276      5278      5277      5276      5279
      5278      5276      5279      5276      5279      5280      5276      5279      5281
      5276      5279      5282      5280      5279      5281      5280      5279      5282
      5281      5279      5282      5279      5282      5283      5279      5282      5284
      5279      5282      5285      5283      5282      5284      5283      5282      5285
      5284      5282      5285      5282      5285      5286      5282      5285      5287
      5282      5285      5288      5286      5285      5287      5286      5285      5288
      5287      5285      5288      5285      5288      5289      5285      5288      5290
      5285      5288      5291      5289      5288      5290      5289      5288      5291
      5290      5288      5291      5288      5291      5292      5288      5291      5293
      5288      5291      5294      5292      5291      5293      5292      5291      5294
      5293      5291      5294      5291      5294      5295      5291      5294      5296
      5291      5294      5297      5295      5294      5296      5295      5294      5297
      5296      5294      5297      5299      5298      5302      5299      5298      5306
      5299      5298      5310      5302      5298      5306      5302      5298      5310
      5306      5298      5310      5298      5299      5300      5298      5299      5301
      5298      5299      5314      5300      5299      5301      5300      5299      5314
      5301      5299      5314      5298      5302      5303      5298      5302      5304
      5298      5302      5305      5303      5302      5304      5303      5302      5305
      5304      5302      5305      5298      5306      5307      5298      5306      5308
      5298      5306      5309      5307      5306      5308      5307      5306      5309
      5308      5306      5309      5298      5310      5311      5298      5310      5312
      5298      5310      5313      5311      5310      5312      5311      5310      5313
      5312      5310      5313      5299      5314      5315      5299      5314      5316
      5299      5314      5320      5315      5314      5316      5315      5314      5320
      5316      5314      5320      5318      5317      5319      5318      5317      5320
      5318      5317      5321      5319      5317      5320      5319      5317      5321
      5320      5317      5321      5314      5320      5317      5317      5321      5322
      5321      5322      5323      5321      5322      5324      5321      5322      5325
      5323      5322      5324      5323      5322      5325      5324      5322      5325
      5322      5325      5326      5322      5325      5327      5322      5325      5333
      5326      5325      5327      5326      5325      5333      5327      5325      5333
      5325      5327      5328      5327      5328      5329      5327      5328      5330
      5329      5328      5330      5328      5330      5331      5328      5330      5332
      5328      5330      5342      5331      5330      5332      5331      5330      5342
      5332      5330      5342      5325      5333      5334      5325      5333      5335
      5325      5333      5336      5334      5333      5335      5334      5333      5336
      5335      5333      5336      5333      5336      5337      5336      5337      5338
      5336      5337      5339      5338      5337      5339      5337      5339      5340
      5337      5339      5341      5337      5339      5389      5340      5339      5341
      5340      5339      5389      5341      5339      5389      5330      5342      5343
      5330      5342      5344      5330      5342      5345      5343      5342      5344
      5343      5342      5345      5344      5342      5345      5342      5345      5346
      5342      5345      5347      5342      5345      5348      5346      5345      5347
      5346      5345      5348      5347      5345      5348      5345      5348      5349
      5345      5348      5350      5345      5348      5351      5349      5348      5350
      5349      5348      5351      5350      5348      5351      5348      5351      5352
      5348      5351      5353      5348      5351      5354      5352      5351      5353
      5352      5351      5354      5353      5351      5354      5351      5354      5355
      5351      5354      5356      5351      5354      5357      5355      5354      5356
      5355      5354      5357      5356      5354      5357      5354      5357      5358
      5354      5357      5359      5354      5357      5360      5358      5357      5359
      5358      5357      5360      5359      5357      5360      5357      5360      5361
      5357      5360      5362      5361      5360      5362      5360      5362      5363
      5360      5362      5364      5363      5362      5364      5362      5364      5365
      5362      5364      5366      5362      5364      5367      5365      5364      5366
      5365      5364      5367      5366      5364      5367      5364      5367      5368
      5364      5367      5369      5364      5367      5370      5368      5367      5369
      5368      5367      5370      5369      5367      5370      5367      5370      5371
      5367      5370      5372      5367      5370      5373      5371      5370      5372
      5371      5370      5373      5372      5370      5373      5370      5373      5374
      5370      5373      5375      5370      5373      5376      5374      5373      5375
      5374      5373      5376      5375      5373      5376      5373      5376      5377
      5373      5376      5378      5373      5376      5379      5377      5376      5378
      5377      5376      5379      5378      5376      5379      5376      5379      5380
      5376      5379      5381      5376      5379      5382      5380      5379      5381
      5380      5379      5382      5381      5379      5382      5379      5382      5383
      5379      5382      5384      5379      5382      5385      5383      5382      5384
      5383      5382      5385      5384      5382      5385      5382      5385      5386
      5382      5385      5387      5382      5385      5388      5386      5385      5387
      5386      5385      5388      5387      5385      5388      5339      5389      5390
      5339      5389      5391      5339      5389      5392      5390      5389      5391
      5390      5389      5392      5391      5389      5392      5389      5392      5393
      5389      5392      5394      5389      5392      5395      5393      5392      5394
      5393      5392      5395      5394      5392      5395      5392      5395      5396
      5392      5395      5397      5392      5395      5398      5396      5395      5397
      5396      5395      5398      5397      5395      5398      5395      5398      5399
      5395      5398      5400      5395      5398      5401      5399      5398      5400
      5399      5398      5401      5400      5398      5401      5398      5401      5402
      5398      5401      5403      5398      5401      5404      5402      5401      5403
      5402      5401      5404      5403      5401      5404      5401      5404      5405
      5401      5404      5406      5401      5404      5407      5405      5404      5406
      5405      5404      5407      5406      5404      5407      5404      5407      5408
      5404      5407      5409      5404      5407      5410      5408      5407      5409
      5408      5407      5410      5409      5407      5410      5407      5410      5411
      5407      5410      5412      5407      5410      5413      5411      5410      5412
      5411      5410      5413      5412      5410      5413      5410      5413      5414
      5410      5413      5415      5410      5413      5416      5414      5413      5415
      5414      5413      5416      5415      5413      5416      5413      5416      5417
      5413      5416      5418      5413      5416      5419      5417      5416      5418
      5417      5416      5419      5418      5416      5419      5416      5419      5420
      5416      5419      5421      5416      5419      5422      5420      5419      5421
      5420      5419      5422      5421      5419      5422      5419      5422      5423
      5419      5422      5424      5419      5422      5425      5423      5422      5424
      5423      5422      5425      5424      5422      5425      5422      5425      5426
      5422      5425      5427      5422      5425      5428      5426      5425      5427
      5426      5425      5428      5427      5425      5428      5425      5428      5429
      5425      5428      5430      5425      5428      5431      5429      5428      5430
      5429      5428      5431      5430      5428      5431      5433      5432      5436
      5433      5432      5440      5433      5432      5444      5436      5432      5440
      5436      5432      5444      5440      5432      5444      5432      5433      5434
      5432      5433      5435      5432      5433      5448      5434      5433      5435
      5434      5433      5448      5435      5433      5448      5432      5436      5437
      5432      5436      5438      5432      5436      5439      5437      5436      5438
      5437      5436      5439      5438      5436      5439      5432      5440      5441
      5432      5440      5442      5432      5440      5443      5441      5440      5442
      5441      5440      5443      5442      5440      5443      5432      5444      5445
      5432      5444      5446      5432      5444      5447      5445      5444      5446
      5445      5444      5447      5446      5444      5447      5433      5448      5449
      5433      5448      5450      5433      5448      5454      5449      5448      5450
      5449      5448      5454      5450      5448      5454      5452      5451      5453
      5452      5451      5454      5452      5451      5455      5453      5451      5454
      5453      5451      5455      5454      5451      5455      5448      5454      5451
      5451      5455      5456      5455      5456      5457      5455      5456      5458
      5455      5456      5459      5457      5456      5458      5457      5456      5459
      5458      5456      5459      5456      5459      5460      5456      5459      5461
      5456      5459      5467      5460      5459      5461      5460      5459      5467
      5461      5459      5467      5459      5461      5462      5461      5462      5463
      5461      5462      5464      5463      5462      5464      5462      5464      5465
      5462      5464      5466      5462      5464      5476      5465      5464      5466
      5465      5464      5476      5466      5464      5476      5459      5467      5468
      5459      5467      5469      5459      5467      5470      5468      5467      5469
      5468      5467      5470      5469      5467      5470      5467      5470      5471
      5470      5471      5472      5470      5471      5473      5472      5471      5473
      5471      5473      5474      5471      5473      5475      5471      5473      5523
      5474      5473      5475      5474      5473      5523      5475      5473      5523
      5464      5476      5477      5464      5476      5478      5464      5476      5479
      5477      5476      5478      5477      5476      5479      5478      5476      5479
      5476      5479      5480      5476      5479      5481      5476      5479      5482
      5480      5479      5481      5480      5479      5482      5481      5479      5482
      5479      5482      5483      5479      5482      5484      5479      5482      5485
      5483      5482      5484      5483      5482      5485      5484      5482      5485
      5482      5485      5486      5482      5485      5487      5482      5485      5488
      5486      5485      5487      5486      5485      5488      5487      5485      5488
      5485      5488      5489      5485      5488      5490      5485      5488      5491
      5489      5488      5490      5489      5488      5491      5490      5488      5491
      5488      5491      5492      5488      5491      5493      5488      5491      5494
      5492      5491      5493      5492      5491      5494      5493      5491      5494
      5491      5494      5495      5491      5494      5496      5495      5494      5496
      5494      5496      5497      5494      5496      5498      5497      5496      5498
      5496      5498      5499      5496      5498      5500      5496      5498      5501
      5499      5498      5500      5499      5498      5501      5500      5498      5501
      5498      5501      5502      5498      5501      5503      5498      5501      5504
      5502      5501      5503      5502      5501      5504      5503      5501      5504
      5501      5504      5505      5501      5504      5506      5501      5504      5507
      5505      5504      5506      5505      5504      5507      5506      5504      5507
      5504      5507      5508      5504      5507      5509      5504      5507      5510
      5508      5507      5509      5508      5507      5510      5509      5507      5510
      5507      5510      5511      5507      5510      5512      5507      5510      5513
      5511      5510      5512      5511      5510      5513      5512      5510      5513
      5510      5513      5514      5510      5513      5515      5510      5513      5516
      5514      5513      5515      5514      5513      5516      5515      5513      5516
      5513      5516      5517      5513      5516      5518      5513      5516      5519
      5517      5516      5518      5517      5516      5519      5518      5516      5519
      5516      5519      5520      5516      5519      5521      5516      5519      5522
      5520      5519      5521      5520      5519      5522      5521      5519      5522
      5473      5523      5524      5473      5523      5525      5473      5523      5526
      5524      5523      5525      5524      5523      5526      5525      5523      5526
      5523      5526      5527      5523      5526      5528      5523      5526      5529
      5527      5526      5528      5527      5526      5529      5528      5526      5529
      5526      5529      5530      5526      5529      5531      5526      5529      5532
      5530      5529      5531      5530      5529      5532      5531      5529      5532
      5529      5532      5533      5529      5532      5534      5529      5532      5535
      5533      5532      5534      5533      5532      5535      5534      5532      5535
      5532      5535      5536      5532      5535      5537      5532      5535      5538
      5536      5535      5537      5536      5535      5538      5537      5535      5538
      5535      5538      5539      5535      5538      5540      5535      5538      5541
      5539      5538      5540      5539      5538      5541      5540      5538      5541
      5538      5541      5542      5538      5541      5543      5538      5541      5544
      5542      5541      5543      5542      5541      5544      5543      5541      5544
      5541      5544      5545      5541      5544      5546      5541      5544      5547
      5545      5544      5546      5545      5544      5547      5546      5544      5547
      5544      5547      5548      5544      5547      5549      5544      5547      5550
      5548      5547      5549      5548      5547      5550      5549      5547      5550
      5547      5550      5551      5547      5550      5552      5547      5550      5553
      5551      5550      5552      5551      5550      5553      5552      5550      5553
      5550      5553      5554      5550      5553      5555      5550      5553      5556
      5554      5553      5555      5554      5553      5556      5555      5553      5556
      5553      5556      5557      5553      5556      5558      5553      5556      5559
      5557      5556      5558      5557      5556      5559      5558      5556      5559
      5556      5559      5560      5556      5559      5561      5556      5559      5562
      5560      5559      5561      5560      5559      5562      5561      5559      5562
      5559      5562      5563      5559      5562      5564      5559      5562      5565
      5563      5562      5564      5563      5562      5565      5564      5562      5565
      5567      5566      5570      5567      5566      5574      5567      5566      5578
      5570      5566      5574      5570      5566      5578      5574      5566      5578
      5566      5567      5568      5566      5567      5569      5566      5567      5582
      5568      5567      5569      5568      5567      5582      5569      5567      5582
      5566      5570      5571      5566      5570      5572      5566      5570      5573
      5571      5570      5572      5571      5570      5573      5572      5570      5573
      5566      5574      5575      5566      5574      5576      5566      5574      5577
      5575      5574      5576      5575      5574      5577      5576      5574      5577
      5566      5578      5579      5566      5578      5580      5566      5578      5581
      5579      5578      5580      5579      5578      5581      5580      5578      5581
      5567      5582      5583      5567      5582      5584      5567      5582      5588
      5583      5582      5584      5583      5582      5588      5584      5582      5588
      5586      5585      5587      5586      5585      5588      5586      5585      5589
      5587      5585      5588      5587      5585      5589      5588      5585      5589
      5582      5588      5585      5585      5589      5590      5589      5590      5591
      5589      5590      5592      5589      5590      5593      5591      5590      5592
      5591      5590      5593      5592      5590      5593      5590      5593      5594
      5590      5593      5595      5590      5593      5601      5594      5593      5595
      5594      5593      5601      5595      5593      5601      5593      5595      5596
      5595      5596      5597      5595      5596      5598      5597      5596      5598
      5596      5598      5599      5596      5598      5600      5596      5598      5610
      5599      5598      5600      5599      5598      5610      5600      5598      5610
      5593      5601      5602      5593      5601      5603      5593      5601      5604
      5602      5601      5603      5602      5601      5604      5603      5601      5604
      5601      5604      5605      5604      5605      5606      5604      5605      5607
      5606      5605      5607      5605      5607      5608      5605      5607      5609
      5605      5607      5657      5608      5607      5609      5608      5607      5657
      5609      5607      5657      5598      5610      5611      5598      5610      5612
      5598      5610      5613      5611      5610      5612      5611      5610      5613
      5612      5610      5613      5610      5613      5614      5610      5613      5615
      5610      5613      5616      5614      5613      5615      5614      5613      5616
      5615      5613      5616      5613      5616      5617      5613      5616      5618
      5613      5616      5619      5617      5616      5618      5617      5616      5619
      5618      5616      5619      5616      5619      5620      5616      5619      5621
      5616      5619      5622      5620      5619      5621      5620      5619      5622
      5621      5619      5622      5619      5622      5623      5619      5622      5624
      5619      5622      5625      5623      5622      5624      5623      5622      5625
      5624      5622      5625      5622      5625      5626      5622      5625      5627
      5622      5625      5628      5626      5625      5627      5626      5625      5628
      5627      5625      5628      5625      5628      5629      5625      5628      5630
      5629      5628      5630      5628      5630      5631      5628      5630      5632
      5631      5630      5632      5630      5632      5633      5630      5632      5634
      5630      5632      5635      5633      5632      5634      5633      5632      5635
      5634      5632      5635      5632      5635      5636      5632      5635      5637
      5632      5635      5638      5636      5635      5637      5636      5635      5638
      5637      5635      5638      5635      5638      5639      5635      5638      5640
      5635      5638      5641      5639      5638      5640      5639      5638      5641
      5640      5638      5641      5638      5641      5642      5638      5641      5643
      5638      5641      5644      5642      5641      5643      5642      5641      5644
      5643      5641      5644      5641      5644      5645      5641      5644      5646
      5641      5644      5647      5645      5644      5646      5645      5644      5647
      5646      5644      5647      5644      5647      5648      5644      5647      5649
      5644      5647      5650      5648      5647      5649      5648      5647      5650
      5649      5647      5650      5647      5650      5651      5647      5650      5652
      5647      5650      5653      5651      5650      5652      5651      5650      5653
      5652      5650      5653      5650      5653      5654      5650      5653      5655
      5650      5653      5656      5654      5653      5655      5654      5653      5656
      5655      5653      5656      5607      5657      5658      5607      5657      5659
      5607      5657      5660      5658      5657      5659      5658      5657      5660
      5659      5657      5660      5657      5660      5661      5657      5660      5662
      5657      5660      5663      5661      5660      5662      5661      5660      5663
      5662      5660      5663      5660      5663      5664      5660      5663      5665
      5660      5663      5666      5664      5663      5665      5664      5663      5666
      5665      5663      5666      5663      5666      5667      5663      5666      5668
      5663      5666      5669      5667      5666      5668      5667      5666      5669
      5668      5666      5669      5666      5669      5670      5666      5669      5671
      5666      5669      5672      5670      5669      5671      5670      5669      5672
      5671      5669      5672      5669      5672      5673      5669      5672      5674
      5669      5672      5675      5673      5672      5674      5673      5672      5675
      5674      5672      5675      5672      5675      5676      5672      5675      5677
      5672      5675      5678      5676      5675      5677      5676      5675      5678
      5677      5675      5678      5675      5678      5679      5675      5678      5680
      5675      5678      5681      5679      5678      5680      5679      5678      5681
      5680      5678      5681      5678      5681      5682      5678      5681      5683
      5678      5681      5684      5682      5681      5683      5682      5681      5684
      5683      5681      5684      5681      5684      5685      5681      5684      5686
      5681      5684      5687      5685      5684      5686      5685      5684      5687
      5686      5684      5687      5684      5687      5688      5684      5687      5689
      5684      5687      5690      5688      5687      5689      5688      5687      5690
      5689      5687      5690      5687      5690      5691      5687      5690      5692
      5687      5690      5693      5691      5690      5692      5691      5690      5693
      5692      5690      5693      5690      5693      5694      5690      5693      5695
      5690      5693      5696      5694      5693      5695      5694      5693      5696
      5695      5693      5696      5693      5696      5697      5693      5696      5698
      5693      5696      5699      5697      5696      5698      5697      5696      5699
      5698      5696      5699      5701      5700      5704      5701      5700      5708
      5701      5700      5712      5704      5700      5708      5704      5700      5712
      5708      5700      5712      5700      5701      5702      5700      5701      5703
      5700      5701      5716      5702      5701      5703      5702      5701      5716
      5703      5701      5716      5700      5704      5705      5700      5704      5706
      5700      5704      5707      5705      5704      5706      5705      5704      5707
      5706      5704      5707      5700      5708      5709      5700      5708      5710
      5700      5708      5711      5709      5708      5710      5709      5708      5711
      5710      5708      5711      5700      5712      5713      5700      5712      5714
      5700      5712      5715      5713      5712      5714      5713      5712      5715
      5714      5712      5715      5701      5716      5717      5701      5716      5718
      5701      5716      5722      5717      5716      5718      5717      5716      5722
      5718      5716      5722      5720      5719      5721      5720      5719      5722
      5720      5719      5723      5721      5719      5722      5721      5719      5723
      5722      5719      5723      5716      5722      5719      5719      5723      5724
      5723      5724      5725      5723      5724      5726      5723      5724      5727
      5725      5724      5726      5725      5724      5727      5726      5724      5727
      5724      5727      5728      5724      5727      5729      5724      5727      5735
      5728      5727      5729      5728      5727      5735      5729      5727      5735
      5727      5729      5730      5729      5730      5731      5729      5730      5732
      5731      5730      5732      5730      5732      5733      5730      5732      5734
      5730      5732      5744      5733      5732      5734      5733      5732      5744
      5734      5732      5744      5727      5735      5736      5727      5735      5737
      5727      5735      5738      5736      5735      5737      5736      5735      5738
      5737      5735      5738      5735      5738      5739      5738      5739      5740
      5738      5739      5741      5740      5739      5741      5739      5741      5742
      5739      5741      5743      5739      5741      5791      5742      5741      5743
      5742      5741      5791      5743      5741      5791      5732      5744      5745
      5732      5744      5746      5732      5744      5747      5745      5744      5746
      5745      5744      5747      5746      5744      5747      5744      5747      5748
      5744      5747      5749      5744      5747      5750      5748      5747      5749
      5748      5747      5750      5749      5747      5750      5747      5750      5751
      5747      5750      5752      5747      5750      5753      5751      5750      5752
      5751      5750      5753      5752      5750      5753      5750      5753      5754
      5750      5753      5755      5750      5753      5756      5754      5753      5755
      5754      5753      5756      5755      5753      5756      5753      5756      5757
      5753      5756      5758      5753      5756      5759      5757      5756      5758
      5757      5756      5759      5758      5756      5759      5756      5759      5760
      5756      5759      5761      5756      5759      5762      5760      5759      5761
      5760      5759      5762      5761      5759      5762      5759      5762      5763
      5759      5762      5764      5763      5762      5764      5762      5764      5765
      5762      5764      5766      5765      5764      5766      5764      5766      5767
      5764      5766      5768      5764      5766      5769      5767      5766      5768
      5767      5766      5769      5768      5766      5769      5766      5769      5770
      5766      5769      5771      5766      5769      5772      5770      5769      5771
      5770      5769      5772      5771      5769      5772      5769      5772      5773
      5769      5772      5774      5769      5772      5775      5773      5772      5774
      5773      5772      5775      5774      5772      5775      5772      5775      5776
      5772      5775      5777      5772      5775      5778      5776      5775      5777
      5776      5775      5778      5777      5775      5778      5775      5778      5779
      5775      5778      5780      5775      5778      5781      5779      5778      5780
      5779      5778      5781      5780      5778      5781      5778      5781      5782
      5778      5781      5783      5778      5781      5784      5782      5781      5783
      5782      5781      5784      5783      5781      5784      5781      5784      5785
      5781      5784      5786      5781      5784      5787      5785      5784      5786
      5785      5784      5787      5786      5784      5787      5784      5787      5788
      5784      5787      5789      5784      5787      5790      5788      5787      5789
      5788      5787      5790      5789      5787      5790      5741      5791      5792
      5741      5791      5793      5741      5791      5794      5792      5791      5793
      5792      5791      5794      5793      5791      5794      5791      5794      5795
      5791      5794      5796      5791      5794      5797      5795      5794      5796
      5795      5794      5797      5796      5794      5797      5794      5797      5798
      5794      5797      5799      5794      5797      5800      5798      5797      5799
      5798      5797      5800      5799      5797      5800      5797      5800      5801
      5797      5800      5802      5797      5800      5803      5801      5800      5802
      5801      5800      5803      5802      5800      5803      5800      5803      5804
      5800      5803      5805      5800      5803      5806      5804      5803      5805
      5804      5803      5806      5805      5803      5806      5803      5806      5807
      5803      5806      5808      5803      5806      5809      5807      5806      5808
      5807      5806      5809      5808      5806      5809      5806      5809      5810
      5806      5809      5811      5806      5809      5812      5810      5809      5811
      5810      5809      5812      5811      5809      5812      5809      5812      5813
      5809      5812      5814      5809      5812      5815      5813      5812      5814
      5813      5812      5815      5814      5812      5815      5812      5815      5816
      5812      5815      5817      5812      5815      5818      5816      5815      5817
      5816      5815      5818      5817      5815      5818      5815      5818      5819
      5815      5818      5820      5815      5818      5821      5819      5818      5820
      5819      5818      5821      5820      5818      5821      5818      5821      5822
      5818      5821      5823      5818      5821      5824      5822      5821      5823
      5822      5821      5824      5823      5821      5824      5821      5824      5825
      5821      5824      5826      5821      5824      5827      5825      5824      5826
      5825      5824      5827      5826      5824      5827      5824      5827      5828
      5824      5827      5829      5824      5827      5830      5828      5827      5829
      5828      5827      5830      5829      5827      5830      5827      5830      5831
      5827      5830      5832      5827      5830      5833      5831      5830      5832
      5831      5830      5833      5832      5830      5833      5835      5834      5838
      5835      5834      5842      5835      5834      5846      5838      5834      5842
      5838      5834      5846      5842      5834      5846      5834      5835      5836
      5834      5835      5837      5834      5835      5850      5836      5835      5837
      5836      5835      5850      5837      5835      5850      5834      5838      5839
      5834      5838      5840      5834      5838      5841      5839      5838      5840
      5839      5838      5841      5840      5838      5841      5834      5842      5843
      5834      5842      5844      5834      5842      5845      5843      5842      5844
      5843      5842      5845      5844      5842      5845      5834      5846      5847
      5834      5846      5848      5834      5846      5849      5847      5846      5848
      5847      5846      5849      5848      5846      5849      5835      5850      5851
      5835      5850      5852      5835      5850      5856      5851      5850      5852
      5851      5850      5856      5852      5850      5856      5854      5853      5855
      5854      5853      5856      5854      5853      5857      5855      5853      5856
      5855      5853      5857      5856      5853      5857      5850      5856      5853
      5853      5857      5858      5857      5858      5859      5857      5858      5860
      5857      5858      5861      5859      5858      5860      5859      5858      5861
      5860      5858      5861      5858      5861      5862      5858      5861      5863
      5858      5861      5869      5862      5861      5863      5862      5861      5869
      5863      5861      5869      5861      5863      5864      5863      5864      5865
      5863      5864      5866      5865      5864      5866      5864      5866      5867
      5864      5866      5868      5864      5866      5878      5867      5866      5868
      5867      5866      5878      5868      5866      5878      5861      5869      5870
      5861      5869      5871      5861      5869      5872      5870      5869      5871
      5870      5869      5872      5871      5869      5872      5869      5872      5873
      5872      5873      5874      5872      5873      5875      5874      5873      5875
      5873      5875      5876      5873      5875      5877      5873      5875      5925
      5876      5875      5877      5876      5875      5925      5877      5875      5925
      5866      5878      5879      5866      5878      5880      5866      5878      5881
      5879      5878      5880      5879      5878      5881      5880      5878      5881
      5878      5881      5882      5878      5881      5883      5878      5881      5884
      5882      5881      5883      5882      5881      5884      5883      5881      5884
      5881      5884      5885      5881      5884      5886      5881      5884      5887
      5885      5884      5886      5885      5884      5887      5886      5884      5887
      5884      5887      5888      5884      5887      5889      5884      5887      5890
      5888      5887      5889      5888      5887      5890      5889      5887      5890
      5887      5890      5891      5887      5890      5892      5887      5890      5893
      5891      5890      5892      5891      5890      5893      5892      5890      5893
      5890      5893      5894      5890      5893      5895      5890      5893      5896
      5894      5893      5895      5894      5893      5896      5895      5893      5896
      5893      5896      5897      5893      5896      5898      5897      5896      5898
      5896      5898      5899      5896      5898      5900      5899      5898      5900
      5898      5900      5901      5898      5900      5902      5898      5900      5903
      5901      5900      5902      5901      5900      5903      5902      5900      5903
      5900      5903      5904      5900      5903      5905      5900      5903      5906
      5904      5903      5905      5904      5903      5906      5905      5903      5906
      5903      5906      5907      5903      5906      5908      5903      5906      5909
      5907      5906      5908      5907      5906      5909      5908      5906      5909
      5906      5909      5910      5906      5909      5911      5906      5909      5912
      5910      5909      5911      5910      5909      5912      5911      5909      5912
      5909      5912      5913      5909      5912      5914      5909      5912      5915
      5913      5912      5914      5913      5912      5915      5914      5912      5915
      5912      5915      5916      5912      5915      5917      5912      5915      5918
      5916      5915      5917      5916      5915      5918      5917      5915      5918
      5915      5918      5919      5915      5918      5920      5915      5918      5921
      5919      5918      5920      5919      5918      5921      5920      5918      5921
      5918      5921      5922      5918      5921      5923      5918      5921      5924
      5922      5921      5923      5922      5921      5924      5923      5921      5924
      5875      5925      5926      5875      5925      5927      5875      5925      5928
      5926      5925      5927      5926      5925      5928      5927      5925      5928
      5925      5928      5929      5925      5928      5930      5925      5928      5931
      5929      5928      5930      5929      5928      5931      5930      5928      5931
      5928      5931      5932      5928      5931      5933      5928      5931      5934
      5932      5931      5933      5932      5931      5934      5933      5931      5934
      5931      5934      5935      5931      5934      5936      5931      5934      5937
      5935      5934      5936      5935      5934      5937      5936      5934      5937
      5934      5937      5938      5934      5937      5939      5934      5937      5940
      5938      5937      5939      5938      5937      5940      5939      5937      5940
      5937      5940      5941      5937      5940      5942      5937      5940      5943
      5941      5940      5942      5941      5940      5943      5942      5940      5943
      5940      5943      5944      5940      5943      5945      5940      5943      5946
      5944      5943      5945      5944      5943      5946      5945      5943      5946
      5943      5946      5947      5943      5946      5948      5943      5946      5949
      5947      5946      5948      5947      5946      5949      5948      5946      5949
      5946      5949      5950      5946      5949      5951      5946      5949      5952
      5950      5949      5951      5950      5949      5952      5951      5949      5952
      5949      5952      5953      5949      5952      5954      5949      5952      5955
      5953      5952      5954      5953      5952      5955      5954      5952      5955
      5952      5955      5956      5952      5955      5957      5952      5955      5958
      5956      5955      5957      5956      5955      5958      5957      5955      5958
      5955      5958      5959      5955      5958      5960      5955      5958      5961
      5959      5958      5960      5959      5958      5961      5960      5958      5961
      5958      5961      5962      5958      5961      5963      5958      5961      5964
      5962      5961      5963      5962      5961      5964      5963      5961      5964
      5961      5964      5965      5961      5964      5966      5961      5964      5967
      5965      5964      5966      5965      5964      5967      5966      5964      5967
      5969      5968      5972      5969      5968      5976      5969      5968      5980
      5972      5968      5976      5972      5968      5980      5976      5968      5980
      5968      5969      5970      5968      5969      5971      5968      5969      5984
      5970      5969      5971      5970      5969      5984      5971      5969      5984
      5968      5972      5973      5968      5972      5974      5968      5972      5975
      5973      5972      5974      5973      5972      5975      5974      5972      5975
      5968      5976      5977      5968      5976      5978      5968      5976      5979
      5977      5976      5978      5977      5976      5979      5978      5976      5979
      5968      5980      5981      5968      5980      5982      5968      5980      5983
      5981      5980      5982      5981      5980      5983      5982      5980      5983
      5969      5984      5985      5969      5984      5986      5969      5984      5990
      5985      5984      5986      5985      5984      5990      5986      5984      5990
      5988      5987      5989      5988      5987      5990      5988      5987      5991
      5989      5987      5990      5989      5987      5991      5990      5987      5991
      5984      5990      5987      5987      5991      5992      5991      5992      5993
      5991      5992      5994      5991      5992      5995      5993      5992      5994
      5993      5992      5995      5994      5992      5995      5992      5995      5996
      5992      5995      5997      5992      5995      6003      5996      5995      5997
      5996      5995      6003      5997      5995      6003      5995      5997      5998
      5997      5998      5999      5997      5998      6000      5999      5998      6000
      5998      6000      6001      5998      6000      6002      5998      6000      6012
      6001      6000      6002      6001      6000      6012      6002      6000      6012
      5995      6003      6004      5995      6003      6005      5995      6003      6006
      6004      6003      6005      6004      6003      6006      6005      6003      6006
      6003      6006      6007      6006      6007      6008      6006      6007      6009
      6008      6007      6009      6007      6009      6010      6007      6009      6011
      6007      6009      6059      6010      6009      6011      6010      6009      6059
      6011      6009      6059      6000      6012      6013      6000      6012      6014
      6000      6012      6015      6013      6012      6014      6013      6012      6015
      6014      6012      6015      6012      6015      6016      6012      6015      6017
      6012      6015      6018      6016      6015      6017      6016      6015      6018
      6017      6015      6018      6015      6018      6019      6015      6018      6020
      6015      6018      6021      6019      6018      6020      6019      6018      6021
      6020      6018      6021      6018      6021      6022      6018      6021      6023
      6018      6021      6024      6022      6021      6023      6022      6021      6024
      6023      6021      6024      6021      6024      6025      6021      6024      6026
      6021      6024      6027      6025      6024      6026      6025      6024      6027
      6026      6024      6027      6024      6027      6028      6024      6027      6029
      6024      6027      6030      6028      6027      6029      6028      6027      6030
      6029      6027      6030      6027      6030      6031      6027      6030      6032
      6031      6030      6032      6030      6032      6033      6030      6032      6034
      6033      6032      6034      6032      6034      6035      6032      6034      6036
      6032      6034      6037      6035      6034      6036      6035      6034      6037
      6036      6034      6037      6034      6037      6038      6034      6037      6039
      6034      6037      6040      6038      6037      6039      6038      6037      6040
      6039      6037      6040      6037      6040      6041      6037      6040      6042
      6037      6040      6043      6041      6040      6042      6041      6040      6043
      6042      6040      6043      6040      6043      6044      6040      6043      6045
      6040      6043      6046      6044      6043      6045      6044      6043      6046
      6045      6043      6046      6043      6046      6047      6043      6046      6048
      6043      6046      6049      6047      6046      6048      6047      6046      6049
      6048      6046      6049      6046      6049      6050      6046      6049      6051
      6046      6049      6052      6050      6049      6051      6050      6049      6052
      6051      6049      6052      6049      6052      6053      6049      6052      6054
      6049      6052      6055      6053      6052      6054      6053      6052      6055
      6054      6052      6055      6052      6055      6056      6052      6055      6057
      6052      6055      6058      6056      6055      6057      6056      6055      6058
      6057      6055      6058      6009      6059      6060      6009      6059      6061
      6009      6059      6062      6060      6059      6061      6060      6059      6062
      6061      6059      6062      6059      6062      6063      6059      6062      6064
      6059      6062      6065      6063      6062      6064      6063      6062      6065
      6064      6062      6065      6062      6065      6066      6062      6065      6067
      6062      6065      6068      6066      6065      6067      6066      6065      6068
      6067      6065      6068      6065      6068      6069      6065      6068      6070
      6065      6068      6071      6069      6068      6070      6069      6068      6071
      6070      6068      6071      6068      6071      6072      6068      6071      6073
      6068      6071      6074      6072      6071      6073      6072      6071      6074
      6073      6071      6074      6071      6074      6075      6071      6074      6076
      6071      6074      6077      6075      6074      6076      6075      6074      6077
      6076      6074      6077      6074      6077      6078      6074      6077      6079
      6074      6077      6080      6078      6077      6079      6078      6077      6080
      6079      6077      6080      6077      6080      6081      6077      6080      6082
      6077      6080      6083      6081      6080      6082      6081      6080      6083
      6082      6080      6083      6080      6083      6084      6080      6083      6085
      6080      6083      6086      6084      6083      6085      6084      6083      6086
      6085      6083      6086      6083      6086      6087      6083      6086      6088
      6083      6086      6089      6087      6086      6088      6087      6086      6089
      6088      6086      6089      6086      6089      6090      6086      6089      6091
      6086      6089      6092      6090      6089      6091      6090      6089      6092
      6091      6089      6092      6089      6092      6093      6089      6092      6094
      6089      6092      6095      6093      6092      6094      6093      6092      6095
      6094      6092      6095      6092      6095      6096      6092      6095      6097
      6092      6095      6098      6096      6095      6097      6096      6095      6098
      6097      6095      6098      6095      6098      6099      6095      6098      6100
      6095      6098      6101      6099      6098      6100      6099      6098      6101
      6100      6098      6101      6103      6102      6106      6103      6102      6110
      6103      6102      6114      6106      6102      6110      6106      6102      6114
      6110      6102      6114      6102      6103      6104      6102      6103      6105
      6102      6103      6118      6104      6103      6105      6104      6103      6118
      6105      6103      6118      6102      6106      6107      6102      6106      6108
      6102      6106      6109      6107      6106      6108      6107      6106      6109
      6108      6106      6109      6102      6110      6111      6102      6110      6112
      6102      6110      6113      6111      6110      6112      6111      6110      6113
      6112      6110      6113      6102      6114      6115      6102      6114      6116
      6102      6114      6117      6115      6114      6116      6115      6114      6117
      6116      6114      6117      6103      6118      6119      6103      6118      6120
      6103      6118      6124      6119      6118      6120      6119      6118      6124
      6120      6118      6124      6122      6121      6123      6122      6121      6124
      6122      6121      6125      6123      6121      6124      6123      6121      6125
      6124      6121      6125      6118      6124      6121      6121      6125      6126
      6125      6126      6127      6125      6126      6128      6125      6126      6129
      6127      6126      6128      6127      6126      6129      6128      6126      6129
      6126      6129      6130      6126      6129      6131      6126      6129      6137
      6130      6129      6131      6130      6129      6137      6131      6129      6137
      6129      6131      6132      6131      6132      6133      6131      6132      6134
      6133      6132      6134      6132      6134      6135      6132      6134      6136
      6132      6134      6146      6135      6134      6136      6135      6134      6146
      6136      6134      6146      6129      6137      6138      6129      6137      6139
      6129      6137      6140      6138      6137      6139      6138      6137      6140
      6139      6137      6140      6137      6140      6141      6140      6141      6142
      6140      6141      6143      6142      6141      6143      6141      6143      6144
      6141      6143      6145      6141      6143      6193      6144      6143      6145
      6144      6143      6193      6145      6143      6193      6134      6146      6147
      6134      6146      6148      6134      6146      6149      6147      6146      6148
      6147      6146      6149      6148      6146      6149      6146      6149      6150
      6146      6149      6151      6146      6149      6152      6150      6149      6151
      6150      6149      6152      6151      6149      6152      6149      6152      6153
      6149      6152      6154      6149      6152      6155      6153      6152      6154
      6153      6152      6155      6154      6152      6155      6152      6155      6156
      6152      6155      6157      6152      6155      6158      6156      6155      6157
      6156      6155      6158      6157      6155      6158      6155      6158      6159
      6155      6158      6160      6155      6158      6161      6159      6158      6160
      6159      6158      6161      6160      6158      6161      6158      6161      6162
      6158      6161      6163      6158      6161      6164      6162      6161      6163
      6162      6161      6164      6163      6161      6164      6161      6164      6165
      6161      6164      6166      6165      6164      6166      6164      6166      6167
      6164      6166      6168      6167      6166      6168      6166      6168      6169
      6166      6168      6170      6166      6168      6171      6169      6168      6170
      6169      6168      6171      6170      6168      6171      6168      6171      6172
      6168      6171      6173      6168      6171      6174      6172      6171      6173
      6172      6171      6174      6173      6171      6174      6171      6174      6175
      6171      6174      6176      6171      6174      6177      6175      6174      6176
      6175      6174      6177      6176      6174      6177      6174      6177      6178
      6174      6177      6179      6174      6177      6180      6178      6177      6179
      6178      6177      6180      6179      6177      6180      6177      6180      6181
      6177      6180      6182      6177      6180      6183      6181      6180      6182
      6181      6180      6183      6182      6180      6183      6180      6183      6184
      6180      6183      6185      6180      6183      6186      6184      6183      6185
      6184      6183      6186      6185      6183      6186      6183      6186      6187
      6183      6186      6188      6183      6186      6189      6187      6186      6188
      6187      6186      6189      6188      6186      6189      6186      6189      6190
      6186      6189      6191      6186      6189      6192      6190      6189      6191
      6190      6189      6192      6191      6189      6192      6143      6193      6194
      6143      6193      6195      6143      6193      6196      6194      6193      6195
      6194      6193      6196      6195      6193      6196      6193      6196      6197
      6193      6196      6198      6193      6196      6199      6197      6196      6198
      6197      6196      6199      6198      6196      6199      6196      6199      6200
      6196      6199      6201      6196      6199      6202      6200      6199      6201
      6200      6199      6202      6201      6199      6202      6199      6202      6203
      6199      6202      6204      6199      6202      6205      6203      6202      6204
      6203      6202      6205      6204      6202      6205      6202      6205      6206
      6202      6205      6207      6202      6205      6208      6206      6205      6207
      6206      6205      6208      6207      6205      6208      6205      6208      6209
      6205      6208      6210      6205      6208      6211      6209      6208      6210
      6209      6208      6211      6210      6208      6211      6208      6211      6212
      6208      6211      6213      6208      6211      6214      6212      6211      6213
      6212      6211      6214      6213      6211      6214      6211      6214      6215
      6211      6214      6216      6211      6214      6217      6215      6214      6216
      6215      6214      6217      6216      6214      6217      6214      6217      6218
      6214      6217      6219      6214      6217      6220      6218      6217      6219
      6218      6217      6220      6219      6217      6220      6217      6220      6221
      6217      6220      6222      6217      6220      6223      6221      6220      6222
      6221      6220      6223      6222      6220      6223      6220      6223      6224
      6220      6223      6225      6220      6223      6226      6224      6223      6225
      6224      6223      6226      6225      6223      6226      6223      6226      6227
      6223      6226      6228      6223      6226      6229      6227      6226      6228
      6227      6226      6229      6228      6226      6229      6226      6229      6230
      6226      6229      6231      6226      6229      6232      6230      6229      6231
      6230      6229      6232      6231      6229      6232      6229      6232      6233
      6229      6232      6234      6229      6232      6235      6233      6232      6234
      6233      6232      6235      6234      6232      6235      6237      6236      6240
      6237      6236      6244      6237      6236      6248      6240      6236      6244
      6240      6236      6248      6244      6236      6248      6236      6237      6238
      6236      6237      6239      6236      6237      6252      6238      6237      6239
      6238      6237      6252      6239      6237      6252      6236      6240      6241
      6236      6240      6242      6236      6240      6243      6241      6240      6242
      6241      6240      6243      6242      6240      6243      6236      6244      6245
      6236      6244      6246      6236      6244      6247      6245      6244      6246
      6245      6244      6247      6246      6244      6247      6236      6248      6249
      6236      6248      6250      6236      6248      6251      6249      6248      6250
      6249      6248      6251      6250      6248      6251      6237      6252      6253
      6237      6252      6254      6237      6252      6258      6253      6252      6254
      6253      6252      6258      6254      6252      6258      6256      6255      6257
      6256      6255      6258      6256      6255      6259      6257      6255      6258
      6257      6255      6259      6258      6255      6259      6252      6258      6255
      6255      6259      6260      6259      6260      6261      6259      6260      6262
      6259      6260      6263      6261      6260      6262      6261      6260      6263
      6262      6260      6263      6260      6263      6264      6260      6263      6265
      6260      6263      6271      6264      6263      6265      6264      6263      6271
      6265      6263      6271      6263      6265      6266      6265      6266      6267
      6265      6266      6268      6267      6266      6268      6266      6268      6269
      6266      6268      6270      6266      6268      6280      6269      6268      6270
      6269      6268      6280      6270      6268      6280      6263      6271      6272
      6263      6271      6273      6263      6271      6274      6272      6271      6273
      6272      6271      6274      6273      6271      6274      6271      6274      6275
      6274      6275      6276      6274      6275      6277      6276      6275      6277
      6275      6277      6278      6275      6277      6279      6275      6277      6327
      6278      6277      6279      6278      6277      6327      6279      6277      6327
      6268      6280      6281      6268      6280      6282      6268      6280      6283
      6281      6280      6282      6281      6280      6283      6282      6280      6283
      6280      6283      6284      6280      6283      6285      6280      6283      6286
      6284      6283      6285      6284      6283      6286      6285      6283      6286
      6283      6286      6287      6283      6286      6288      6283      6286      6289
      6287      6286      6288      6287      6286      6289      6288      6286      6289
      6286      6289      6290      6286      6289      6291      6286      6289      6292
      6290      6289      6291      6290      6289      6292      6291      6289      6292
      6289      6292      6293      6289      6292      6294      6289      6292      6295
      6293      6292      6294      6293      6292      6295      6294      6292      6295
      6292      6295      6296      6292      6295      6297      6292      6295      6298
      6296      6295      6297      6296      6295      6298      6297      6295      6298
      6295      6298      6299      6295      6298      6300      6299      6298      6300
      6298      6300      6301      6298      6300      6302      6301      6300      6302
      6300      6302      6303      6300      6302      6304      6300      6302      6305
      6303      6302      6304      6303      6302      6305      6304      6302      6305
      6302      6305      6306      6302      6305      6307      6302      6305      6308
      6306      6305      6307      6306      6305      6308      6307      6305      6308
      6305      6308      6309      6305      6308      6310      6305      6308      6311
      6309      6308      6310      6309      6308      6311      6310      6308      6311
      6308      6311      6312      6308      6311      6313      6308      6311      6314
      6312      6311      6313      6312      6311      6314      6313      6311      6314
      6311      6314      6315      6311      6314      6316      6311      6314      6317
      6315      6314      6316      6315      6314      6317      6316      6314      6317
      6314      6317      6318      6314      6317      6319      6314      6317      6320
      6318      6317      6319      6318      6317      6320      6319      6317      6320
      6317      6320      6321      6317      6320      6322      6317      6320      6323
      6321      6320      6322      6321      6320      6323      6322      6320      6323
      6320      6323      6324      6320      6323      6325      6320      6323      6326
      6324      6323      6325      6324      6323      6326      6325      6323      6326
      6277      6327      6328      6277      6327      6329      6277      6327      6330
      6328      6327      6329      6328      6327      6330      6329      6327      6330
      6327      6330      6331      6327      6330      6332      6327      6330      6333
      6331      6330      6332      6331      6330      6333      6332      6330      6333
      6330      6333      6334      6330      6333      6335      6330      6333      6336
      6334      6333      6335      6334      6333      6336      6335      6333      6336
      6333      6336      6337      6333      6336      6338      6333      6336      6339
      6337      6336      6338      6337      6336      6339      6338      6336      6339
      6336      6339      6340      6336      6339      6341      6336      6339      6342
      6340      6339      6341      6340      6339      6342      6341      6339      6342
      6339      6342      6343      6339      6342      6344      6339      6342      6345
      6343      6342      6344      6343      6342      6345      6344      6342      6345
      6342      6345      6346      6342      6345      6347      6342      6345      6348
      6346      6345      6347      6346      6345      6348      6347      6345      6348
      6345      6348      6349      6345      6348      6350      6345      6348      6351
      6349      6348      6350      6349      6348      6351      6350      6348      6351
      6348      6351      6352      6348      6351      6353      6348      6351      6354
      6352      6351      6353      6352      6351      6354      6353      6351      6354
      6351      6354      6355      6351      6354      6356      6351      6354      6357
      6355      6354      6356      6355      6354      6357      6356      6354      6357
      6354      6357      6358      6354      6357      6359      6354      6357      6360
      6358      6357      6359      6358      6357      6360      6359      6357      6360
      6357      6360      6361      6357      6360      6362      6357      6360      6363
      6361      6360      6362      6361      6360      6363      6362      6360      6363
      6360      6363      6364      6360      6363      6365      6360      6363      6366
      6364      6363      6365      6364      6363      6366      6365      6363      6366
      6363      6366      6367      6363      6366      6368      6363      6366      6369
      6367      6366      6368      6367      6366      6369      6368      6366      6369
      6371      6370      6374      6371      6370      6378      6371      6370      6382
      6374      6370      6378      6374      6370      6382      6378      6370      6382
      6370      6371      6372      6370      6371      6373      6370      6371      6386
      6372      6371      6373      6372      6371      6386      6373      6371      6386
      6370      6374      6375      6370      6374      6376      6370      6374      6377
      6375      6374      6376      6375      6374      6377      6376      6374      6377
      6370      6378      6379      6370      6378      6380      6370      6378      6381
      6379      6378      6380      6379      6378      6381      6380      6378      6381
      6370      6382      6383      6370      6382      6384      6370      6382      6385
      6383      6382      6384      6383      6382      6385      6384      6382      6385
      6371      6386      6387      6371      6386      6388      6371      6386      6392
      6387      6386      6388      6387      6386      6392      6388      6386      6392
      6390      6389      6391      6390      6389      6392      6390      6389      6393
      6391      6389      6392      6391      6389      6393      6392      6389      6393
      6386      6392      6389      6389      6393      6394      6393      6394      6395
      6393      6394      6396      6393      6394      6397      6395      6394      6396
      6395      6394      6397      6396      6394      6397      6394      6397      6398
      6394      6397      6399      6394      6397      6405      6398      6397      6399
      6398      6397      6405      6399      6397      6405      6397      6399      6400
      6399      6400      6401      6399      6400      6402      6401      6400      6402
      6400      6402      6403      6400      6402      6404      6400      6402      6414
      6403      6402      6404      6403      6402      6414      6404      6402      6414
      6397      6405      6406      6397      6405      6407      6397      6405      6408
      6406      6405      6407      6406      6405      6408      6407      6405      6408
      6405      6408      6409      6408      6409      6410      6408      6409      6411
      6410      6409      6411      6409      6411      6412      6409      6411      6413
      6409      6411      6461      6412      6411      6413      6412      6411      6461
      6413      6411      6461      6402      6414      6415      6402      6414      6416
      6402      6414      6417      6415      6414      6416      6415      6414      6417
      6416      6414      6417      6414      6417      6418      6414      6417      6419
      6414      6417      6420      6418      6417      6419      6418      6417      6420
      6419      6417      6420      6417      6420      6421      6417      6420      6422
      6417      6420      6423      6421      6420      6422      6421      6420      6423
      6422      6420      6423      6420      6423      6424      6420      6423      6425
      6420      6423      6426      6424      6423      6425      6424      6423      6426
      6425      6423      6426      6423      6426      6427      6423      6426      6428
      6423      6426      6429      6427      6426      6428      6427      6426      6429
      6428      6426      6429      6426      6429      6430      6426      6429      6431
      6426      6429      6432      6430      6429      6431      6430      6429      6432
      6431      6429      6432      6429      6432      6433      6429      6432      6434
      6433      6432      6434      6432      6434      6435      6432      6434      6436
      6435      6434      6436      6434      6436      6437      6434      6436      6438
      6434      6436      6439      6437      6436      6438      6437      6436      6439
      6438      6436      6439      6436      6439      6440      6436      6439      6441
      6436      6439      6442      6440      6439      6441      6440      6439      6442
      6441      6439      6442      6439      6442      6443      6439      6442      6444
      6439      6442      6445      6443      6442      6444      6443      6442      6445
      6444      6442      6445      6442      6445      6446      6442      6445      6447
      6442      6445      6448      6446      6445      6447      6446      6445      6448
      6447      6445      6448      6445      6448      6449      6445      6448      6450
      6445      6448      6451      6449      6448      6450      6449      6448      6451
      6450      6448      6451      6448      6451      6452      6448      6451      6453
      6448      6451      6454      6452      6451      6453      6452      6451      6454
      6453      6451      6454      6451      6454      6455      6451      6454      6456
      6451      6454      6457      6455      6454      6456      6455      6454      6457
      6456      6454      6457      6454      6457      6458      6454      6457      6459
      6454      6457      6460      6458      6457      6459      6458      6457      6460
      6459      6457      6460      6411      6461      6462      6411      6461      6463
      6411      6461      6464      6462      6461      6463      6462      6461      6464
      6463      6461      6464      6461      6464      6465      6461      6464      6466
      6461      6464      6467      6465      6464      6466      6465      6464      6467
      6466      6464      6467      6464      6467      6468      6464      6467      6469
      6464      6467      6470      6468      6467      6469      6468      6467      6470
      6469      6467      6470      6467      6470      6471      6467      6470      6472
      6467      6470      6473      6471      6470      6472      6471      6470      6473
      6472      6470      6473      6470      6473      6474      6470      6473      6475
      6470      6473      6476      6474      6473      6475      6474      6473      6476
      6475      6473      6476      6473      6476      6477      6473      6476      6478
      6473      6476      6479      6477      6476      6478      6477      6476      6479
      6478      6476      6479      6476      6479      6480      6476      6479      6481
      6476      6479      6482      6480      6479      6481      6480      6479      6482
      6481      6479      6482      6479      6482      6483      6479      6482      6484
      6479      6482      6485      6483      6482      6484      6483      6482      6485
      6484      6482      6485      6482      6485      6486      6482      6485      6487
      6482      6485      6488      6486      6485      6487      6486      6485      6488
      6487      6485      6488      6485      6488      6489      6485      6488      6490
      6485      6488      6491      6489      6488      6490      6489      6488      6491
      6490      6488      6491      6488      6491      6492      6488      6491      6493
      6488      6491      6494      6492      6491      6493      6492      6491      6494
      6493      6491      6494      6491      6494      6495      6491      6494      6496
      6491      6494      6497      6495      6494      6496      6495      6494      6497
      6496      6494      6497      6494      6497      6498      6494      6497      6499
      6494      6497      6500      6498      6497      6499      6498      6497      6500
      6499      6497      6500      6497      6500      6501      6497      6500      6502
      6497      6500      6503      6501      6500      6502      6501      6500      6503
      6502      6500      6503      6505      6504      6508      6505      6504      6512
      6505      6504      6516      6508      6504      6512      6508      6504      6516
      6512      6504      6516      6504      6505      6506      6504      6505      6507
      6504      6505      6520      6506      6505      6507      6506      6505      6520
      6507      6505      6520      6504      6508      6509      6504      6508      6510
      6504      6508      6511      6509      6508      6510      6509      6508      6511
      6510      6508      6511      6504      6512      6513      6504      6512      6514
      6504      6512      6515      6513      6512      6514      6513      6512      6515
      6514      6512      6515      6504      6516      6517      6504      6516      6518
      6504      6516      6519      6517      6516      6518      6517      6516      6519
      6518      6516      6519      6505      6520      6521      6505      6520      6522
      6505      6520      6526      6521      6520      6522      6521      6520      6526
      6522      6520      6526      6524      6523      6525      6524      6523      6526
      6524      6523      6527      6525      6523      6526      6525      6523      6527
      6526      6523      6527      6520      6526      6523      6523      6527      6528
      6527      6528      6529      6527      6528      6530      6527      6528      6531
      6529      6528      6530      6529      6528      6531      6530      6528      6531
      6528      6531      6532      6528      6531      6533      6528      6531      6539
      6532      6531      6533      6532      6531      6539      6533      6531      6539
      6531      6533      6534      6533      6534      6535      6533      6534      6536
      6535      6534      6536      6534      6536      6537      6534      6536      6538
      6534      6536      6548      6537      6536      6538      6537      6536      6548
      6538      6536      6548      6531      6539      6540      6531      6539      6541
      6531      6539      6542      6540      6539      6541      6540      6539      6542
      6541      6539      6542      6539      6542      6543      6542      6543      6544
      6542      6543      6545      6544      6543      6545      6543      6545      6546
      6543      6545      6547      6543      6545      6595      6546      6545      6547
      6546      6545      6595      6547      6545      6595      6536      6548      6549
      6536      6548      6550      6536      6548      6551      6549      6548      6550
      6549      6548      6551      6550      6548      6551      6548      6551      6552
      6548      6551      6553      6548      6551      6554      6552      6551      6553
      6552      6551      6554      6553      6551      6554      6551      6554      6555
      6551      6554      6556      6551      6554      6557      6555      6554      6556
      6555      6554      6557      6556      6554      6557      6554      6557      6558
      6554      6557      6559      6554      6557      6560      6558      6557      6559
      6558      6557      6560      6559      6557      6560      6557      6560      6561
      6557      6560      6562      6557      6560      6563      6561      6560      6562
      6561      6560      6563      6562      6560      6563      6560      6563      6564
      6560      6563      6565      6560      6563      6566      6564      6563      6565
      6564      6563      6566      6565      6563      6566      6563      6566      6567
      6563      6566      6568      6567      6566      6568      6566      6568      6569
      6566      6568      6570      6569      6568      6570      6568      6570      6571
      6568      6570      6572      6568      6570      6573      6571      6570      6572
      6571      6570      6573      6572      6570      6573      6570      6573      6574
      6570      6573      6575      6570      6573      6576      6574      6573      6575
      6574      6573      6576      6575      6573      6576      6573      6576      6577
      6573      6576      6578      6573      6576      6579      6577      6576      6578
      6577      6576      6579      6578      6576      6579      6576      6579      6580
      6576      6579      6581      6576      6579      6582      6580      6579      6581
      6580      6579      6582      6581      6579      6582      6579      6582      6583
      6579      6582      6584      6579      6582      6585      6583      6582      6584
      6583      6582      6585      6584      6582      6585      6582      6585      6586
      6582      6585      6587      6582      6585      6588      6586      6585      6587
      6586      6585      6588      6587      6585      6588      6585      6588      6589
      6585      6588      6590      6585      6588      6591      6589      6588      6590
      6589      6588      6591      6590      6588      6591      6588      6591      6592
      6588      6591      6593      6588      6591      6594      6592      6591      6593
      6592      6591      6594      6593      6591      6594      6545      6595      6596
      6545      6595      6597      6545      6595      6598      6596      6595      6597
      6596      6595      6598      6597      6595      6598      6595      6598      6599
      6595      6598      6600      6595      6598      6601      6599      6598      6600
      6599      6598      6601      6600      6598      6601      6598      6601      6602
      6598      6601      6603      6598      6601      6604      6602      6601      6603
      6602      6601      6604      6603      6601      6604      6601      6604      6605
      6601      6604      6606      6601      6604      6607      6605      6604      6606
      6605      6604      6607      6606      6604      6607      6604      6607      6608
      6604      6607      6609      6604      6607      6610      6608      6607      6609
      6608      6607      6610      6609      6607      6610      6607      6610      6611
      6607      6610      6612      6607      6610      6613      6611      6610      6612
      6611      6610      6613      6612      6610      6613      6610      6613      6614
      6610      6613      6615      6610      6613      6616      6614      6613      6615
      6614      6613      6616      6615      6613      6616      6613      6616      6617
      6613      6616      6618      6613      6616      6619      6617      6616      6618
      6617      6616      6619      6618      6616      6619      6616      6619      6620
      6616      6619      6621      6616      6619      6622      6620      6619      6621
      6620      6619      6622      6621      6619      6622      6619      6622      6623
      6619      6622      6624      6619      6622      6625      6623      6622      6624
      6623      6622      6625      6624      6622      6625      6622      6625      6626
      6622      6625      6627      6622      6625      6628      6626      6625      6627
      6626      6625      6628      6627      6625      6628      6625      6628      6629
      6625      6628      6630      6625      6628      6631      6629      6628      6630
      6629      6628      6631      6630      6628      6631      6628      6631      6632
      6628      6631      6633      6628      6631      6634      6632      6631      6633
      6632      6631      6634      6633      6631      6634      6631      6634      6635
      6631      6634      6636      6631      6634      6637      6635      6634      6636
      6635      6634      6637      6636      6634      6637      6639      6638      6642
      6639      6638      6646      6639      6638      6650      6642      6638      6646
      6642      6638      6650      6646      6638      6650      6638      6639      6640
      6638      6639      6641      6638      6639      6654      6640      6639      6641
      6640      6639      6654      6641      6639      6654      6638      6642      6643
      6638      6642      6644      6638      6642      6645      6643      6642      6644
      6643      6642      6645      6644      6642      6645      6638      6646      6647
      6638      6646      6648      6638      6646      6649      6647      6646      6648
      6647      6646      6649      6648      6646      6649      6638      6650      6651
      6638      6650      6652      6638      6650      6653      6651      6650      6652
      6651      6650      6653      6652      6650      6653      6639      6654      6655
      6639      6654      6656      6639      6654      6660      6655      6654      6656
      6655      6654      6660      6656      6654      6660      6658      6657      6659
      6658      6657      6660      6658      6657      6661      6659      6657      6660
      6659      6657      6661      6660      6657      6661      6654      6660      6657
      6657      6661      6662      6661      6662      6663      6661      6662      6664
      6661      6662      6665      6663      6662      6664      6663      6662      6665
      6664      6662      6665      6662      6665      6666      6662      6665      6667
      6662      6665      6673      6666      6665      6667      6666      6665      6673
      6667      6665      6673      6665      6667      6668      6667      6668      6669
      6667      6668      6670      6669      6668      6670      6668      6670      6671
      6668      6670      6672      6668      6670      6682      6671      6670      6672
      6671      6670      6682      6672      6670      6682      6665      6673      6674
      6665      6673      6675      6665      6673      6676      6674      6673      6675
      6674      6673      6676      6675      6673      6676      6673      6676      6677
      6676      6677      6678      6676      6677      6679      6678      6677      6679
      6677      6679      6680      6677      6679      6681      6677      6679      6729
      6680      6679      6681      6680      6679      6729      6681      6679      6729
      6670      6682      6683      6670      6682      6684      6670      6682      6685
      6683      6682      6684      6683      6682      6685      6684      6682      6685
      6682      6685      6686      6682      6685      6687      6682      6685      6688
      6686      6685      6687      6686      6685      6688      6687      6685      6688
      6685      6688      6689      6685      6688      6690      6685      6688      6691
      6689      6688      6690      6689      6688      6691      6690      6688      6691
      6688      6691      6692      6688      6691      6693      6688      6691      6694
      6692      6691      6693      6692      6691      6694      6693      6691      6694
      6691      6694      6695      6691      6694      6696      6691      6694      6697
      6695      6694      6696      6695      6694      6697      6696      6694      6697
      6694      6697      6698      6694      6697      6699      6694      6697      6700
      6698      6697      6699      6698      6697      6700      6699      6697      6700
      6697      6700      6701      6697      6700      6702      6701      6700      6702
      6700      6702      6703      6700      6702      6704      6703      6702      6704
      6702      6704      6705      6702      6704      6706      6702      6704      6707
      6705      6704      6706      6705      6704      6707      6706      6704      6707
      6704      6707      6708      6704      6707      6709      6704      6707      6710
      6708      6707      6709      6708      6707      6710      6709      6707      6710
      6707      6710      6711      6707      6710      6712      6707      6710      6713
      6711      6710      6712      6711      6710      6713      6712      6710      6713
      6710      6713      6714      6710      6713      6715      6710      6713      6716
      6714      6713      6715      6714      6713      6716      6715      6713      6716
      6713      6716      6717      6713      6716      6718      6713      6716      6719
      6717      6716      6718      6717      6716      6719      6718      6716      6719
      6716      6719      6720      6716      6719      6721      6716      6719      6722
      6720      6719      6721      6720      6719      6722      6721      6719      6722
      6719      6722      6723      6719      6722      6724      6719      6722      6725
      6723      6722      6724      6723      6722      6725      6724      6722      6725
      6722      6725      6726      6722      6725      6727      6722      6725      6728
      6726      6725      6727      6726      6725      6728      6727      6725      6728
      6679      6729      6730      6679      6729      6731      6679      6729      6732
      6730      6729      6731      6730      6729      6732      6731      6729      6732
      6729      6732      6733      6729      6732      6734      6729      6732      6735
      6733      6732      6734      6733      6732      6735      6734      6732      6735
      6732      6735      6736      6732      6735      6737      6732      6735      6738
      6736      6735      6737      6736      6735      6738      6737      6735      6738
      6735      6738      6739      6735      6738      6740      6735      6738      6741
      6739      6738      6740      6739      6738      6741      6740      6738      6741
      6738      6741      6742      6738      6741      6743      6738      6741      6744
      6742      6741      6743      6742      6741      6744      6743      6741      6744
      6741      6744      6745      6741      6744      6746      6741      6744      6747
      6745      6744      6746      6745      6744      6747      6746      6744      6747
      6744      6747      6748      6744      6747      6749      6744      6747      6750
      6748      6747      6749      6748      6747      6750      6749      6747      6750
      6747      6750      6751      6747      6750      6752      6747      6750      6753
      6751      6750      6752      6751      6750      6753      6752      6750      6753
      6750      6753      6754      6750      6753      6755      6750      6753      6756
      6754      6753      6755      6754      6753      6756      6755      6753      6756
      6753      6756      6757      6753      6756      6758      6753      6756      6759
      6757      6756      6758      6757      6756      6759      6758      6756      6759
      6756      6759      6760      6756      6759      6761      6756      6759      6762
      6760      6759      6761      6760      6759      6762      6761      6759      6762
      6759      6762      6763      6759      6762      6764      6759      6762      6765
      6763      6762      6764      6763      6762      6765      6764      6762      6765
      6762      6765      6766      6762      6765      6767      6762      6765      6768
      6766      6765      6767      6766      6765      6768      6767      6765      6768
      6765      6768      6769      6765      6768      6770      6765      6768      6771
      6769      6768      6770      6769      6768      6771      6770      6768      6771
      6773      6772      6776      6773      6772      6780      6773      6772      6784
      6776      6772      6780      6776      6772      6784      6780      6772      6784
      6772      6773      6774      6772      6773      6775      6772      6773      6788
      6774      6773      6775      6774      6773      6788      6775      6773      6788
      6772      6776      6777      6772      6776      6778      6772      6776      6779
      6777      6776      6778      6777      6776      6779      6778      6776      6779
      6772      6780      6781      6772      6780      6782      6772      6780      6783
      6781      6780      6782      6781      6780      6783      6782      6780      6783
      6772      6784      6785      6772      6784      6786      6772      6784      6787
      6785      6784      6786      6785      6784      6787      6786      6784      6787
      6773      6788      6789      6773      6788      6790      6773      6788      6794
      6789      6788      6790      6789      6788      6794      6790      6788      6794
      6792      6791      6793      6792      6791      6794      6792      6791      6795
      6793      6791      6794      6793      6791      6795      6794      6791      6795
      6788      6794      6791      6791      6795      6796      6795      6796      6797
      6795      6796      6798      6795      6796      6799      6797      6796      6798
      6797      6796      6799      6798      6796      6799      6796      6799      6800
      6796      6799      6801      6796      6799      6807      6800      6799      6801
      6800      6799      6807      6801      6799      6807      6799      6801      6802
      6801      6802      6803      6801      6802      6804      6803      6802      6804
      6802      6804      6805      6802      6804      6806      6802      6804      6816
      6805      6804      6806      6805      6804      6816      6806      6804      6816
      6799      6807      6808      6799      6807      6809      6799      6807      6810
      6808      6807      6809      6808      6807      6810      6809      6807      6810
      6807      6810      6811      6810      6811      6812      6810      6811      6813
      6812      6811      6813      6811      6813      6814      6811      6813      6815
      6811      6813      6863      6814      6813      6815      6814      6813      6863
      6815      6813      6863      6804      6816      6817      6804      6816      6818
      6804      6816      6819      6817      6816      6818      6817      6816      6819
      6818      6816      6819      6816      6819      6820      6816      6819      6821
      6816      6819      6822      6820      6819      6821      6820      6819      6822
      6821      6819      6822      6819      6822      6823      6819      6822      6824
      6819      6822      6825      6823      6822      6824      6823      6822      6825
      6824      6822      6825      6822      6825      6826      6822      6825      6827
      6822      6825      6828      6826      6825      6827      6826      6825      6828
      6827      6825      6828      6825      6828      6829      6825      6828      6830
      6825      6828      6831      6829      6828      6830      6829      6828      6831
      6830      6828      6831      6828      6831      6832      6828      6831      6833
      6828      6831      6834      6832      6831      6833      6832      6831      6834
      6833      6831      6834      6831      6834      6835      6831      6834      6836
      6835      6834      6836      6834      6836      6837      6834      6836      6838
      6837      6836      6838      6836      6838      6839      6836      6838      6840
      6836      6838      6841      6839      6838      6840      6839      6838      6841
      6840      6838      6841      6838      6841      6842      6838      6841      6843
      6838      6841      6844      6842      6841      6843      6842      6841      6844
      6843      6841      6844      6841      6844      6845      6841      6844      6846
      6841      6844      6847      6845      6844      6846      6845      6844      6847
      6846      6844      6847      6844      6847      6848      6844      6847      6849
      6844      6847      6850      6848      6847      6849      6848      6847      6850
      6849      6847      6850      6847      6850      6851      6847      6850      6852
      6847      6850      6853      6851      6850      6852      6851      6850      6853
      6852      6850      6853      6850      6853      6854      6850      6853      6855
      6850      6853      6856      6854      6853      6855      6854      6853      6856
      6855      6853      6856      6853      6856      6857      6853      6856      6858
      6853      6856      6859      6857      6856      6858      6857      6856      6859
      6858      6856      6859      6856      6859      6860      6856      6859      6861
      6856      6859      6862      6860      6859      6861      6860      6859      6862
      6861      6859      6862      6813      6863      6864      6813      6863      6865
      6813      6863      6866      6864      6863      6865      6864      6863      6866
      6865      6863      6866      6863      6866      6867      6863      6866      6868
      6863      6866      6869      6867      6866      6868      6867      6866      6869
      6868      6866      6869      6866      6869      6870      6866      6869      6871
      6866      6869      6872      6870      6869      6871      6870      6869      6872
      6871      6869      6872      6869      6872      6873      6869      6872      6874
      6869      6872      6875      6873      6872      6874      6873      6872      6875
      6874      6872      6875      6872      6875      6876      6872      6875      6877
      6872      6875      6878      6876      6875      6877      6876      6875      6878
      6877      6875      6878      6875      6878      6879      6875      6878      6880
      6875      6878      6881      6879      6878      6880      6879      6878      6881
      6880      6878      6881      6878      6881      6882      6878      6881      6883
      6878      6881      6884      6882      6881      6883      6882      6881      6884
      6883      6881      6884      6881      6884      6885      6881      6884      6886
      6881      6884      6887      6885      6884      6886      6885      6884      6887
      6886      6884      6887      6884      6887      6888      6884      6887      6889
      6884      6887      6890      6888      6887      6889      6888      6887      6890
      6889      6887      6890      6887      6890      6891      6887      6890      6892
      6887      6890      6893      6891      6890      6892      6891      6890      6893
      6892      6890      6893      6890      6893      6894      6890      6893      6895
      6890      6893      6896      6894      6893      6895      6894      6893      6896
      6895      6893      6896      6893      6896      6897      6893      6896      6898
      6893      6896      6899      6897      6896      6898      6897      6896      6899
      6898      6896      6899      6896      6899      6900      6896      6899      6901
      6896      6899      6902      6900      6899      6901      6900      6899      6902
      6901      6899      6902      6899      6902      6903      6899      6902      6904
      6899      6902      6905      6903      6902      6904      6903      6902      6905
      6904      6902      6905      6907      6906      6910      6907      6906      6914
      6907      6906      6918      6910      6906      6914      6910      6906      6918
      6914      6906      6918      6906      6907      6908      6906      6907      6909
      6906      6907      6922      6908      6907      6909      6908      6907      6922
      6909      6907      6922      6906      6910      6911      6906      6910      6912
      6906      6910      6913      6911      6910      6912      6911      6910      6913
      6912      6910      6913      6906      6914      6915      6906      6914      6916
      6906      6914      6917      6915      6914      6916      6915      6914      6917
      6916      6914      6917      6906      6918      6919      6906      6918      6920
      6906      6918      6921      6919      6918      6920      6919      6918      6921
      6920      6918      6921      6907      6922      6923      6907      6922      6924
      6907      6922      6928      6923      6922      6924      6923      6922      6928
      6924      6922      6928      6926      6925      6927      6926      6925      6928
      6926      6925      6929      6927      6925      6928      6927      6925      6929
      6928      6925      6929      6922      6928      6925      6925      6929      6930
      6929      6930      6931      6929      6930      6932      6929      6930      6933
      6931      6930      6932      6931      6930      6933      6932      6930      6933
      6930      6933      6934      6930      6933      6935      6930      6933      6941
      6934      6933      6935      6934      6933      6941      6935      6933      6941
      6933      6935      6936      6935      6936      6937      6935      6936      6938
      6937      6936      6938      6936      6938      6939      6936      6938      6940
      6936      6938      6950      6939      6938      6940      6939      6938      6950
      6940      6938      6950      6933      6941      6942      6933      6941      6943
      6933      6941      6944      6942      6941      6943      6942      6941      6944
      6943      6941      6944      6941      6944      6945      6944      6945      6946
      6944      6945      6947      6946      6945      6947      6945      6947      6948
      6945      6947      6949      6945      6947      6997      6948      6947      6949
      6948      6947      6997      6949      6947      6997      6938      6950      6951
      6938      6950      6952      6938      6950      6953      6951      6950      6952
      6951      6950      6953      6952      6950      6953      6950      6953      6954
      6950      6953      6955      6950      6953      6956      6954      6953      6955
      6954      6953      6956      6955      6953      6956      6953      6956      6957
      6953      6956      6958      6953      6956      6959      6957      6956      6958
      6957      6956      6959      6958      6956      6959      6956      6959      6960
      6956      6959      6961      6956      6959      6962      6960      6959      6961
      6960      6959      6962      6961      6959      6962      6959      6962      6963
      6959      6962      6964      6959      6962      6965      6963      6962      6964
      6963      6962      6965      6964      6962      6965      6962      6965      6966
      6962      6965      6967      6962      6965      6968      6966      6965      6967
      6966      6965      6968      6967      6965      6968      6965      6968      6969
      6965      6968      6970      6969      6968      6970      6968      6970      6971
      6968      6970      6972      6971      6970      6972      6970      6972      6973
      6970      6972      6974      6970      6972      6975      6973      6972      6974
      6973      6972      6975      6974      6972      6975      6972      6975      6976
      6972      6975      6977      6972      6975      6978      6976      6975      6977
      6976      6975      6978      6977      6975      6978      6975      6978      6979
      6975      6978      6980      6975      6978      6981      6979      6978      6980
      6979      6978      6981      6980      6978      6981      6978      6981      6982
      6978      6981      6983      6978      6981      6984      6982      6981      6983
      6982      6981      6984      6983      6981      6984      6981      6984      6985
      6981      6984      6986      6981      6984      6987      6985      6984      6986
      6985      6984      6987      6986      6984      6987      6984      6987      6988
      6984      6987      6989      6984      6987      6990      6988      6987      6989
      6988      6987      6990      6989      6987      6990      6987      6990      6991
      6987      6990      6992      6987      6990      6993      6991      6990      6992
      6991      6990      6993      6992      6990      6993      6990      6993      6994
      6990      6993      6995      6990      6993      6996      6994      6993      6995
      6994      6993      6996      6995      6993      6996      6947      6997      6998
      6947      6997      6999      6947      6997      7000      6998      6997      6999
      6998      6997      7000      6999      6997      7000      6997      7000      7001
      6997      7000      7002      6997      7000      7003      7001      7000      7002
      7001      7000      7003      7002      7000      7003      7000      7003      7004
      7000      7003      7005      7000      7003      7006      7004      7003      7005
      7004      7003      7006      7005      7003      7006      7003      7006      7007
      7003      7006      7008      7003      7006      7009      7007      7006      7008
      7007      7006      7009      7008      7006      7009      7006      7009      7010
      7006      7009      7011      7006      7009      7012      7010      7009      7011
      7010      7009      7012      7011      7009      7012      7009      7012      7013
      7009      7012      7014      7009      7012      7015      7013      7012      7014
      7013      7012      7015      7014      7012      7015      7012      7015      7016
      7012      7015      7017      7012      7015      7018      7016      7015      7017
      7016      7015      7018      7017      7015      7018      7015      7018      7019
      7015      7018      7020      7015      7018      7021      7019      7018      7020
      7019      7018      7021      7020      7018      7021      7018      7021      7022
      7018      7021      7023      7018      7021      7024      7022      7021      7023
      7022      7021      7024      7023      7021      7024      7021      7024      7025
      7021      7024      7026      7021      7024      7027      7025      7024      7026
      7025      7024      7027      7026      7024      7027      7024      7027      7028
      7024      7027      7029      7024      7027      7030      7028      7027      7029
      7028      7027      7030      7029      7027      7030      7027      7030      7031
      7027      7030      7032      7027      7030      7033      7031      7030      7032
      7031      7030      7033      7032      7030      7033      7030      7033      7034
      7030      7033      7035      7030      7033      7036      7034      7033      7035
      7034      7033      7036      7035      7033      7036      7033      7036      7037
      7033      7036      7038      7033      7036      7039      7037      7036      7038
      7037      7036      7039      7038      7036      7039      7041      7040      7044
      7041      7040      7048      7041      7040      7052      7044      7040      7048
      7044      7040      7052      7048      7040      7052      7040      7041      7042
      7040      7041      7043      7040      7041      7056      7042      7041      7043
      7042      7041      7056      7043      7041      7056      7040      7044      7045
      7040      7044      7046      7040      7044      7047      7045      7044      7046
      7045      7044      7047      7046      7044      7047      7040      7048      7049
      7040      7048      7050      7040      7048      7051      7049      7048      7050
      7049      7048      7051      7050      7048      7051      7040      7052      7053
      7040      7052      7054      7040      7052      7055      7053      7052      7054
      7053      7052      7055      7054      7052      7055      7041      7056      7057
      7041      7056      7058      7041      7056      7062      7057      7056      7058
      7057      7056      7062      7058      7056      7062      7060      7059      7061
      7060      7059      7062      7060      7059      7063      7061      7059      7062
      7061      7059      7063      7062      7059      7063      7056      7062      7059
      7059      7063      7064      7063      7064      7065      7063      7064      7066
      7063      7064      7067      7065      7064      7066      7065      7064      7067
      7066      7064      7067      7064      7067      7068      7064      7067      7069
      7064      7067      7075      7068      7067      7069      7068      7067      7075
      7069      7067      7075      7067      7069      7070      7069      7070      7071
      7069      7070      7072      7071      7070      7072      7070      7072      7073
      7070      7072      7074      7070      7072      7084      7073      7072      7074
      7073      7072      7084      7074      7072      7084      7067      7075      7076
      7067      7075      7077      7067      7075      7078      7076      7075      7077
      7076      7075      7078      7077      7075      7078      7075      7078      7079
      7078      7079      7080      7078      7079      7081      7080      7079      7081
      7079      7081      7082      7079      7081      7083      7079      7081      7131
      7082      7081      7083      7082      7081      7131      7083      7081      7131
      7072      7084      7085      7072      7084      7086      7072      7084      7087
      7085      7084      7086      7085      7084      7087      7086      7084      7087
      7084      7087      7088      7084      7087      7089      7084      7087      7090
      7088      7087      7089      7088      7087      7090      7089      7087      7090
      7087      7090      7091      7087      7090      7092      7087      7090      7093
      7091      7090      7092      7091      7090      7093      7092      7090      7093
      7090      7093      7094      7090      7093      7095      7090      7093      7096
      7094      7093      7095      7094      7093      7096      7095      7093      7096
      7093      7096      7097      7093      7096      7098      7093      7096      7099
      7097      7096      7098      7097      7096      7099      7098      7096      7099
      7096      7099      7100      7096      7099      7101      7096      7099      7102
      7100      7099      7101      7100      7099      7102      7101      7099      7102
      7099      7102      7103      7099      7102      7104      7103      7102      7104
      7102      7104      7105      7102      7104      7106      7105      7104      7106
      7104      7106      7107      7104      7106      7108      7104      7106      7109
      7107      7106      7108      7107      7106      7109      7108      7106      7109
      7106      7109      7110      7106      7109      7111      7106      7109      7112
      7110      7109      7111      7110      7109      7112      7111      7109      7112
      7109      7112      7113      7109      7112      7114      7109      7112      7115
      7113      7112      7114      7113      7112      7115      7114      7112      7115
      7112      7115      7116      7112      7115      7117      7112      7115      7118
      7116      7115      7117      7116      7115      7118      7117      7115      7118
      7115      7118      7119      7115      7118      7120      7115      7118      7121
      7119      7118      7120      7119      7118      7121      7120      7118      7121
      7118      7121      7122      7118      7121      7123      7118      7121      7124
      7122      7121      7123      7122      7121      7124      7123      7121      7124
      7121      7124      7125      7121      7124      7126      7121      7124      7127
      7125      7124      7126      7125      7124      7127      7126      7124      7127
      7124      7127      7128      7124      7127      7129      7124      7127      7130
      7128      7127      7129      7128      7127      7130      7129      7127      7130
      7081      7131      7132      7081      7131      7133      7081      7131      7134
      7132      7131      7133      7132      7131      7134      7133      7131      7134
      7131      7134      7135      7131      7134      7136      7131      7134      7137
      7135      7134      7136      7135      7134      7137      7136      7134      7137
      7134      7137      7138      7134      7137      7139      7134      7137      7140
      7138      7137      7139      7138      7137      7140      7139      7137      7140
      7137      7140      7141      7137      7140      7142      7137      7140      7143
      7141      7140      7142      7141      7140      7143      7142      7140      7143
      7140      7143      7144      7140      7143      7145      7140      7143      7146
      7144      7143      7145      7144      7143      7146      7145      7143      7146
      7143      7146      7147      7143      7146      7148      7143      7146      7149
      7147      7146      7148      7147      7146      7149      7148      7146      7149
      7146      7149      7150      7146      7149      7151      7146      7149      7152
      7150      7149      7151      7150      7149      7152      7151      7149      7152
      7149      7152      7153      7149      7152      7154      7149      7152      7155
      7153      7152      7154      7153      7152      7155      7154      7152      7155
      7152      7155      7156      7152      7155      7157      7152      7155      7158
      7156      7155      7157      7156      7155      7158      7157      7155      7158
      7155      7158      7159      7155      7158      7160      7155      7158      7161
      7159      7158      7160      7159      7158      7161      7160      7158      7161
      7158      7161      7162      7158      7161      7163      7158      7161      7164
      7162      7161      7163      7162      7161      7164      7163      7161      7164
      7161      7164      7165      7161      7164      7166      7161      7164      7167
      7165      7164      7166      7165      7164      7167      7166      7164      7167
      7164      7167      7168      7164      7167      7169      7164      7167      7170
      7168      7167      7169      7168      7167      7170      7169      7167      7170
      7167      7170      7171      7167      7170      7172      7167      7170      7173
      7171      7170      7172      7171      7170      7173      7172      7170      7173
      7175      7174      7176      7175      7174      7177      7175      7174      7178
      7176      7174      7177      7176      7174      7178      7177      7174      7178
      7174      7178      7179      7174      7178      7180      7174      7178      7183
      7179      7178      7180      7179      7178      7183      7180      7178      7183
      7178      7180      7181      7178      7180      7182      7181      7180      7182
      7178      7183      7184      7178      7183      7185      7178      7183      7189
      7184      7183      7185      7184      7183      7189      7185      7183      7189
      7187      7186      7188      7187      7186      7189      7187      7186      7190
      7188      7186      7189      7188      7186      7190      7189      7186      7190
      7183      7189      7186      7186      7190      7191      7190      7191      7192
      7190      7191      7193      7190      7191      7194      7192      7191      7193
      7192      7191      7194      7193      7191      7194      7191      7194      7195
      7191      7194      7196      7191      7194      7202      7195      7194      7196
      7195      7194      7202      7196      7194      7202      7194      7196      7197
      7196      7197      7198      7196      7197      7199      7198      7197      7199
      7197      7199      7200      7197      7199      7201      7197      7199      7211
      7200      7199      7201      7200      7199      7211      7201      7199      7211
      7194      7202      7203      7194      7202      7204      7194      7202      7205
      7203      7202      7204      7203      7202      7205      7204      7202      7205
      7202      7205      7206      7205      7206      7207      7205      7206      7208
      7207      7206      7208      7206      7208      7209      7206      7208      7210
      7206      7208      7258      7209      7208      7210      7209      7208      7258
      7210      7208      7258      7199      7211      7212      7199      7211      7213
      7199      7211      7214      7212      7211      7213      7212      7211      7214
      7213      7211      7214      7211      7214      7215      7211      7214      7216
      7211      7214      7217      7215      7214      7216      7215      7214      7217
      7216      7214      7217      7214      7217      7218      7214      7217      7219
      7214      7217      7220      7218      7217      7219      7218      7217      7220
      7219      7217      7220      7217      7220      7221      7217      7220      7222
      7217      7220      7223      7221      7220      7222      7221      7220      7223
      7222      7220      7223      7220      7223      7224      7220      7223      7225
      7220      7223      7226      7224      7223      7225      7224      7223      7226
      7225      7223      7226      7223      7226      7227      7223      7226      7228
      7223      7226      7229      7227      7226      7228      7227      7226      7229
      7228      7226      7229      7226      7229      7230      7226      7229      7231
      7230      7229      7231      7229      7231      7232      7229      7231      7233
      7232      7231      7233      7231      7233      7234      7231      7233      7235
      7231      7233      7236      7234      7233      7235      7234      7233      7236
      7235      7233      7236      7233      7236      7237      7233      7236      7238
      7233      7236      7239      7237      7236      7238      7237      7236      7239
      7238      7236      7239      7236      7239      7240      7236      7239      7241
      7236      7239      7242      7240      7239      7241      7240      7239      7242
      7241      7239      7242      7239      7242      7243      7239      7242      7244
      7239      7242      7245      7243      7242      7244      7243      7242      7245
      7244      7242      7245      7242      7245      7246      7242      7245      7247
      7242      7245      7248      7246      7245      7247      7246      7245      7248
      7247      7245      7248      7245      7248      7249      7245      7248      7250
      7245      7248      7251      7249      7248      7250      7249      7248      7251
      7250      7248      7251      7248      7251      7252      7248      7251      7253
      7248      7251      7254      7252      7251      7253      7252      7251      7254
      7253      7251      7254      7251      7254      7255      7251      7254      7256
      7251      7254      7257      7255      7254      7256      7255      7254      7257
      7256      7254      7257      7208      7258      7259      7208      7258      7260
      7208      7258      7261      7259      7258      7260      7259      7258      7261
      7260      7258      7261      7258      7261      7262      7258      7261      7263
      7258      7261      7264      7262      7261      7263      7262      7261      7264
      7263      7261      7264      7261      7264      7265      7261      7264      7266
      7261      7264      7267      7265      7264      7266      7265      7264      7267
      7266      7264      7267      7264      7267      7268      7264      7267      7269
      7264      7267      7270      7268      7267      7269      7268      7267      7270
      7269      7267      7270      7267      7270      7271      7267      7270      7272
      7267      7270      7273      7271      7270      7272      7271      7270      7273
      7272      7270      7273      7270      7273      7274      7270      7273      7275
      7270      7273      7276      7274      7273      7275      7274      7273      7276
      7275      7273      7276      7273      7276      7277      7273      7276      7278
      7273      7276      7279      7277      7276      7278      7277      7276      7279
      7278      7276      7279      7276      7279      7280      7276      7279      7281
      7276      7279      7282      7280      7279      7281      7280      7279      7282
      7281      7279      7282      7279      7282      7283      7279      7282      7284
      7279      7282      7285      7283      7282      7284      7283      7282      7285
      7284      7282      7285      7282      7285      7286      7282      7285      7287
      7282      7285      7288      7286      7285      7287      7286      7285      7288
      7287      7285      7288      7285      7288      7289      7285      7288      7290
      7285      7288      7291      7289      7288      7290      7289      7288      7291
      7290      7288      7291      7288      7291      7292      7288      7291      7293
      7288      7291      7294      7292      7291      7293      7292      7291      7294
      7293      7291      7294      7291      7294      7295      7291      7294      7296
      7291      7294      7297      7295      7294      7296      7295      7294      7297
      7296      7294      7297      7294      7297      7298      7294      7297      7299
      7294      7297      7300      7298      7297      7299      7298      7297      7300
      7299      7297      7300      7302      7301      7303      7302      7301      7304
      7302      7301      7305      7303      7301      7304      7303      7301      7305
      7304      7301      7305      7301      7305      7306      7301      7305      7307
      7301      7305      7310      7306      7305      7307      7306      7305      7310
      7307      7305      7310      7305      7307      7308      7305      7307      7309
      7308      7307      7309      7305      7310      7311      7305      7310      7312
      7305      7310      7316      7311      7310      7312      7311      7310      7316
      7312      7310      7316      7314      7313      7315      7314      7313      7316
      7314      7313      7317      7315      7313      7316      7315      7313      7317
      7316      7313      7317      7310      7316      7313      7313      7317      7318
      7317      7318      7319      7317      7318      7320      7317      7318      7321
      7319      7318      7320      7319      7318      7321      7320      7318      7321
      7318      7321      7322      7318      7321      7323      7318      7321      7329
      7322      7321      7323      7322      7321      7329      7323      7321      7329
      7321      7323      7324      7323      7324      7325      7323      7324      7326
      7325      7324      7326      7324      7326      7327      7324      7326      7328
      7324      7326      7338      7327      7326      7328      7327      7326      7338
      7328      7326      7338      7321      7329      7330      7321      7329      7331
      7321      7329      7332      7330      7329      7331      7330      7329      7332
      7331      7329      7332      7329      7332      7333      7332      7333      7334
      7332      7333      7335      7334      7333      7335      7333      7335      7336
      7333      7335      7337      7333      7335      7385      7336      7335      7337
      7336      7335      7385      7337      7335      7385      7326      7338      7339
      7326      7338      7340      7326      7338      7341      7339      7338      7340
      7339      7338      7341      7340      7338      7341      7338      7341      7342
      7338      7341      7343      7338      7341      7344      7342      7341      7343
      7342      7341      7344      7343      7341      7344      7341      7344      7345
      7341      7344      7346      7341      7344      7347      7345      7344      7346
      7345      7344      7347      7346      7344      7347      7344      7347      7348
      7344      7347      7349      7344      7347      7350      7348      7347      7349
      7348      7347      7350      7349      7347      7350      7347      7350      7351
      7347      7350      7352      7347      7350      7353      7351      7350      7352
      7351      7350      7353      7352      7350      7353      7350      7353      7354
      7350      7353      7355      7350      7353      7356      7354      7353      7355
      7354      7353      7356      7355      7353      7356      7353      7356      7357
      7353      7356      7358      7357      7356      7358      7356      7358      7359
      7356      7358      7360      7359      7358      7360      7358      7360      7361
      7358      7360      7362      7358      7360      7363      7361      7360      7362
      7361      7360      7363      7362      7360      7363      7360      7363      7364
      7360      7363      7365      7360      7363      7366      7364      7363      7365
      7364      7363      7366      7365      7363      7366      7363      7366      7367
      7363      7366      7368      7363      7366      7369      7367      7366      7368
      7367      7366      7369      7368      7366      7369      7366      7369      7370
      7366      7369      7371      7366      7369      7372      7370      7369      7371
      7370      7369      7372      7371      7369      7372      7369      7372      7373
      7369      7372      7374      7369      7372      7375      7373      7372      7374
      7373      7372      7375      7374      7372      7375      7372      7375      7376
      7372      7375      7377      7372      7375      7378      7376      7375      7377
      7376      7375      7378      7377      7375      7378      7375      7378      7379
      7375      7378      7380      7375      7378      7381      7379      7378      7380
      7379      7378      7381      7380      7378      7381      7378      7381      7382
      7378      7381      7383      7378      7381      7384      7382      7381      7383
      7382      7381      7384      7383      7381      7384      7335      7385      7386
      7335      7385      7387      7335      7385      7388      7386      7385      7387
      7386      7385      7388      7387      7385      7388      7385      7388      7389
      7385      7388      7390      7385      7388      7391      7389      7388      7390
      7389      7388      7391      7390      7388      7391      7388      7391      7392
      7388      7391      7393      7388      7391      7394      7392      7391      7393
      7392      7391      7394      7393      7391      7394      7391      7394      7395
      7391      7394      7396      7391      7394      7397      7395      7394      7396
      7395      7394      7397      7396      7394      7397      7394      7397      7398
      7394      7397      7399      7394      7397      7400      7398      7397      7399
      7398      7397      7400      7399      7397      7400      7397      7400      7401
      7397      7400      7402      7397      7400      7403      7401      7400      7402
      7401      7400      7403      7402      7400      7403      7400      7403      7404
      7400      7403      7405      7400      7403      7406      7404      7403      7405
      7404      7403      7406      7405      7403      7406      7403      7406      7407
      7403      7406      7408      7403      7406      7409      7407      7406      7408
      7407      7406      7409      7408      7406      7409      7406      7409      7410
      7406      7409      7411      7406      7409      7412      7410      7409      7411
      7410      7409      7412      7411      7409      7412      7409      7412      7413
      7409      7412      7414      7409      7412      7415      7413      7412      7414
      7413      7412      7415      7414      7412      7415      7412      7415      7416
      7412      7415      7417      7412      7415      7418      7416      7415      7417
      7416      7415      7418      7417      7415      7418      7415      7418      7419
      7415      7418      7420      7415      7418      7421      7419      7418      7420
      7419      7418      7421      7420      7418      7421      7418      7421      7422
      7418      7421      7423      7418      7421      7424      7422      7421      7423
      7422      7421      7424      7423      7421      7424      7421      7424      7425
      7421      7424      7426      7421      7424      7427      7425      7424      7426
      7425      7424      7427      7426      7424      7427      7429      7428      7432
      7429      7428      7436      7429      7428      7440      7432      7428      7436
      7432      7428      7440      7436      7428      7440      7428      7429      7430
      7428      7429      7431      7428      7429      7444      7430      7429      7431
      7430      7429      7444      7431      7429      7444      7428      7432      7433
      7428      7432      7434      7428      7432      7435      7433      7432      7434
      7433      7432      7435      7434      7432      7435      7428      7436      7437
      7428      7436      7438      7428      7436      7439      7437      7436      7438
      7437      7436      7439      7438      7436      7439      7428      7440      7441
      7428      7440      7442      7428      7440      7443      7441      7440      7442
      7441      7440      7443      7442      7440      7443      7429      7444      7445
      7429      7444      7446      7429      7444      7450      7445      7444      7446
      7445      7444      7450      7446      7444      7450      7448      7447      7449
      7448      7447      7450      7448      7447      7451      7449      7447      7450
      7449      7447      7451      7450      7447      7451      7444      7450      7447
      7447      7451      7452      7451      7452      7453      7451      7452      7454
      7451      7452      7455      7453      7452      7454      7453      7452      7455
      7454      7452      7455      7452      7455      7456      7452      7455      7457
      7452      7455      7463      7456      7455      7457      7456      7455      7463
      7457      7455      7463      7455      7457      7458      7457      7458      7459
      7457      7458      7460      7459      7458      7460      7458      7460      7461
      7458      7460      7462      7458      7460      7472      7461      7460      7462
      7461      7460      7472      7462      7460      7472      7455      7463      7464
      7455      7463      7465      7455      7463      7466      7464      7463      7465
      7464      7463      7466      7465      7463      7466      7463      7466      7467
      7466      7467      7468      7466      7467      7469      7468      7467      7469
      7467      7469      7470      7467      7469      7471      7467      7469      7519
      7470      7469      7471      7470      7469      7519      7471      7469      7519
      7460      7472      7473      7460      7472      7474      7460      7472      7475
      7473      7472      7474      7473      7472      7475      7474      7472      7475
      7472      7475      7476      7472      7475      7477      7472      7475      7478
      7476      7475      7477      7476      7475      7478      7477      7475      7478
      7475      7478      7479      7475      7478      7480      7475      7478      7481
      7479      7478      7480      7479      7478      7481      7480      7478      7481
      7478      7481      7482      7478      7481      7483      7478      7481      7484
      7482      7481      7483      7482      7481      7484      7483      7481      7484
      7481      7484      7485      7481      7484      7486      7481      7484      7487
      7485      7484      7486      7485      7484      7487      7486      7484      7487
      7484      7487      7488      7484      7487      7489      7484      7487      7490
      7488      7487      7489      7488      7487      7490      7489      7487      7490
      7487      7490      7491      7487      7490      7492      7491      7490      7492
      7490      7492      7493      7490      7492      7494      7493      7492      7494
      7492      7494      7495      7492      7494      7496      7492      7494      7497
      7495      7494      7496      7495      7494      7497      7496      7494      7497
      7494      7497      7498      7494      7497      7499      7494      7497      7500
      7498      7497      7499      7498      7497      7500      7499      7497      7500
      7497      7500      7501      7497      7500      7502      7497      7500      7503
      7501      7500      7502      7501      7500      7503      7502      7500      7503
      7500      7503      7504      7500      7503      7505      7500      7503      7506
      7504      7503      7505      7504      7503      7506      7505      7503      7506
      7503      7506      7507      7503      7506      7508      7503      7506      7509
      7507      7506      7508      7507      7506      7509      7508      7506      7509
      7506      7509      7510      7506      7509      7511      7506      7509      7512
      7510      7509      7511      7510      7509      7512      7511      7509      7512
      7509      7512      7513      7509      7512      7514      7509      7512      7515
      7513      7512      7514      7513      7512      7515      7514      7512      7515
      7512      7515      7516      7512      7515      7517      7512      7515      7518
      7516      7515      7517      7516      7515      7518      7517      7515      7518
      7469      7519      7520      7469      7519      7521      7469      7519      7522
      7520      7519      7521      7520      7519      7522      7521      7519      7522
      7519      7522      7523      7519      7522      7524      7519      7522      7525
      7523      7522      7524      7523      7522      7525      7524      7522      7525
      7522      7525      7526      7522      7525      7527      7522      7525      7528
      7526      7525      7527      7526      7525      7528      7527      7525      7528
      7525      7528      7529      7525      7528      7530      7525      7528      7531
      7529      7528      7530      7529      7528      7531      7530      7528      7531
      7528      7531      7532      7528      7531      7533      7528      7531      7534
      7532      7531      7533      7532      7531      7534      7533      7531      7534
      7531      7534      7535      7531      7534      7536      7531      7534      7537
      7535      7534      7536      7535      7534      7537      7536      7534      7537
      7534      7537      7538      7534      7537      7539      7534      7537      7540
      7538      7537      7539      7538      7537      7540      7539      7537      7540
      7537      7540      7541      7537      7540      7542      7537      7540      7543
      7541      7540      7542      7541      7540      7543      7542      7540      7543
      7540      7543      7544      7540      7543      7545      7540      7543      7546
      7544      7543      7545      7544      7543      7546      7545      7543      7546
      7543      7546      7547      7543      7546      7548      7543      7546      7549
      7547      7546      7548      7547      7546      7549      7548      7546      7549
      7546      7549      7550      7546      7549      7551      7546      7549      7552
      7550      7549      7551      7550      7549      7552      7551      7549      7552
      7549      7552      7553      7549      7552      7554      7549      7552      7555
      7553      7552      7554      7553      7552      7555      7554      7552      7555
      7552      7555      7556      7552      7555      7557      7552      7555      7558
      7556      7555      7557      7556      7555      7558      7557      7555      7558
      7555      7558      7559      7555      7558      7560      7555      7558      7561
      7559      7558      7560      7559      7558      7561      7560      7558      7561
      7563      7562      7566      7563      7562      7570      7563      7562      7574
      7566      7562      7570      7566      7562      7574      7570      7562      7574
      7562      7563      7564      7562      7563      7565      7562      7563      7578
      7564      7563      7565      7564      7563      7578      7565      7563      7578
      7562      7566      7567      7562      7566      7568      7562      7566      7569
      7567      7566      7568      7567      7566      7569      7568      7566      7569
      7562      7570      7571      7562      7570      7572      7562      7570      7573
      7571      7570      7572      7571      7570      7573      7572      7570      7573
      7562      7574      7575      7562      7574      7576      7562      7574      7577
      7575      7574      7576      7575      7574      7577      7576      7574      7577
      7563      7578      7579      7563      7578      7580      7563      7578      7584
      7579      7578      7580      7579      7578      7584      7580      7578      7584
      7582      7581      7583      7582      7581      7584      7582      7581      7585
      7583      7581      7584      7583      7581      7585      7584      7581      7585
      7578      7584      7581      7581      7585      7586      7585      7586      7587
      7585      7586      7588      7585      7586      7589      7587      7586      7588
      7587      7586      7589      7588      7586      7589      7586      7589      7590
      7586      7589      7591      7586      7589      7597      7590      7589      7591
      7590      7589      7597      7591      7589      7597      7589      7591      7592
      7591      7592      7593      7591      7592      7594      7593      7592      7594
      7592      7594      7595      7592      7594      7596      7592      7594      7606
      7595      7594      7596      7595      7594      7606      7596      7594      7606
      7589      7597      7598      7589      7597      7599      7589      7597      7600
      7598      7597      7599      7598      7597      7600      7599      7597      7600
      7597      7600      7601      7600      7601      7602      7600      7601      7603
      7602      7601      7603      7601      7603      7604      7601      7603      7605
      7601      7603      7653      7604      7603      7605      7604      7603      7653
      7605      7603      7653      7594      7606      7607      7594      7606      7608
      7594      7606      7609      7607      7606      7608      7607      7606      7609
      7608      7606      7609      7606      7609      7610      7606      7609      7611
      7606      7609      7612      7610      7609      7611      7610      7609      7612
      7611      7609      7612      7609      7612      7613      7609      7612      7614
      7609      7612      7615      7613      7612      7614      7613      7612      7615
      7614      7612      7615      7612      7615      7616      7612      7615      7617
      7612      7615      7618      7616      7615      7617      7616      7615      7618
      7617      7615      7618      7615      7618      7619      7615      7618      7620
      7615      7618      7621      7619      7618      7620      7619      7618      7621
      7620      7618      7621      7618      7621      7622      7618      7621      7623
      7618      7621      7624      7622      7621      7623      7622      7621      7624
      7623      7621      7624      7621      7624      7625      7621      7624      7626
      7625      7624      7626      7624      7626      7627      7624      7626      7628
      7627      7626      7628      7626      7628      7629      7626      7628      7630
      7626      7628      7631      7629      7628      7630      7629      7628      7631
      7630      7628      7631      7628      7631      7632      7628      7631      7633
      7628      7631      7634      7632      7631      7633      7632      7631      7634
      7633      7631      7634      7631      7634      7635      7631      7634      7636
      7631      7634      7637      7635      7634      7636      7635      7634      7637
      7636      7634      7637      7634      7637      7638      7634      7637      7639
      7634      7637      7640      7638      7637      7639      7638      7637      7640
      7639      7637      7640      7637      7640      7641      7637      7640      7642
      7637      7640      7643      7641      7640      7642      7641      7640      7643
      7642      7640      7643      7640      7643      7644      7640      7643      7645
      7640      7643      7646      7644      7643      7645      7644      7643      7646
      7645      7643      7646      7643      7646      7647      7643      7646      7648
      7643      7646      7649      7647      7646      7648      7647      7646      7649
      7648      7646      7649      7646      7649      7650      7646      7649      7651
      7646      7649      7652      7650      7649      7651      7650      7649      7652
      7651      7649      7652      7603      7653      7654      7603      7653      7655
      7603      7653      7656      7654      7653      7655      7654      7653      7656
      7655      7653      7656      7653      7656      7657      7653      7656      7658
      7653      7656      7659      7657      7656      7658      7657      7656      7659
      7658      7656      7659      7656      7659      7660      7656      7659      7661
      7656      7659      7662      7660      7659      7661      7660      7659      7662
      7661      7659      7662      7659      7662      7663      7659      7662      7664
      7659      7662      7665      7663      7662      7664      7663      7662      7665
      7664      7662      7665      7662      7665      7666      7662      7665      7667
      7662      7665      7668      7666      7665      7667      7666      7665      7668
      7667      7665      7668      7665      7668      7669      7665      7668      7670
      7665      7668      7671      7669      7668      7670      7669      7668      7671
      7670      7668      7671      7668      7671      7672      7668      7671      7673
      7668      7671      7674      7672      7671      7673      7672      7671      7674
      7673      7671      7674      7671      7674      7675      7671      7674      7676
      7671      7674      7677      7675      7674      7676      7675      7674      7677
      7676      7674      7677      7674      7677      7678      7674      7677      7679
      7674      7677      7680      7678      7677      7679      7678      7677      7680
      7679      7677      7680      7677      7680      7681      7677      7680      7682
      7677      7680      7683      7681      7680      7682      7681      7680      7683
      7682      7680      7683      7680      7683      7684      7680      7683      7685
      7680      7683      7686      7684      7683      7685      7684      7683      7686
      7685      7683      7686      7683      7686      7687      7683      7686      7688
      7683      7686      7689      7687      7686      7688      7687      7686      7689
      7688      7686      7689      7686      7689      7690      7686      7689      7691
      7686      7689      7692      7690      7689      7691      7690      7689      7692
      7691      7689      7692      7689      7692      7693      7689      7692      7694
      7689      7692      7695      7693      7692      7694      7693      7692      7695
      7694      7692      7695      7697      7696      7700      7697      7696      7704
      7697      7696      7708      7700      7696      7704      7700      7696      7708
      7704      7696      7708      7696      7697      7698      7696      7697      7699
      7696      7697      7712      7698      7697      7699      7698      7697      7712
      7699      7697      7712      7696      7700      7701      7696      7700      7702
      7696      7700      7703      7701      7700      7702      7701      7700      7703
      7702      7700      7703      7696      7704      7705      7696      7704      7706
      7696      7704      7707      7705      7704      7706      7705      7704      7707
      7706      7704      7707      7696      7708      7709      7696      7708      7710
      7696      7708      7711      7709      7708      7710      7709      7708      7711
      7710      7708      7711      7697      7712      7713      7697      7712      7714
      7697      7712      7718      7713      7712      7714      7713      7712      7718
      7714      7712      7718      7716      7715      7717      7716      7715      7718
      7716      7715      7719      7717      7715      7718      7717      7715      7719
      7718      7715      7719      7712      7718      7715      7715      7719      7720
      7719      7720      7721      7719      7720      7722      7719      7720      7723
      7721      7720      7722      7721      7720      7723      7722      7720      7723
      7720      7723      7724      7720      7723      7725      7720      7723      7731
      7724      7723      7725      7724      7723      7731      7725      7723      7731
      7723      7725      7726      7725      7726      7727      7725      7726      7728
      7727      7726      7728      7726      7728      7729      7726      7728      7730
      7726      7728      7740      7729      7728      7730      7729      7728      7740
      7730      7728      7740      7723      7731      7732      7723      7731      7733
      7723      7731      7734      7732      7731      7733      7732      7731      7734
      7733      7731      7734      7731      7734      7735      7734      7735      7736
      7734      7735      7737      7736      7735      7737      7735      7737      7738
      7735      7737      7739      7735      7737      7787      7738      7737      7739
      7738      7737      7787      7739      7737      7787      7728      7740      7741
      7728      7740      7742      7728      7740      7743      7741      7740      7742
      7741      7740      7743      7742      7740      7743      7740      7743      7744
      7740      7743      7745      7740      7743      7746      7744      7743      7745
      7744      7743      7746      7745      7743      7746      7743      7746      7747
      7743      7746      7748      7743      7746      7749      7747      7746      7748
      7747      7746      7749      7748      7746      7749      7746      7749      7750
      7746      7749      7751      7746      7749      7752      7750      7749      7751
      7750      7749      7752      7751      7749      7752      7749      7752      7753
      7749      7752      7754      7749      7752      7755      7753      7752      7754
      7753      7752      7755      7754      7752      7755      7752      7755      7756
      7752      7755      7757      7752      7755      7758      7756      7755      7757
      7756      7755      7758      7757      7755      7758      7755      7758      7759
      7755      7758      7760      7759      7758      7760      7758      7760      7761
      7758      7760      7762      7761      7760      7762      7760      7762      7763
      7760      7762      7764      7760      7762      7765      7763      7762      7764
      7763      7762      7765      7764      7762      7765      7762      7765      7766
      7762      7765      7767      7762      7765      7768      7766      7765      7767
      7766      7765      7768      7767      7765      7768      7765      7768      7769
      7765      7768      7770      7765      7768      7771      7769      7768      7770
      7769      7768      7771      7770      7768      7771      7768      7771      7772
      7768      7771      7773      7768      7771      7774      7772      7771      7773
      7772      7771      7774      7773      7771      7774      7771      7774      7775
      7771      7774      7776      7771      7774      7777      7775      7774      7776
      7775      7774      7777      7776      7774      7777      7774      7777      7778
      7774      7777      7779      7774      7777      7780      7778      7777      7779
      7778      7777      7780      7779      7777      7780      7777      7780      7781
      7777      7780      7782      7777      7780      7783      7781      7780      7782
      7781      7780      7783      7782      7780      7783      7780      7783      7784
      7780      7783      7785      7780      7783      7786      7784      7783      7785
      7784      7783      7786      7785      7783      7786      7737      7787      7788
      7737      7787      7789      7737      7787      7790      7788      7787      7789
      7788      7787      7790      7789      7787      7790      7787      7790      7791
      7787      7790      7792      7787      7790      7793      7791      7790      7792
      7791      7790      7793      7792      7790      7793      7790      7793      7794
      7790      7793      7795      7790      7793      7796      7794      7793      7795
      7794      7793      7796      7795      7793      7796      7793      7796      7797
      7793      7796      7798      7793      7796      7799      7797      7796      7798
      7797      7796      7799      7798      7796      7799      7796      7799      7800
      7796      7799      7801      7796      7799      7802      7800      7799      7801
      7800      7799      7802      7801      7799      7802      7799      7802      7803
      7799      7802      7804      7799      7802      7805      7803      7802      7804
      7803      7802      7805      7804      7802      7805      7802      7805      7806
      7802      7805      7807      7802      7805      7808      7806      7805      7807
      7806      7805      7808      7807      7805      7808      7805      7808      7809
      7805      7808      7810      7805      7808      7811      7809      7808      7810
      7809      7808      7811      7810      7808      7811      7808      7811      7812
      7808      7811      7813      7808      7811      7814      7812      7811      7813
      7812      7811      7814      7813      7811      7814      7811      7814      7815
      7811      7814      7816      7811      7814      7817      7815      7814      7816
      7815      7814      7817      7816      7814      7817      7814      7817      7818
      7814      7817      7819      7814      7817      7820      7818      7817      7819
      7818      7817      7820      7819      7817      7820      7817      7820      7821
      7817      7820      7822      7817      7820      7823      7821      7820      7822
      7821      7820      7823      7822      7820      7823      7820      7823      7824
      7820      7823      7825      7820      7823      7826      7824      7823      7825
      7824      7823      7826      7825      7823      7826      7823      7826      7827
      7823      7826      7828      7823      7826      7829      7827      7826      7828
      7827      7826      7829      7828      7826      7829      7831      7830      7834
      7831      7830      7838      7831      7830      7842      7834      7830      7838
      7834      7830      7842      7838      7830      7842      7830      7831      7832
      7830      7831      7833      7830      7831      7846      7832      7831      7833
      7832      7831      7846      7833      7831      7846      7830      7834      7835
      7830      7834      7836      7830      7834      7837      7835      7834      7836
      7835      7834      7837      7836      7834      7837      7830      7838      7839
      7830      7838      7840      7830      7838      7841      7839      7838      7840
      7839      7838      7841      7840      7838      7841      7830      7842      7843
      7830      7842      7844      7830      7842      7845      7843      7842      7844
      7843      7842      7845      7844      7842      7845      7831      7846      7847
      7831      7846      7848      7831      7846      7852      7847      7846      7848
      7847      7846      7852      7848      7846      7852      7850      7849      7851
      7850      7849      7852      7850      7849      7853      7851      7849      7852
      7851      7849      7853      7852      7849      7853      7846      7852      7849
      7849      7853      7854      7853      7854      7855      7853      7854      7856
      7853      7854      7857      7855      7854      7856      7855      7854      7857
      7856      7854      7857      7854      7857      7858      7854      7857      7859
      7854      7857      7865      7858      7857      7859      7858      7857      7865
      7859      7857      7865      7857      7859      7860      7859      7860      7861
      7859      7860      7862      7861      7860      7862      7860      7862      7863
      7860      7862      7864      7860      7862      7874      7863      7862      7864
      7863      7862      7874      7864      7862      7874      7857      7865      7866
      7857      7865      7867      7857      7865      7868      7866      7865      7867
      7866      7865      7868      7867      7865      7868      7865      7868      7869
      7868      7869      7870      7868      7869      7871      7870      7869      7871
      7869      7871      7872      7869      7871      7873      7869      7871      7921
      7872      7871      7873      7872      7871      7921      7873      7871      7921
      7862      7874      7875      7862      7874      7876      7862      7874      7877
      7875      7874      7876      7875      7874      7877      7876      7874      7877
      7874      7877      7878      7874      7877      7879      7874      7877      7880
      7878      7877      7879      7878      7877      7880      7879      7877      7880
      7877      7880      7881      7877      7880      7882      7877      7880      7883
      7881      7880      7882      7881      7880      7883      7882      7880      7883
      7880      7883      7884      7880      7883      7885      7880      7883      7886
      7884      7883      7885      7884      7883      7886      7885      7883      7886
      7883      7886      7887      7883      7886      7888      7883      7886      7889
      7887      7886      7888      7887      7886      7889      7888      7886      7889
      7886      7889      7890      7886      7889      7891      7886      7889      7892
      7890      7889      7891      7890      7889      7892      7891      7889      7892
      7889      7892      7893      7889      7892      7894      7893      7892      7894
      7892      7894      7895      7892      7894      7896      7895      7894      7896
      7894      7896      7897      7894      7896      7898      7894      7896      7899
      7897      7896      7898      7897      7896      7899      7898      7896      7899
      7896      7899      7900      7896      7899      7901      7896      7899      7902
      7900      7899      7901      7900      7899      7902      7901      7899      7902
      7899      7902      7903      7899      7902      7904      7899      7902      7905
      7903      7902      7904      7903      7902      7905      7904      7902      7905
      7902      7905      7906      7902      7905      7907      7902      7905      7908
      7906      7905      7907      7906      7905      7908      7907      7905      7908
      7905      7908      7909      7905      7908      7910      7905      7908      7911
      7909      7908      7910      7909      7908      7911      7910      7908      7911
      7908      7911      7912      7908      7911      7913      7908      7911      7914
      7912      7911      7913      7912      7911      7914      7913      7911      7914
      7911      7914      7915      7911      7914      7916      7911      7914      7917
      7915      7914      7916      7915      7914      7917      7916      7914      7917
      7914      7917      7918      7914      7917      7919      7914      7917      7920
      7918      7917      7919      7918      7917      7920      7919      7917      7920
      7871      7921      7922      7871      7921      7923      7871      7921      7924
      7922      7921      7923      7922      7921      7924      7923      7921      7924
      7921      7924      7925      7921      7924      7926      7921      7924      7927
      7925      7924      7926      7925      7924      7927      7926      7924      7927
      7924      7927      7928      7924      7927      7929      7924      7927      7930
      7928      7927      7929      7928      7927      7930      7929      7927      7930
      7927      7930      7931      7927      7930      7932      7927      7930      7933
      7931      7930      7932      7931      7930      7933      7932      7930      7933
      7930      7933      7934      7930      7933      7935      7930      7933      7936
      7934      7933      7935      7934      7933      7936      7935      7933      7936
      7933      7936      7937      7933      7936      7938      7933      7936      7939
      7937      7936      7938      7937      7936      7939      7938      7936      7939
      7936      7939      7940      7936      7939      7941      7936      7939      7942
      7940      7939      7941      7940      7939      7942      7941      7939      7942
      7939      7942      7943      7939      7942      7944      7939      7942      7945
      7943      7942      7944      7943      7942      7945      7944      7942      7945
      7942      7945      7946      7942      7945      7947      7942      7945      7948
      7946      7945      7947      7946      7945      7948      7947      7945      7948
      7945      7948      7949      7945      7948      7950      7945      7948      7951
      7949      7948      7950      7949      7948      7951      7950      7948      7951
      7948      7951      7952      7948      7951      7953      7948      7951      7954
      7952      7951      7953      7952      7951      7954      7953      7951      7954
      7951      7954      7955      7951      7954      7956      7951      7954      7957
      7955      7954      7956      7955      7954      7957      7956      7954      7957
      7954      7957      7958      7954      7957      7959      7954      7957      7960
      7958      7957      7959      7958      7957      7960      7959      7957      7960
      7957      7960      7961      7957      7960      7962      7957      7960      7963
      7961      7960      7962      7961      7960      7963      7962      7960      7963
      7965      7964      7968      7965      7964      7972      7965      7964      7976
      7968      7964      7972      7968      7964      7976      7972      7964      7976
      7964      7965      7966      7964      7965      7967      7964      7965      7980
      7966      7965      7967      7966      7965      7980      7967      7965      7980
      7964      7968      7969      7964      7968      7970      7964      7968      7971
      7969      7968      7970      7969      7968      7971      7970      7968      7971
      7964      7972      7973      7964      7972      7974      7964      7972      7975
      7973      7972      7974      7973      7972      7975      7974      7972      7975
      7964      7976      7977      7964      7976      7978      7964      7976      7979
      7977      7976      7978      7977      7976      7979      7978      7976      7979
      7965      7980      7981      7965      7980      7982      7965      7980      7986
      7981      7980      7982      7981      7980      7986      7982      7980      7986
      7984      7983      7985      7984      7983      7986      7984      7983      7987
      7985      7983      7986      7985      7983      7987      7986      7983      7987
      7980      7986      7983      7983      7987      7988      7987      7988      7989
      7987      7988      7990      7987      7988      7991      7989      7988      7990
      7989      7988      7991      7990      7988      7991      7988      7991      7992
      7988      7991      7993      7988      7991      7999      7992      7991      7993
      7992      7991      7999      7993      7991      7999      7991      7993      7994
      7993      7994      7995      7993      7994      7996      7995      7994      7996
      7994      7996      7997      7994      7996      7998      7994      7996      8008
      7997      7996      7998      7997      7996      8008      7998      7996      8008
      7991      7999      8000      7991      7999      8001      7991      7999      8002
      8000      7999      8001      8000      7999      8002      8001      7999      8002
      7999      8002      8003      8002      8003      8004      8002      8003      8005
      8004      8003      8005      8003      8005      8006      8003      8005      8007
      8003      8005      8055      8006      8005      8007      8006      8005      8055
      8007      8005      8055      7996      8008      8009      7996      8008      8010
      7996      8008      8011      8009      8008      8010      8009      8008      8011
      8010      8008      8011      8008      8011      8012      8008      8011      8013
      8008      8011      8014      8012      8011      8013      8012      8011      8014
      8013      8011      8014      8011      8014      8015      8011      8014      8016
      8011      8014      8017      8015      8014      8016      8015      8014      8017
      8016      8014      8017      8014      8017      8018      8014      8017      8019
      8014      8017      8020      8018      8017      8019      8018      8017      8020
      8019      8017      8020      8017      8020      8021      8017      8020      8022
      8017      8020      8023      8021      8020      8022      8021      8020      8023
      8022      8020      8023      8020      8023      8024      8020      8023      8025
      8020      8023      8026      8024      8023      8025      8024      8023      8026
      8025      8023      8026      8023      8026      8027      8023      8026      8028
      8027      8026      8028      8026      8028      8029      8026      8028      8030
      8029      8028      8030      8028      8030      8031      8028      8030      8032
      8028      8030      8033      8031      8030      8032      8031      8030      8033
      8032      8030      8033      8030      8033      8034      8030      8033      8035
      8030      8033      8036      8034      8033      8035      8034      8033      8036
      8035      8033      8036      8033      8036      8037      8033      8036      8038
      8033      8036      8039      8037      8036      8038      8037      8036      8039
      8038      8036      8039      8036      8039      8040      8036      8039      8041
      8036      8039      8042      8040      8039      8041      8040      8039      8042
      8041      8039      8042      8039      8042      8043      8039      8042      8044
      8039      8042      8045      8043      8042      8044      8043      8042      8045
      8044      8042      8045      8042      8045      8046      8042      8045      8047
      8042      8045      8048      8046      8045      8047      8046      8045      8048
      8047      8045      8048      8045      8048      8049      8045      8048      8050
      8045      8048      8051      8049      8048      8050      8049      8048      8051
      8050      8048      8051      8048      8051      8052      8048      8051      8053
      8048      8051      8054      8052      8051      8053      8052      8051      8054
      8053      8051      8054      8005      8055      8056      8005      8055      8057
      8005      8055      8058      8056      8055      8057      8056      8055      8058
      8057      8055      8058      8055      8058      8059      8055      8058      8060
      8055      8058      8061      8059      8058      8060      8059      8058      8061
      8060      8058      8061      8058      8061      8062      8058      8061      8063
      8058      8061      8064      8062      8061      8063      8062      8061      8064
      8063      8061      8064      8061      8064      8065      8061      8064      8066
      8061      8064      8067      8065      8064      8066      8065      8064      8067
      8066      8064      8067      8064      8067      8068      8064      8067      8069
      8064      8067      8070      8068      8067      8069      8068      8067      8070
      8069      8067      8070      8067      8070      8071      8067      8070      8072
      8067      8070      8073      8071      8070      8072      8071      8070      8073
      8072      8070      8073      8070      8073      8074      8070      8073      8075
      8070      8073      8076      8074      8073      8075      8074      8073      8076
      8075      8073      8076      8073      8076      8077      8073      8076      8078
      8073      8076      8079      8077      8076      8078      8077      8076      8079
      8078      8076      8079      8076      8079      8080      8076      8079      8081
      8076      8079      8082      8080      8079      8081      8080      8079      8082
      8081      8079      8082      8079      8082      8083      8079      8082      8084
      8079      8082      8085      8083      8082      8084      8083      8082      8085
      8084      8082      8085      8082      8085      8086      8082      8085      8087
      8082      8085      8088      8086      8085      8087      8086      8085      8088
      8087      8085      8088      8085      8088      8089      8085      8088      8090
      8085      8088      8091      8089      8088      8090      8089      8088      8091
      8090      8088      8091      8088      8091      8092      8088      8091      8093
      8088      8091      8094      8092      8091      8093      8092      8091      8094
      8093      8091      8094      8091      8094      8095      8091      8094      8096
      8091      8094      8097      8095      8094      8096      8095      8094      8097
      8096      8094      8097      8099      8098      8100      8099      8098      8101
      8099      8098      8102      8100      8098      8101      8100      8098      8102
      8101      8098      8102      8098      8102      8103      8098      8102      8104
      8098      8102      8107      8103      8102      8104      8103      8102      8107
      8104      8102      8107      8102      8104      8105      8102      8104      8106
      8105      8104      8106      8102      8107      8108      8102      8107      8109
      8102      8107      8113      8108      8107      8109      8108      8107      8113
      8109      8107      8113      8111      8110      8112      8111      8110      8113
      8111      8110      8114      8112      8110      8113      8112      8110      8114
      8113      8110      8114      8107      8113      8110      8110      8114      8115
      8114      8115      8116      8114      8115      8117      8114      8115      8118
      8116      8115      8117      8116      8115      8118      8117      8115      8118
      8115      8118      8119      8115      8118      8120      8115      8118      8126
      8119      8118      8120      8119      8118      8126      8120      8118      8126
      8118      8120      8121      8120      8121      8122      8120      8121      8123
      8122      8121      8123      8121      8123      8124      8121      8123      8125
      8121      8123      8135      8124      8123      8125      8124      8123      8135
      8125      8123      8135      8118      8126      8127      8118      8126      8128
      8118      8126      8129      8127      8126      8128      8127      8126      8129
      8128      8126      8129      8126      8129      8130      8129      8130      8131
      8129      8130      8132      8131      8130      8132      8130      8132      8133
      8130      8132      8134      8130      8132      8182      8133      8132      8134
      8133      8132      8182      8134      8132      8182      8123      8135      8136
      8123      8135      8137      8123      8135      8138      8136      8135      8137
      8136      8135      8138      8137      8135      8138      8135      8138      8139
      8135      8138      8140      8135      8138      8141      8139      8138      8140
      8139      8138      8141      8140      8138      8141      8138      8141      8142
      8138      8141      8143      8138      8141      8144      8142      8141      8143
      8142      8141      8144      8143      8141      8144      8141      8144      8145
      8141      8144      8146      8141      8144      8147      8145      8144      8146
      8145      8144      8147      8146      8144      8147      8144      8147      8148
      8144      8147      8149      8144      8147      8150      8148      8147      8149
      8148      8147      8150      8149      8147      8150      8147      8150      8151
      8147      8150      8152      8147      8150      8153      8151      8150      8152
      8151      8150      8153      8152      8150      8153      8150      8153      8154
      8150      8153      8155      8154      8153      8155      8153      8155      8156
      8153      8155      8157      8156      8155      8157      8155      8157      8158
      8155      8157      8159      8155      8157      8160      8158      8157      8159
      8158      8157      8160      8159      8157      8160      8157      8160      8161
      8157      8160      8162      8157      8160      8163      8161      8160      8162
      8161      8160      8163      8162      8160      8163      8160      8163      8164
      8160      8163      8165      8160      8163      8166      8164      8163      8165
      8164      8163      8166      8165      8163      8166      8163      8166      8167
      8163      8166      8168      8163      8166      8169      8167      8166      8168
      8167      8166      8169      8168      8166      8169      8166      8169      8170
      8166      8169      8171      8166      8169      8172      8170      8169      8171
      8170      8169      8172      8171      8169      8172      8169      8172      8173
      8169      8172      8174      8169      8172      8175      8173      8172      8174
      8173      8172      8175      8174      8172      8175      8172      8175      8176
      8172      8175      8177      8172      8175      8178      8176      8175      8177
      8176      8175      8178      8177      8175      8178      8175      8178      8179
      8175      8178      8180      8175      8178      8181      8179      8178      8180
      8179      8178      8181      8180      8178      8181      8132      8182      8183
      8132      8182      8184      8132      8182      8185      8183      8182      8184
      8183      8182      8185      8184      8182      8185      8182      8185      8186
      8182      8185      8187      8182      8185      8188      8186      8185      8187
      8186      8185      8188      8187      8185      8188      8185      8188      8189
      8185      8188      8190      8185      8188      8191      8189      8188      8190
      8189      8188      8191      8190      8188      8191      8188      8191      8192
      8188      8191      8193      8188      8191      8194      8192      8191      8193
      8192      8191      8194      8193      8191      8194      8191      8194      8195
      8191      8194      8196      8191      8194      8197      8195      8194      8196
      8195      8194      8197      8196      8194      8197      8194      8197      8198
      8194      8197      8199      8194      8197      8200      8198      8197      8199
      8198      8197      8200      8199      8197      8200      8197      8200      8201
      8197      8200      8202      8197      8200      8203      8201      8200      8202
      8201      8200      8203      8202      8200      8203      8200      8203      8204
      8200      8203      8205      8200      8203      8206      8204      8203      8205
      8204      8203      8206      8205      8203      8206      8203      8206      8207
      8203      8206      8208      8203      8206      8209      8207      8206      8208
      8207      8206      8209      8208      8206      8209      8206      8209      8210
      8206      8209      8211      8206      8209      8212      8210      8209      8211
      8210      8209      8212      8211      8209      8212      8209      8212      8213
      8209      8212      8214      8209      8212      8215      8213      8212      8214
      8213      8212      8215      8214      8212      8215      8212      8215      8216
      8212      8215      8217      8212      8215      8218      8216      8215      8217
      8216      8215      8218      8217      8215      8218      8215      8218      8219
      8215      8218      8220      8215      8218      8221      8219      8218      8220
      8219      8218      8221      8220      8218      8221      8218      8221      8222
      8218      8221      8223      8218      8221      8224      8222      8221      8223
      8222      8221      8224      8223      8221      8224      8226      8225      8229
      8226      8225      8233      8226      8225      8237      8229      8225      8233
      8229      8225      8237      8233      8225      8237      8225      8226      8227
      8225      8226      8228      8225      8226      8241      8227      8226      8228
      8227      8226      8241      8228      8226      8241      8225      8229      8230
      8225      8229      8231      8225      8229      8232      8230      8229      8231
      8230      8229      8232      8231      8229      8232      8225      8233      8234
      8225      8233      8235      8225      8233      8236      8234      8233      8235
      8234      8233      8236      8235      8233      8236      8225      8237      8238
      8225      8237      8239      8225      8237      8240      8238      8237      8239
      8238      8237      8240      8239      8237      8240      8226      8241      8242
      8226      8241      8243      8226      8241      8247      8242      8241      8243
      8242      8241      8247      8243      8241      8247      8245      8244      8246
      8245      8244      8247      8245      8244      8248      8246      8244      8247
      8246      8244      8248      8247      8244      8248      8241      8247      8244
      8244      8248      8249      8248      8249      8250      8248      8249      8251
      8248      8249      8252      8250      8249      8251      8250      8249      8252
      8251      8249      8252      8249      8252      8253      8249      8252      8254
      8249      8252      8260      8253      8252      8254      8253      8252      8260
      8254      8252      8260      8252      8254      8255      8254      8255      8256
      8254      8255      8257      8256      8255      8257      8255      8257      8258
      8255      8257      8259      8255      8257      8269      8258      8257      8259
      8258      8257      8269      8259      8257      8269      8252      8260      8261
      8252      8260      8262      8252      8260      8263      8261      8260      8262
      8261      8260      8263      8262      8260      8263      8260      8263      8264
      8263      8264      8265      8263      8264      8266      8265      8264      8266
      8264      8266      8267      8264      8266      8268      8264      8266      8316
      8267      8266      8268      8267      8266      8316      8268      8266      8316
      8257      8269      8270      8257      8269      8271      8257      8269      8272
      8270      8269      8271      8270      8269      8272      8271      8269      8272
      8269      8272      8273      8269      8272      8274      8269      8272      8275
      8273      8272      8274      8273      8272      8275      8274      8272      8275
      8272      8275      8276      8272      8275      8277      8272      8275      8278
      8276      8275      8277      8276      8275      8278      8277      8275      8278
      8275      8278      8279      8275      8278      8280      8275      8278      8281
      8279      8278      8280      8279      8278      8281      8280      8278      8281
      8278      8281      8282      8278      8281      8283      8278      8281      8284
      8282      8281      8283      8282      8281      8284      8283      8281      8284
      8281      8284      8285      8281      8284      8286      8281      8284      8287
      8285      8284      8286      8285      8284      8287      8286      8284      8287
      8284      8287      8288      8284      8287      8289      8288      8287      8289
      8287      8289      8290      8287      8289      8291      8290      8289      8291
      8289      8291      8292      8289      8291      8293      8289      8291      8294
      8292      8291      8293      8292      8291      8294      8293      8291      8294
      8291      8294      8295      8291      8294      8296      8291      8294      8297
      8295      8294      8296      8295      8294      8297      8296      8294      8297
      8294      8297      8298      8294      8297      8299      8294      8297      8300
      8298      8297      8299      8298      8297      8300      8299      8297      8300
      8297      8300      8301      8297      8300      8302      8297      8300      8303
      8301      8300      8302      8301      8300      8303      8302      8300      8303
      8300      8303      8304      8300      8303      8305      8300      8303      8306
      8304      8303      8305      8304      8303      8306      8305      8303      8306
      8303      8306      8307      8303      8306      8308      8303      8306      8309
      8307      8306      8308      8307      8306      8309      8308      8306      8309
      8306      8309      8310      8306      8309      8311      8306      8309      8312
      8310      8309      8311      8310      8309      8312      8311      8309      8312
      8309      8312      8313      8309      8312      8314      8309      8312      8315
      8313      8312      8314      8313      8312      8315      8314      8312      8315
      8266      8316      8317      8266      8316      8318      8266      8316      8319
      8317      8316      8318      8317      8316      8319      8318      8316      8319
      8316      8319      8320      8316      8319      8321      8316      8319      8322
      8320      8319      8321      8320      8319      8322      8321      8319      8322
      8319      8322      8323      8319      8322      8324      8319      8322      8325
      8323      8322      8324      8323      8322      8325      8324      8322      8325
      8322      8325      8326      8322      8325      8327      8322      8325      8328
      8326      8325      8327      8326      8325      8328      8327      8325      8328
      8325      8328      8329      8325      8328      8330      8325      8328      8331
      8329      8328      8330      8329      8328      8331      8330      8328      8331
      8328      8331      8332      8328      8331      8333      8328      8331      8334
      8332      8331      8333      8332      8331      8334      8333      8331      8334
      8331      8334      8335      8331      8334      8336      8331      8334      8337
      8335      8334      8336      8335      8334      8337      8336      8334      8337
      8334      8337      8338      8334      8337      8339      8334      8337      8340
      8338      8337      8339      8338      8337      8340      8339      8337      8340
      8337      8340      8341      8337      8340      8342      8337      8340      8343
      8341      8340      8342      8341      8340      8343      8342      8340      8343
      8340      8343      8344      8340      8343      8345      8340      8343      8346
      8344      8343      8345      8344      8343      8346      8345      8343      8346
      8343      8346      8347      8343      8346      8348      8343      8346      8349
      8347      8346      8348      8347      8346      8349      8348      8346      8349
      8346      8349      8350      8346      8349      8351      8346      8349      8352
      8350      8349      8351      8350      8349      8352      8351      8349      8352
      8349      8352      8353      8349      8352      8354      8349      8352      8355
      8353      8352      8354      8353      8352      8355      8354      8352      8355
      8352      8355      8356      8352      8355      8357      8352      8355      8358
      8356      8355      8357      8356      8355      8358      8357      8355      8358
      8360      8359      8363      8360      8359      8367      8360      8359      8371
      8363      8359      8367      8363      8359      8371      8367      8359      8371
      8359      8360      8361      8359      8360      8362      8359      8360      8375
      8361      8360      8362      8361      8360      8375      8362      8360      8375
      8359      8363      8364      8359      8363      8365      8359      8363      8366
      8364      8363      8365      8364      8363      8366      8365      8363      8366
      8359      8367      8368      8359      8367      8369      8359      8367      8370
      8368      8367      8369      8368      8367      8370      8369      8367      8370
      8359      8371      8372      8359      8371      8373      8359      8371      8374
      8372      8371      8373      8372      8371      8374      8373      8371      8374
      8360      8375      8376      8360      8375      8377      8360      8375      8381
      8376      8375      8377      8376      8375      8381      8377      8375      8381
      8379      8378      8380      8379      8378      8381      8379      8378      8382
      8380      8378      8381      8380      8378      8382      8381      8378      8382
      8375      8381      8378      8378      8382      8383      8382      8383      8384
      8382      8383      8385      8382      8383      8386      8384      8383      8385
      8384      8383      8386      8385      8383      8386      8383      8386      8387
      8383      8386      8388      8383      8386      8394      8387      8386      8388
      8387      8386      8394      8388      8386      8394      8386      8388      8389
      8388      8389      8390      8388      8389      8391      8390      8389      8391
      8389      8391      8392      8389      8391      8393      8389      8391      8403
      8392      8391      8393      8392      8391      8403      8393      8391      8403
      8386      8394      8395      8386      8394      8396      8386      8394      8397
      8395      8394      8396      8395      8394      8397      8396      8394      8397
      8394      8397      8398      8397      8398      8399      8397      8398      8400
      8399      8398      8400      8398      8400      8401      8398      8400      8402
      8398      8400      8450      8401      8400      8402      8401      8400      8450
      8402      8400      8450      8391      8403      8404      8391      8403      8405
      8391      8403      8406      8404      8403      8405      8404      8403      8406
      8405      8403      8406      8403      8406      8407      8403      8406      8408
      8403      8406      8409      8407      8406      8408      8407      8406      8409
      8408      8406      8409      8406      8409      8410      8406      8409      8411
      8406      8409      8412      8410      8409      8411      8410      8409      8412
      8411      8409      8412      8409      8412      8413      8409      8412      8414
      8409      8412      8415      8413      8412      8414      8413      8412      8415
      8414      8412      8415      8412      8415      8416      8412      8415      8417
      8412      8415      8418      8416      8415      8417      8416      8415      8418
      8417      8415      8418      8415      8418      8419      8415      8418      8420
      8415      8418      8421      8419      8418      8420      8419      8418      8421
      8420      8418      8421      8418      8421      8422      8418      8421      8423
      8422      8421      8423      8421      8423      8424      8421      8423      8425
      8424      8423      8425      8423      8425      8426      8423      8425      8427
      8423      8425      8428      8426      8425      8427      8426      8425      8428
      8427      8425      8428      8425      8428      8429      8425      8428      8430
      8425      8428      8431      8429      8428      8430      8429      8428      8431
      8430      8428      8431      8428      8431      8432      8428      8431      8433
      8428      8431      8434      8432      8431      8433      8432      8431      8434
      8433      8431      8434      8431      8434      8435      8431      8434      8436
      8431      8434      8437      8435      8434      8436      8435      8434      8437
      8436      8434      8437      8434      8437      8438      8434      8437      8439
      8434      8437      8440      8438      8437      8439      8438      8437      8440
      8439      8437      8440      8437      8440      8441      8437      8440      8442
      8437      8440      8443      8441      8440      8442      8441      8440      8443
      8442      8440      8443      8440      8443      8444      8440      8443      8445
      8440      8443      8446      8444      8443      8445      8444      8443      8446
      8445      8443      8446      8443      8446      8447      8443      8446      8448
      8443      8446      8449      8447      8446      8448      8447      8446      8449
      8448      8446      8449      8400      8450      8451      8400      8450      8452
      8400      8450      8453      8451      8450      8452      8451      8450      8453
      8452      8450      8453      8450      8453      8454      8450      8453      8455
      8450      8453      8456      8454      8453      8455      8454      8453      8456
      8455      8453      8456      8453      8456      8457      8453      8456      8458
      8453      8456      8459      8457      8456      8458      8457      8456      8459
      8458      8456      8459      8456      8459      8460      8456      8459      8461
      8456      8459      8462      8460      8459      8461      8460      8459      8462
      8461      8459      8462      8459      8462      8463      8459      8462      8464
      8459      8462      8465      8463      8462      8464      8463      8462      8465
      8464      8462      8465      8462      8465      8466      8462      8465      8467
      8462      8465      8468      8466      8465      8467      8466      8465      8468
      8467      8465      8468      8465      8468      8469      8465      8468      8470
      8465      8468      8471      8469      8468      8470      8469      8468      8471
      8470      8468      8471      8468      8471      8472      8468      8471      8473
      8468      8471      8474      8472      8471      8473      8472      8471      8474
      8473      8471      8474      8471      8474      8475      8471      8474      8476
      8471      8474      8477      8475      8474      8476      8475      8474      8477
      8476      8474      8477      8474      8477      8478      8474      8477      8479
      8474      8477      8480      8478      8477      8479      8478      8477      8480
      8479      8477      8480      8477      8480      8481      8477      8480      8482
      8477      8480      8483      8481      8480      8482      8481      8480      8483
      8482      8480      8483      8480      8483      8484      8480      8483      8485
      8480      8483      8486      8484      8483      8485      8484      8483      8486
      8485      8483      8486      8483      8486      8487      8483      8486      8488
      8483      8486      8489      8487      8486      8488      8487      8486      8489
      8488      8486      8489      8486      8489      8490      8486      8489      8491
      8486      8489      8492      8490      8489      8491      8490      8489      8492
      8491      8489      8492      8494      8493      8497      8494      8493      8501
      8494      8493      8505      8497      8493      8501      8497      8493      8505
      8501      8493      8505      8493      8494      8495      8493      8494      8496
      8493      8494      8509      8495      8494      8496      8495      8494      8509
      8496      8494      8509      8493      8497      8498      8493      8497      8499
      8493      8497      8500      8498      8497      8499      8498      8497      8500
      8499      8497      8500      8493      8501      8502      8493      8501      8503
      8493      8501      8504      8502      8501      8503      8502      8501      8504
      8503      8501      8504      8493      8505      8506      8493      8505      8507
      8493      8505      8508      8506      8505      8507      8506      8505      8508
      8507      8505      8508      8494      8509      8510      8494      8509      8511
      8494      8509      8515      8510      8509      8511      8510      8509      8515
      8511      8509      8515      8513      8512      8514      8513      8512      8515
      8513      8512      8516      8514      8512      8515      8514      8512      8516
      8515      8512      8516      8509      8515      8512      8512      8516      8517
      8516      8517      8518      8516      8517      8519      8516      8517      8520
      8518      8517      8519      8518      8517      8520      8519      8517      8520
      8517      8520      8521      8517      8520      8522      8517      8520      8528
      8521      8520      8522      8521      8520      8528      8522      8520      8528
      8520      8522      8523      8522      8523      8524      8522      8523      8525
      8524      8523      8525      8523      8525      8526      8523      8525      8527
      8523      8525      8537      8526      8525      8527      8526      8525      8537
      8527      8525      8537      8520      8528      8529      8520      8528      8530
      8520      8528      8531      8529      8528      8530      8529      8528      8531
      8530      8528      8531      8528      8531      8532      8531      8532      8533
      8531      8532      8534      8533      8532      8534      8532      8534      8535
      8532      8534      8536      8532      8534      8584      8535      8534      8536
      8535      8534      8584      8536      8534      8584      8525      8537      8538
      8525      8537      8539      8525      8537      8540      8538      8537      8539
      8538      8537      8540      8539      8537      8540      8537      8540      8541
      8537      8540      8542      8537      8540      8543      8541      8540      8542
      8541      8540      8543      8542      8540      8543      8540      8543      8544
      8540      8543      8545      8540      8543      8546      8544      8543      8545
      8544      8543      8546      8545      8543      8546      8543      8546      8547
      8543      8546      8548      8543      8546      8549      8547      8546      8548
      8547      8546      8549      8548      8546      8549      8546      8549      8550
      8546      8549      8551      8546      8549      8552      8550      8549      8551
      8550      8549      8552      8551      8549      8552      8549      8552      8553
      8549      8552      8554      8549      8552      8555      8553      8552      8554
      8553      8552      8555      8554      8552      8555      8552      8555      8556
      8552      8555      8557      8556      8555      8557      8555      8557      8558
      8555      8557      8559      8558      8557      8559      8557      8559      8560
      8557      8559      8561      8557      8559      8562      8560      8559      8561
      8560      8559      8562      8561      8559      8562      8559      8562      8563
      8559      8562      8564      8559      8562      8565      8563      8562      8564
      8563      8562      8565      8564      8562      8565      8562      8565      8566
      8562      8565      8567      8562      8565      8568      8566      8565      8567
      8566      8565      8568      8567      8565      8568      8565      8568      8569
      8565      8568      8570      8565      8568      8571      8569      8568      8570
      8569      8568      8571      8570      8568      8571      8568      8571      8572
      8568      8571      8573      8568      8571      8574      8572      8571      8573
      8572      8571      8574      8573      8571      8574      8571      8574      8575
      8571      8574      8576      8571      8574      8577      8575      8574      8576
      8575      8574      8577      8576      8574      8577      8574      8577      8578
      8574      8577      8579      8574      8577      8580      8578      8577      8579
      8578      8577      8580      8579      8577      8580      8577      8580      8581
      8577      8580      8582      8577      8580      8583      8581      8580      8582
      8581      8580      8583      8582      8580      8583      8534      8584      8585
      8534      8584      8586      8534      8584      8587      8585      8584      8586
      8585      8584      8587      8586      8584      8587      8584      8587      8588
      8584      8587      8589      8584      8587      8590      8588      8587      8589
      8588      8587      8590      8589      8587      8590      8587      8590      8591
      8587      8590      8592      8587      8590      8593      8591      8590      8592
      8591      8590      8593      8592      8590      8593      8590      8593      8594
      8590      8593      8595      8590      8593      8596      8594      8593      8595
      8594      8593      8596      8595      8593      8596      8593      8596      8597
      8593      8596      8598      8593      8596      8599      8597      8596      8598
      8597      8596      8599      8598      8596      8599      8596      8599      8600
      8596      8599      8601      8596      8599      8602      8600      8599      8601
      8600      8599      8602      8601      8599      8602      8599      8602      8603
      8599      8602      8604      8599      8602      8605      8603      8602      8604
      8603      8602      8605      8604      8602      8605      8602      8605      8606
      8602      8605      8607      8602      8605      8608      8606      8605      8607
      8606      8605      8608      8607      8605      8608      8605      8608      8609
      8605      8608      8610      8605      8608      8611      8609      8608      8610
      8609      8608      8611      8610      8608      8611      8608      8611      8612
      8608      8611      8613      8608      8611      8614      8612      8611      8613
      8612      8611      8614      8613      8611      8614      8611      8614      8615
      8611      8614      8616      8611      8614      8617      8615      8614      8616
      8615      8614      8617      8616      8614      8617      8614      8617      8618
      8614      8617      8619      8614      8617      8620      8618      8617      8619
      8618      8617      8620      8619      8617      8620      8617      8620      8621
      8617      8620      8622      8617      8620      8623      8621      8620      8622
      8621      8620      8623      8622      8620      8623      8620      8623      8624
      8620      8623      8625      8620      8623      8626      8624      8623      8625
      8624      8623      8626      8625      8623      8626      8628      8627      8629
      8628      8627      8630      8628      8627      8631      8629      8627      8630
      8629      8627      8631      8630      8627      8631      8627      8631      8632
      8627      8631      8633      8627      8631      8636      8632      8631      8633
      8632      8631      8636      8633      8631      8636      8631      8633      8634
      8631      8633      8635      8634      8633      8635      8631      8636      8637
      8631      8636      8638      8631      8636      8642      8637      8636      8638
      8637      8636      8642      8638      8636      8642      8640      8639      8641
      8640      8639      8642      8640      8639      8643      8641      8639      8642
      8641      8639      8643      8642      8639      8643      8636      8642      8639
      8639      8643      8644      8643      8644      8645      8643      8644      8646
      8643      8644      8647      8645      8644      8646      8645      8644      8647
      8646      8644      8647      8644      8647      8648      8644      8647      8649
      8644      8647      8655      8648      8647      8649      8648      8647      8655
      8649      8647      8655      8647      8649      8650      8649      8650      8651
      8649      8650      8652      8651      8650      8652      8650      8652      8653
      8650      8652      8654      8650      8652      8664      8653      8652      8654
      8653      8652      8664      8654      8652      8664      8647      8655      8656
      8647      8655      8657      8647      8655      8658      8656      8655      8657
      8656      8655      8658      8657      8655      8658      8655      8658      8659
      8658      8659      8660      8658      8659      8661      8660      8659      8661
      8659      8661      8662      8659      8661      8663      8659      8661      8711
      8662      8661      8663      8662      8661      8711      8663      8661      8711
      8652      8664      8665      8652      8664      8666      8652      8664      8667
      8665      8664      8666      8665      8664      8667      8666      8664      8667
      8664      8667      8668      8664      8667      8669      8664      8667      8670
      8668      8667      8669      8668      8667      8670      8669      8667      8670
      8667      8670      8671      8667      8670      8672      8667      8670      8673
      8671      8670      8672      8671      8670      8673      8672      8670      8673
      8670      8673      8674      8670      8673      8675      8670      8673      8676
      8674      8673      8675      8674      8673      8676      8675      8673      8676
      8673      8676      8677      8673      8676      8678      8673      8676      8679
      8677      8676      8678      8677      8676      8679      8678      8676      8679
      8676      8679      8680      8676      8679      8681      8676      8679      8682
      8680      8679      8681      8680      8679      8682      8681      8679      8682
      8679      8682      8683      8679      8682      8684      8683      8682      8684
      8682      8684      8685      8682      8684      8686      8685      8684      8686
      8684      8686      8687      8684      8686      8688      8684      8686      8689
      8687      8686      8688      8687      8686      8689      8688      8686      8689
      8686      8689      8690      8686      8689      8691      8686      8689      8692
      8690      8689      8691      8690      8689      8692      8691      8689      8692
      8689      8692      8693      8689      8692      8694      8689      8692      8695
      8693      8692      8694      8693      8692      8695      8694      8692      8695
      8692      8695      8696      8692      8695      8697      8692      8695      8698
      8696      8695      8697      8696      8695      8698      8697      8695      8698
      8695      8698      8699      8695      8698      8700      8695      8698      8701
      8699      8698      8700      8699      8698      8701      8700      8698      8701
      8698      8701      8702      8698      8701      8703      8698      8701      8704
      8702      8701      8703      8702      8701      8704      8703      8701      8704
      8701      8704      8705      8701      8704      8706      8701      8704      8707
      8705      8704      8706      8705      8704      8707      8706      8704      8707
      8704      8707      8708      8704      8707      8709      8704      8707      8710
      8708      8707      8709      8708      8707      8710      8709      8707      8710
      8661      8711      8712      8661      8711      8713      8661      8711      8714
      8712      8711      8713      8712      8711      8714      8713      8711      8714
      8711      8714      8715      8711      8714      8716      8711      8714      8717
      8715      8714      8716      8715      8714      8717      8716      8714      8717
      8714      8717      8718      8714      8717      8719      8714      8717      8720
      8718      8717      8719      8718      8717      8720      8719      8717      8720
      8717      8720      8721      8717      8720      8722      8717      8720      8723
      8721      8720      8722      8721      8720      8723      8722      8720      8723
      8720      8723      8724      8720      8723      8725      8720      8723      8726
      8724      8723      8725      8724      8723      8726      8725      8723      8726
      8723      8726      8727      8723      8726      8728      8723      8726      8729
      8727      8726      8728      8727      8726      8729      8728      8726      8729
      8726      8729      8730      8726      8729      8731      8726      8729      8732
      8730      8729      8731      8730      8729      8732      8731      8729      8732
      8729      8732      8733      8729      8732      8734      8729      8732      8735
      8733      8732      8734      8733      8732      8735      8734      8732      8735
      8732      8735      8736      8732      8735      8737      8732      8735      8738
      8736      8735      8737      8736      8735      8738      8737      8735      8738
      8735      8738      8739      8735      8738      8740      8735      8738      8741
      8739      8738      8740      8739      8738      8741      8740      8738      8741
      8738      8741      8742      8738      8741      8743      8738      8741      8744
      8742      8741      8743      8742      8741      8744      8743      8741      8744
      8741      8744      8745      8741      8744      8746      8741      8744      8747
      8745      8744      8746      8745      8744      8747      8746      8744      8747
      8744      8747      8748      8744      8747      8749      8744      8747      8750
      8748      8747      8749      8748      8747      8750      8749      8747      8750
      8747      8750      8751      8747      8750      8752      8747      8750      8753
      8751      8750      8752      8751      8750      8753      8752      8750      8753
      8755      8754      8756      8755      8754      8757      8755      8754      8758
      8756      8754      8757      8756      8754      8758      8757      8754      8758
      8754      8758      8759      8754      8758      8760      8754      8758      8763
      8759      8758      8760      8759      8758      8763      8760      8758      8763
      8758      8760      8761      8758      8760      8762      8761      8760      8762
      8758      8763      8764      8758      8763      8765      8758      8763      8769
      8764      8763      8765      8764      8763      8769      8765      8763      8769
      8767      8766      8768      8767      8766      8769      8767      8766      8770
      8768      8766      8769      8768      8766      8770      8769      8766      8770
      8763      8769      8766      8766      8770      8771      8770      8771      8772
      8770      8771      8773      8770      8771      8774      8772      8771      8773
      8772      8771      8774      8773      8771      8774      8771      8774      8775
      8771      8774      8776      8771      8774      8782      8775      8774      8776
      8775      8774      8782      8776      8774      8782      8774      8776      8777
      8776      8777      8778      8776      8777      8779      8778      8777      8779
      8777      8779      8780      8777      8779      8781      8777      8779      8791
      8780      8779      8781      8780      8779      8791      8781      8779      8791
      8774      8782      8783      8774      8782      8784      8774      8782      8785
      8783      8782      8784      8783      8782      8785      8784      8782      8785
      8782      8785      8786      8785      8786      8787      8785      8786      8788
      8787      8786      8788      8786      8788      8789      8786      8788      8790
      8786      8788      8838      8789      8788      8790      8789      8788      8838
      8790      8788      8838      8779      8791      8792      8779      8791      8793
      8779      8791      8794      8792      8791      8793      8792      8791      8794
      8793      8791      8794      8791      8794      8795      8791      8794      8796
      8791      8794      8797      8795      8794      8796      8795      8794      8797
      8796      8794      8797      8794      8797      8798      8794      8797      8799
      8794      8797      8800      8798      8797      8799      8798      8797      8800
      8799      8797      8800      8797      8800      8801      8797      8800      8802
      8797      8800      8803      8801      8800      8802      8801      8800      8803
      8802      8800      8803      8800      8803      8804      8800      8803      8805
      8800      8803      8806      8804      8803      8805      8804      8803      8806
      8805      8803      8806      8803      8806      8807      8803      8806      8808
      8803      8806      8809      8807      8806      8808      8807      8806      8809
      8808      8806      8809      8806      8809      8810      8806      8809      8811
      8810      8809      8811      8809      8811      8812      8809      8811      8813
      8812      8811      8813      8811      8813      8814      8811      8813      8815
      8811      8813      8816      8814      8813      8815      8814      8813      8816
      8815      8813      8816      8813      8816      8817      8813      8816      8818
      8813      8816      8819      8817      8816      8818      8817      8816      8819
      8818      8816      8819      8816      8819      8820      8816      8819      8821
      8816      8819      8822      8820      8819      8821      8820      8819      8822
      8821      8819      8822      8819      8822      8823      8819      8822      8824
      8819      8822      8825      8823      8822      8824      8823      8822      8825
      8824      8822      8825      8822      8825      8826      8822      8825      8827
      8822      8825      8828      8826      8825      8827      8826      8825      8828
      8827      8825      8828      8825      8828      8829      8825      8828      8830
      8825      8828      8831      8829      8828      8830      8829      8828      8831
      8830      8828      8831      8828      8831      8832      8828      8831      8833
      8828      8831      8834      8832      8831      8833      8832      8831      8834
      8833      8831      8834      8831      8834      8835      8831      8834      8836
      8831      8834      8837      8835      8834      8836      8835      8834      8837
      8836      8834      8837      8788      8838      8839      8788      8838      8840
      8788      8838      8841      8839      8838      8840      8839      8838      8841
      8840      8838      8841      8838      8841      8842      8838      8841      8843
      8838      8841      8844      8842      8841      8843      8842      8841      8844
      8843      8841      8844      8841      8844      8845      8841      8844      8846
      8841      8844      8847      8845      8844      8846      8845      8844      8847
      8846      8844      8847      8844      8847      8848      8844      8847      8849
      8844      8847      8850      8848      8847      8849      8848      8847      8850
      8849      8847      8850      8847      8850      8851      8847      8850      8852
      8847      8850      8853      8851      8850      8852      8851      8850      8853
      8852      8850      8853      8850      8853      8854      8850      8853      8855
      8850      8853      8856      8854      8853      8855      8854      8853      8856
      8855      8853      8856      8853      8856      8857      8853      8856      8858
      8853      8856      8859      8857      8856      8858      8857      8856      8859
      8858      8856      8859      8856      8859      8860      8856      8859      8861
      8856      8859      8862      8860      8859      8861      8860      8859      8862
      8861      8859      8862      8859      8862      8863      8859      8862      8864
      8859      8862      8865      8863      8862      8864      8863      8862      8865
      8864      8862      8865      8862      8865      8866      8862      8865      8867
      8862      8865      8868      8866      8865      8867      8866      8865      8868
      8867      8865      8868      8865      8868      8869      8865      8868      8870
      8865      8868      8871      8869      8868      8870      8869      8868      8871
      8870      8868      8871      8868      8871      8872      8868      8871      8873
      8868      8871      8874      8872      8871      8873      8872      8871      8874
      8873      8871      8874      8871      8874      8875      8871      8874      8876
      8871      8874      8877      8875      8874      8876      8875      8874      8877
      8876      8874      8877      8874      8877      8878      8874      8877      8879
      8874      8877      8880      8878      8877      8879      8878      8877      8880
      8879      8877      8880      8882      8881      8885      8882      8881      8889
      8882      8881      8893      8885      8881      8889      8885      8881      8893
      8889      8881      8893      8881      8882      8883      8881      8882      8884
      8881      8882      8897      8883      8882      8884      8883      8882      8897
      8884      8882      8897      8881      8885      8886      8881      8885      8887
      8881      8885      8888      8886      8885      8887      8886      8885      8888
      8887      8885      8888      8881      8889      8890      8881      8889      8891
      8881      8889      8892      8890      8889      8891      8890      8889      8892
      8891      8889      8892      8881      8893      8894      8881      8893      8895
      8881      8893      8896      8894      8893      8895      8894      8893      8896
      8895      8893      8896      8882      8897      8898      8882      8897      8899
      8882      8897      8903      8898      8897      8899      8898      8897      8903
      8899      8897      8903      8901      8900      8902      8901      8900      8903
      8901      8900      8904      8902      8900      8903      8902      8900      8904
      8903      8900      8904      8897      8903      8900      8900      8904      8905
      8904      8905      8906      8904      8905      8907      8904      8905      8908
      8906      8905      8907      8906      8905      8908      8907      8905      8908
      8905      8908      8909      8905      8908      8910      8905      8908      8916
      8909      8908      8910      8909      8908      8916      8910      8908      8916
      8908      8910      8911      8910      8911      8912      8910      8911      8913
      8912      8911      8913      8911      8913      8914      8911      8913      8915
      8911      8913      8925      8914      8913      8915      8914      8913      8925
      8915      8913      8925      8908      8916      8917      8908      8916      8918
      8908      8916      8919      8917      8916      8918      8917      8916      8919
      8918      8916      8919      8916      8919      8920      8919      8920      8921
      8919      8920      8922      8921      8920      8922      8920      8922      8923
      8920      8922      8924      8920      8922      8972      8923      8922      8924
      8923      8922      8972      8924      8922      8972      8913      8925      8926
      8913      8925      8927      8913      8925      8928      8926      8925      8927
      8926      8925      8928      8927      8925      8928      8925      8928      8929
      8925      8928      8930      8925      8928      8931      8929      8928      8930
      8929      8928      8931      8930      8928      8931      8928      8931      8932
      8928      8931      8933      8928      8931      8934      8932      8931      8933
      8932      8931      8934      8933      8931      8934      8931      8934      8935
      8931      8934      8936      8931      8934      8937      8935      8934      8936
      8935      8934      8937      8936      8934      8937      8934      8937      8938
      8934      8937      8939      8934      8937      8940      8938      8937      8939
      8938      8937      8940      8939      8937      8940      8937      8940      8941
      8937      8940      8942      8937      8940      8943      8941      8940      8942
      8941      8940      8943      8942      8940      8943      8940      8943      8944
      8940      8943      8945      8944      8943      8945      8943      8945      8946
      8943      8945      8947      8946      8945      8947      8945      8947      8948
      8945      8947      8949      8945      8947      8950      8948      8947      8949
      8948      8947      8950      8949      8947      8950      8947      8950      8951
      8947      8950      8952      8947      8950      8953      8951      8950      8952
      8951      8950      8953      8952      8950      8953      8950      8953      8954
      8950      8953      8955      8950      8953      8956      8954      8953      8955
      8954      8953      8956      8955      8953      8956      8953      8956      8957
      8953      8956      8958      8953      8956      8959      8957      8956      8958
      8957      8956      8959      8958      8956      8959      8956      8959      8960
      8956      8959      8961      8956      8959      8962      8960      8959      8961
      8960      8959      8962      8961      8959      8962      8959      8962      8963
      8959      8962      8964      8959      8962      8965      8963      8962      8964
      8963      8962      8965      8964      8962      8965      8962      8965      8966
      8962      8965      8967      8962      8965      8968      8966      8965      8967
      8966      8965      8968      8967      8965      8968      8965      8968      8969
      8965      8968      8970      8965      8968      8971      8969      8968      8970
      8969      8968      8971      8970      8968      8971      8922      8972      8973
      8922      8972      8974      8922      8972      8975      8973      8972      8974
      8973      8972      8975      8974      8972      8975      8972      8975      8976
      8972      8975      8977      8972      8975      8978      8976      8975      8977
      8976      8975      8978      8977      8975      8978      8975      8978      8979
      8975      8978      8980      8975      8978      8981      8979      8978      8980
      8979      8978      8981      8980      8978      8981      8978      8981      8982
      8978      8981      8983      8978      8981      8984      8982      8981      8983
      8982      8981      8984      8983      8981      8984      8981      8984      8985
      8981      8984      8986      8981      8984      8987      8985      8984      8986
      8985      8984      8987      8986      8984      8987      8984      8987      8988
      8984      8987      8989      8984      8987      8990      8988      8987      8989
      8988      8987      8990      8989      8987      8990      8987      8990      8991
      8987      8990      8992      8987      8990      8993      8991      8990      8992
      8991      8990      8993      8992      8990      8993      8990      8993      8994
      8990      8993      8995      8990      8993      8996      8994      8993      8995
      8994      8993      8996      8995      8993      8996      8993      8996      8997
      8993      8996      8998      8993      8996      8999      8997      8996      8998
      8997      8996      8999      8998      8996      8999      8996      8999      9000
      8996      8999      9001      8996      8999      9002      9000      8999      9001
      9000      8999      9002      9001      8999      9002      8999      9002      9003
      8999      9002      9004      8999      9002      9005      9003      9002      9004
      9003      9002      9005      9004      9002      9005      9002      9005      9006
      9002      9005      9007      9002      9005      9008      9006      9005      9007
      9006      9005      9008      9007      9005      9008      9005      9008      9009
      9005      9008      9010      9005      9008      9011      9009      9008      9010
      9009      9008      9011      9010      9008      9011      9008      9011      9012
      9008      9011      9013      9008      9011      9014      9012      9011      9013
      9012      9011      9014      9013      9011      9014      9016      9015      9019
      9016      9015      9023      9016      9015      9027      9019      9015      9023
      9019      9015      9027      9023      9015      9027      9015      9016      9017
      9015      9016      9018      9015      9016      9031      9017      9016      9018
      9017      9016      9031      9018      9016      9031      9015      9019      9020
      9015      9019      9021      9015      9019      9022      9020      9019      9021
      9020      9019      9022      9021      9019      9022      9015      9023      9024
      9015      9023      9025      9015      9023      9026      9024      9023      9025
      9024      9023      9026      9025      9023      9026      9015      9027      9028
      9015      9027      9029      9015      9027      9030      9028      9027      9029
      9028      9027      9030      9029      9027      9030      9016      9031      9032
      9016      9031      9033      9016      9031      9037      9032      9031      9033
      9032      9031      9037      9033      9031      9037      9035      9034      9036
      9035      9034      9037      9035      9034      9038      9036      9034      9037
      9036      9034      9038      9037      9034      9038      9031      9037      9034
      9034      9038      9039      9038      9039      9040      9038      9039      9041
      9038      9039      9042      9040      9039      9041      9040      9039      9042
      9041      9039      9042      9039      9042      9043      9039      9042      9044
      9039      9042      9050      9043      9042      9044      9043      9042      9050
      9044      9042      9050      9042      9044      9045      9044      9045      9046
      9044      9045      9047      9046      9045      9047      9045      9047      9048
      9045      9047      9049      9045      9047      9059      9048      9047      9049
      9048      9047      9059      9049      9047      9059      9042      9050      9051
      9042      9050      9052      9042      9050      9053      9051      9050      9052
      9051      9050      9053      9052      9050      9053      9050      9053      9054
      9053      9054      9055      9053      9054      9056      9055      9054      9056
      9054      9056      9057      9054      9056      9058      9054      9056      9106
      9057      9056      9058      9057      9056      9106      9058      9056      9106
      9047      9059      9060      9047      9059      9061      9047      9059      9062
      9060      9059      9061      9060      9059      9062      9061      9059      9062
      9059      9062      9063      9059      9062      9064      9059      9062      9065
      9063      9062      9064      9063      9062      9065      9064      9062      9065
      9062      9065      9066      9062      9065      9067      9062      9065      9068
      9066      9065      9067      9066      9065      9068      9067      9065      9068
      9065      9068      9069      9065      9068      9070      9065      9068      9071
      9069      9068      9070      9069      9068      9071      9070      9068      9071
      9068      9071      9072      9068      9071      9073      9068      9071      9074
      9072      9071      9073      9072      9071      9074      9073      9071      9074
      9071      9074      9075      9071      9074      9076      9071      9074      9077
      9075      9074      9076      9075      9074      9077      9076      9074      9077
      9074      9077      9078      9074      9077      9079      9078      9077      9079
      9077      9079      9080      9077      9079      9081      9080      9079      9081
      9079      9081      9082      9079      9081      9083      9079      9081      9084
      9082      9081      9083      9082      9081      9084      9083      9081      9084
      9081      9084      9085      9081      9084      9086      9081      9084      9087
      9085      9084      9086      9085      9084      9087      9086      9084      9087
      9084      9087      9088      9084      9087      9089      9084      9087      9090
      9088      9087      9089      9088      9087      9090      9089      9087      9090
      9087      9090      9091      9087      9090      9092      9087      9090      9093
      9091      9090      9092      9091      9090      9093      9092      9090      9093
      9090      9093      9094      9090      9093      9095      9090      9093      9096
      9094      9093      9095      9094      9093      9096      9095      9093      9096
      9093      9096      9097      9093      9096      9098      9093      9096      9099
      9097      9096      9098      9097      9096      9099      9098      9096      9099
      9096      9099      9100      9096      9099      9101      9096      9099      9102
      9100      9099      9101      9100      9099      9102      9101      9099      9102
      9099      9102      9103      9099      9102      9104      9099      9102      9105
      9103      9102      9104      9103      9102      9105      9104      9102      9105
      9056      9106      9107      9056      9106      9108      9056      9106      9109
      9107      9106      9108      9107      9106      9109      9108      9106      9109
      9106      9109      9110      9106      9109      9111      9106      9109      9112
      9110      9109      9111      9110      9109      9112      9111      9109      9112
      9109      9112      9113      9109      9112      9114      9109      9112      9115
      9113      9112      9114      9113      9112      9115      9114      9112      9115
      9112      9115      9116      9112      9115      9117      9112      9115      9118
      9116      9115      9117      9116      9115      9118      9117      9115      9118
      9115      9118      9119      9115      9118      9120      9115      9118      9121
      9119      9118      9120      9119      9118      9121      9120      9118      9121
      9118      9121      9122      9118      9121      9123      9118      9121      9124
      9122      9121      9123      9122      9121      9124      9123      9121      9124
      9121      9124      9125      9121      9124      9126      9121      9124      9127
      9125      9124      9126      9125      9124      9127      9126      9124      9127
      9124      9127      9128      9124      9127      9129      9124      9127      9130
      9128      9127      9129      9128      9127      9130      9129      9127      9130
      9127      9130      9131      9127      9130      9132      9127      9130      9133
      9131      9130      9132      9131      9130      9133      9132      9130      9133
      9130      9133      9134      9130      9133      9135      9130      9133      9136
      9134      9133      9135      9134      9133      9136      9135      9133      9136
      9133      9136      9137      9133      9136      9138      9133      9136      9139
      9137      9136      9138      9137      9136      9139      9138      9136      9139
      9136      9139      9140      9136      9139      9141      9136      9139      9142
      9140      9139      9141      9140      9139      9142      9141      9139      9142
      9139      9142      9143      9139      9142      9144      9139      9142      9145
      9143      9142      9144      9143      9142      9145      9144      9142      9145
      9142      9145      9146      9142      9145      9147      9142      9145      9148
      9146      9145      9147      9146      9145      9148      9147      9145      9148
      9150      9149      9153      9150      9149      9157      9150      9149      9161
      9153      9149      9157      9153      9149      9161      9157      9149      9161
      9149      9150      9151      9149      9150      9152      9149      9150      9165
      9151      9150      9152      9151      9150      9165      9152      9150      9165
      9149      9153      9154      9149      9153      9155      9149      9153      9156
      9154      9153      9155      9154      9153      9156      9155      9153      9156
      9149      9157      9158      9149      9157      9159      9149      9157      9160
      9158      9157      9159      9158      9157      9160      9159      9157      9160
      9149      9161      9162      9149      9161      9163      9149      9161      9164
      9162      9161      9163      9162      9161      9164      9163      9161      9164
      9150      9165      9166      9150      9165      9167      9150      9165      9171
      9166      9165      9167      9166      9165      9171      9167      9165      9171
      9169      9168      9170      9169      9168      9171      9169      9168      9172
      9170      9168      9171      9170      9168      9172      9171      9168      9172
      9165      9171      9168      9168      9172      9173      9172      9173      9174
      9172      9173      9175      9172      9173      9176      9174      9173      9175
      9174      9173      9176      9175      9173      9176      9173      9176      9177
      9173      9176      9178      9173      9176      9184      9177      9176      9178
      9177      9176      9184      9178      9176      9184      9176      9178      9179
      9178      9179      9180      9178      9179      9181      9180      9179      9181
      9179      9181      9182      9179      9181      9183      9179      9181      9193
      9182      9181      9183      9182      9181      9193      9183      9181      9193
      9176      9184      9185      9176      9184      9186      9176      9184      9187
      9185      9184      9186      9185      9184      9187      9186      9184      9187
      9184      9187      9188      9187      9188      9189      9187      9188      9190
      9189      9188      9190      9188      9190      9191      9188      9190      9192
      9188      9190      9240      9191      9190      9192      9191      9190      9240
      9192      9190      9240      9181      9193      9194      9181      9193      9195
      9181      9193      9196      9194      9193      9195      9194      9193      9196
      9195      9193      9196      9193      9196      9197      9193      9196      9198
      9193      9196      9199      9197      9196      9198      9197      9196      9199
      9198      9196      9199      9196      9199      9200      9196      9199      9201
      9196      9199      9202      9200      9199      9201      9200      9199      9202
      9201      9199      9202      9199      9202      9203      9199      9202      9204
      9199      9202      9205      9203      9202      9204      9203      9202      9205
      9204      9202      9205      9202      9205      9206      9202      9205      9207
      9202      9205      9208      9206      9205      9207      9206      9205      9208
      9207      9205      9208      9205      9208      9209      9205      9208      9210
      9205      9208      9211      9209      9208      9210      9209      9208      9211
      9210      9208      9211      9208      9211      9212      9208      9211      9213
      9212      9211      9213      9211      9213      9214      9211      9213      9215
      9214      9213      9215      9213      9215      9216      9213      9215      9217
      9213      9215      9218      9216      9215      9217      9216      9215      9218
      9217      9215      9218      9215      9218      9219      9215      9218      9220
      9215      9218      9221      9219      9218      9220      9219      9218      9221
      9220      9218      9221      9218      9221      9222      9218      9221      9223
      9218      9221      9224      9222      9221      9223      9222      9221      9224
      9223      9221      9224      9221      9224      9225      9221      9224      9226
      9221      9224      9227      9225      9224      9226      9225      9224      9227
      9226      9224      9227      9224      9227      9228      9224      9227      9229
      9224      9227      9230      9228      9227      9229      9228      9227      9230
      9229      9227      9230      9227      9230      9231      9227      9230      9232
      9227      9230      9233      9231      9230      9232      9231      9230      9233
      9232      9230      9233      9230      9233      9234      9230      9233      9235
      9230      9233      9236      9234      9233      9235      9234      9233      9236
      9235      9233      9236      9233      9236      9237      9233      9236      9238
      9233      9236      9239      9237      9236      9238      9237      9236      9239
      9238      9236      9239      9190      9240      9241      9190      9240      9242
      9190      9240      9243      9241      9240      9242      9241      9240      9243
      9242      9240      9243      9240      9243      9244      9240      9243      9245
      9240      9243      9246      9244      9243      9245      9244      9243      9246
      9245      9243      9246      9243      9246      9247      9243      9246      9248
      9243      9246      9249      9247      9246      9248      9247      9246      9249
      9248      9246      9249      9246      9249      9250      9246      9249      9251
      9246      9249      9252      9250      9249      9251      9250      9249      9252
      9251      9249      9252      9249      9252      9253      9249      9252      9254
      9249      9252      9255      9253      9252      9254      9253      9252      9255
      9254      9252      9255      9252      9255      9256      9252      9255      9257
      9252      9255      9258      9256      9255      9257      9256      9255      9258
      9257      9255      9258      9255      9258      9259      9255      9258      9260
      9255      9258      9261      9259      9258      9260      9259      9258      9261
      9260      9258      9261      9258      9261      9262      9258      9261      9263
      9258      9261      9264      9262      9261      9263      9262      9261      9264
      9263      9261      9264      9261      9264      9265      9261      9264      9266
      9261      9264      9267      9265      9264      9266      9265      9264      9267
      9266      9264      9267      9264      9267      9268      9264      9267      9269
      9264      9267      9270      9268      9267      9269      9268      9267      9270
      9269      9267      9270      9267      9270      9271      9267      9270      9272
      9267      9270      9273      9271      9270      9272      9271      9270      9273
      9272      9270      9273      9270      9273      9274      9270      9273      9275
      9270      9273      9276      9274      9273      9275      9274      9273      9276
      9275      9273      9276      9273      9276      9277      9273      9276      9278
      9273      9276      9279      9277      9276      9278      9277      9276      9279
      9278      9276      9279      9276      9279      9280      9276      9279      9281
      9276      9279      9282      9280      9279      9281      9280      9279      9282
      9281      9279      9282      9284      9283      9285      9284      9283      9286
      9284      9283      9287      9285      9283      9286      9285      9283      9287
      9286      9283      9287      9283      9287      9288      9283      9287      9289
      9283      9287      9292      9288      9287      9289      9288      9287      9292
      9289      9287      9292      9287      9289      9290      9287      9289      9291
      9290      9289      9291      9287      9292      9293      9287      9292      9294
      9287      9292      9298      9293      9292      9294      9293      9292      9298
      9294      9292      9298      9296      9295      9297      9296      9295      9298
      9296      9295      9299      9297      9295      9298      9297      9295      9299
      9298      9295      9299      9292      9298      9295      9295      9299      9300
      9299      9300      9301      9299      9300      9302      9299      9300      9303
      9301      9300      9302      9301      9300      9303      9302      9300      9303
      9300      9303      9304      9300      9303      9305      9300      9303      9311
      9304      9303      9305      9304      9303      9311      9305      9303      9311
      9303      9305      9306      9305      9306      9307      9305      9306      9308
      9307      9306      9308      9306      9308      9309      9306      9308      9310
      9306      9308      9320      9309      9308      9310      9309      9308      9320
      9310      9308      9320      9303      9311      9312      9303      9311      9313
      9303      9311      9314      9312      9311      9313      9312      9311      9314
      9313      9311      9314      9311      9314      9315      9314      9315      9316
      9314      9315      9317      9316      9315      9317      9315      9317      9318
      9315      9317      9319      9315      9317      9367      9318      9317      9319
      9318      9317      9367      9319      9317      9367      9308      9320      9321
      9308      9320      9322      9308      9320      9323      9321      9320      9322
      9321      9320      9323      9322      9320      9323      9320      9323      9324
      9320      9323      9325      9320      9323      9326      9324      9323      9325
      9324      9323      9326      9325      9323      9326      9323      9326      9327
      9323      9326      9328      9323      9326      9329      9327      9326      9328
      9327      9326      9329      9328      9326      9329      9326      9329      9330
      9326      9329      9331      9326      9329      9332      9330      9329      9331
      9330      9329      9332      9331      9329      9332      9329      9332      9333
      9329      9332      9334      9329      9332      9335      9333      9332      9334
      9333      9332      9335      9334      9332      9335      9332      9335      9336
      9332      9335      9337      9332      9335      9338      9336      9335      9337
      9336      9335      9338      9337      9335      9338      9335      9338      9339
      9335      9338      9340      9339      9338      9340      9338      9340      9341
      9338      9340      9342      9341      9340      9342      9340      9342      9343
      9340      9342      9344      9340      9342      9345      9343      9342      9344
      9343      9342      9345      9344      9342      9345      9342      9345      9346
      9342      9345      9347      9342      9345      9348      9346      9345      9347
      9346      9345      9348      9347      9345      9348      9345      9348      9349
      9345      9348      9350      9345      9348      9351      9349      9348      9350
      9349      9348      9351      9350      9348      9351      9348      9351      9352
      9348      9351      9353      9348      9351      9354      9352      9351      9353
      9352      9351      9354      9353      9351      9354      9351      9354      9355
      9351      9354      9356      9351      9354      9357      9355      9354      9356
      9355      9354      9357      9356      9354      9357      9354      9357      9358
      9354      9357      9359      9354      9357      9360      9358      9357      9359
      9358      9357      9360      9359      9357      9360      9357      9360      9361
      9357      9360      9362      9357      9360      9363      9361      9360      9362
      9361      9360      9363      9362      9360      9363      9360      9363      9364
      9360      9363      9365      9360      9363      9366      9364      9363      9365
      9364      9363      9366      9365      9363      9366      9317      9367      9368
      9317      9367      9369      9317      9367      9370      9368      9367      9369
      9368      9367      9370      9369      9367      9370      9367      9370      9371
      9367      9370      9372      9367      9370      9373      9371      9370      9372
      9371      9370      9373      9372      9370      9373      9370      9373      9374
      9370      9373      9375      9370      9373      9376      9374      9373      9375
      9374      9373      9376      9375      9373      9376      9373      9376      9377
      9373      9376      9378      9373      9376      9379      9377      9376      9378
      9377      9376      9379      9378      9376      9379      9376      9379      9380
      9376      9379      9381      9376      9379      9382      9380      9379      9381
      9380      9379      9382      9381      9379      9382      9379      9382      9383
      9379      9382      9384      9379      9382      9385      9383      9382      9384
      9383      9382      9385      9384      9382      9385      9382      9385      9386
      9382      9385      9387      9382      9385      9388      9386      9385      9387
      9386      9385      9388      9387      9385      9388      9385      9388      9389
      9385      9388      9390      9385      9388      9391      9389      9388      9390
      9389      9388      9391      9390      9388      9391      9388      9391      9392
      9388      9391      9393      9388      9391      9394      9392      9391      9393
      9392      9391      9394      9393      9391      9394      9391      9394      9395
      9391      9394      9396      9391      9394      9397      9395      9394      9396
      9395      9394      9397      9396      9394      9397      9394      9397      9398
      9394      9397      9399      9394      9397      9400      9398      9397      9399
      9398      9397      9400      9399      9397      9400      9397      9400      9401
      9397      9400      9402      9397      9400      9403      9401      9400      9402
      9401      9400      9403      9402      9400      9403      9400      9403      9404
      9400      9403      9405      9400      9403      9406      9404      9403      9405
      9404      9403      9406      9405      9403      9406      9403      9406      9407
      9403      9406      9408      9403      9406      9409      9407      9406      9408
      9407      9406      9409      9408      9406      9409      9411      9410      9414
      9411      9410      9418      9411      9410      9422      9414      9410      9418
      9414      9410      9422      9418      9410      9422      9410      9411      9412
      9410      9411      9413      9410      9411      9426      9412      9411      9413
      9412      9411      9426      9413      9411      9426      9410      9414      9415
      9410      9414      9416      9410      9414      9417      9415      9414      9416
      9415      9414      9417      9416      9414      9417      9410      9418      9419
      9410      9418      9420      9410      9418      9421      9419      9418      9420
      9419      9418      9421      9420      9418      9421      9410      9422      9423
      9410      9422      9424      9410      9422      9425      9423      9422      9424
      9423      9422      9425      9424      9422      9425      9411      9426      9427
      9411      9426      9428      9411      9426      9432      9427      9426      9428
      9427      9426      9432      9428      9426      9432      9430      9429      9431
      9430      9429      9432      9430      9429      9433      9431      9429      9432
      9431      9429      9433      9432      9429      9433      9426      9432      9429
      9429      9433      9434      9433      9434      9435      9433      9434      9436
      9433      9434      9437      9435      9434      9436      9435      9434      9437
      9436      9434      9437      9434      9437      9438      9434      9437      9439
      9434      9437      9445      9438      9437      9439      9438      9437      9445
      9439      9437      9445      9437      9439      9440      9439      9440      9441
      9439      9440      9442      9441      9440      9442      9440      9442      9443
      9440      9442      9444      9440      9442      9454      9443      9442      9444
      9443      9442      9454      9444      9442      9454      9437      9445      9446
      9437      9445      9447      9437      9445      9448      9446      9445      9447
      9446      9445      9448      9447      9445      9448      9445      9448      9449
      9448      9449      9450      9448      9449      9451      9450      9449      9451
      9449      9451      9452      9449      9451      9453      9449      9451      9501
      9452      9451      9453      9452      9451      9501      9453      9451      9501
      9442      9454      9455      9442      9454      9456      9442      9454      9457
      9455      9454      9456      9455      9454      9457      9456      9454      9457
      9454      9457      9458      9454      9457      9459      9454      9457      9460
      9458      9457      9459      9458      9457      9460      9459      9457      9460
      9457      9460      9461      9457      9460      9462      9457      9460      9463
      9461      9460      9462      9461      9460      9463      9462      9460      9463
      9460      9463      9464      9460      9463      9465      9460      9463      9466
      9464      9463      9465      9464      9463      9466      9465      9463      9466
      9463      9466      9467      9463      9466      9468      9463      9466      9469
      9467      9466      9468      9467      9466      9469      9468      9466      9469
      9466      9469      9470      9466      9469      9471      9466      9469      9472
      9470      9469      9471      9470      9469      9472      9471      9469      9472
      9469      9472      9473      9469      9472      9474      9473      9472      9474
      9472      9474      9475      9472      9474      9476      9475      9474      9476
      9474      9476      9477      9474      9476      9478      9474      9476      9479
      9477      9476      9478      9477      9476      9479      9478      9476      9479
      9476      9479      9480      9476      9479      9481      9476      9479      9482
      9480      9479      9481      9480      9479      9482      9481      9479      9482
      9479      9482      9483      9479      9482      9484      9479      9482      9485
      9483      9482      9484      9483      9482      9485      9484      9482      9485
      9482      9485      9486      9482      9485      9487      9482      9485      9488
      9486      9485      9487      9486      9485      9488      9487      9485      9488
      9485      9488      9489      9485      9488      9490      9485      9488      9491
      9489      9488      9490      9489      9488      9491      9490      9488      9491
      9488      9491      9492      9488      9491      9493      9488      9491      9494
      9492      9491      9493      9492      9491      9494      9493      9491      9494
      9491      9494      9495      9491      9494      9496      9491      9494      9497
      9495      9494      9496      9495      9494      9497      9496      9494      9497
      9494      9497      9498      9494      9497      9499      9494      9497      9500
      9498      9497      9499      9498      9497      9500      9499      9497      9500
      9451      9501      9502      9451      9501      9503      9451      9501      9504
      9502      9501      9503      9502      9501      9504      9503      9501      9504
      9501      9504      9505      9501      9504      9506      9501      9504      9507
      9505      9504      9506      9505      9504      9507      9506      9504      9507
      9504      9507      9508      9504      9507      9509      9504      9507      9510
      9508      9507      9509      9508      9507      9510      9509      9507      9510
      9507      9510      9511      9507      9510      9512      9507      9510      9513
      9511      9510      9512      9511      9510      9513      9512      9510      9513
      9510      9513      9514      9510      9513      9515      9510      9513      9516
      9514      9513      9515      9514      9513      9516      9515      9513      9516
      9513      9516      9517      9513      9516      9518      9513      9516      9519
      9517      9516      9518      9517      9516      9519      9518      9516      9519
      9516      9519      9520      9516      9519      9521      9516      9519      9522
      9520      9519      9521      9520      9519      9522      9521      9519      9522
      9519      9522      9523      9519      9522      9524      9519      9522      9525
      9523      9522      9524      9523      9522      9525      9524      9522      9525
      9522      9525      9526      9522      9525      9527      9522      9525      9528
      9526      9525      9527      9526      9525      9528      9527      9525      9528
      9525      9528      9529      9525      9528      9530      9525      9528      9531
      9529      9528      9530      9529      9528      9531      9530      9528      9531
      9528      9531      9532      9528      9531      9533      9528      9531      9534
      9532      9531      9533      9532      9531      9534      9533      9531      9534
      9531      9534      9535      9531      9534      9536      9531      9534      9537
      9535      9534      9536      9535      9534      9537      9536      9534      9537
      9534      9537      9538      9534      9537      9539      9534      9537      9540
      9538      9537      9539      9538      9537      9540      9539      9537      9540
      9537      9540      9541      9537      9540      9542      9537      9540      9543
      9541      9540      9542      9541      9540      9543      9542      9540      9543
      9545      9544      9548      9545      9544      9552      9545      9544      9556
      9548      9544      9552      9548      9544      9556      9552      9544      9556
      9544      9545      9546      9544      9545      9547      9544      9545      9560
      9546      9545      9547      9546      9545      9560      9547      9545      9560
      9544      9548      9549      9544      9548      9550      9544      9548      9551
      9549      9548      9550      9549      9548      9551      9550      9548      9551
      9544      9552      9553      9544      9552      9554      9544      9552      9555
      9553      9552      9554      9553      9552      9555      9554      9552      9555
      9544      9556      9557      9544      9556      9558      9544      9556      9559
      9557      9556      9558      9557      9556      9559      9558      9556      9559
      9545      9560      9561      9545      9560      9562      9545      9560      9566
      9561      9560      9562      9561      9560      9566      9562      9560      9566
      9564      9563      9565      9564      9563      9566      9564      9563      9567
      9565      9563      9566      9565      9563      9567      9566      9563      9567
      9560      9566      9563      9563      9567      9568      9567      9568      9569
      9567      9568      9570      9567      9568      9571      9569      9568      9570
      9569      9568      9571      9570      9568      9571      9568      9571      9572
      9568      9571      9573      9568      9571      9579      9572      9571      9573
      9572      9571      9579      9573      9571      9579      9571      9573      9574
      9573      9574      9575      9573      9574      9576      9575      9574      9576
      9574      9576      9577      9574      9576      9578      9574      9576      9588
      9577      9576      9578      9577      9576      9588      9578      9576      9588
      9571      9579      9580      9571      9579      9581      9571      9579      9582
      9580      9579      9581      9580      9579      9582      9581      9579      9582
      9579      9582      9583      9582      9583      9584      9582      9583      9585
      9584      9583      9585      9583      9585      9586      9583      9585      9587
      9583      9585      9635      9586      9585      9587      9586      9585      9635
      9587      9585      9635      9576      9588      9589      9576      9588      9590
      9576      9588      9591      9589      9588      9590      9589      9588      9591
      9590      9588      9591      9588      9591      9592      9588      9591      9593
      9588      9591      9594      9592      9591      9593      9592      9591      9594
      9593      9591      9594      9591      9594      9595      9591      9594      9596
      9591      9594      9597      9595      9594      9596      9595      9594      9597
      9596      9594      9597      9594      9597      9598      9594      9597      9599
      9594      9597      9600      9598      9597      9599      9598      9597      9600
      9599      9597      9600      9597      9600      9601      9597      9600      9602
      9597      9600      9603      9601      9600      9602      9601      9600      9603
      9602      9600      9603      9600      9603      9604      9600      9603      9605
      9600      9603      9606      9604      9603      9605      9604      9603      9606
      9605      9603      9606      9603      9606      9607      9603      9606      9608
      9607      9606      9608      9606      9608      9609      9606      9608      9610
      9609      9608      9610      9608      9610      9611      9608      9610      9612
      9608      9610      9613      9611      9610      9612      9611      9610      9613
      9612      9610      9613      9610      9613      9614      9610      9613      9615
      9610      9613      9616      9614      9613      9615      9614      9613      9616
      9615      9613      9616      9613      9616      9617      9613      9616      9618
      9613      9616      9619      9617      9616      9618      9617      9616      9619
      9618      9616      9619      9616      9619      9620      9616      9619      9621
      9616      9619      9622      9620      9619      9621      9620      9619      9622
      9621      9619      9622      9619      9622      9623      9619      9622      9624
      9619      9622      9625      9623      9622      9624      9623      9622      9625
      9624      9622      9625      9622      9625      9626      9622      9625      9627
      9622      9625      9628      9626      9625      9627      9626      9625      9628
      9627      9625      9628      9625      9628      9629      9625      9628      9630
      9625      9628      9631      9629      9628      9630      9629      9628      9631
      9630      9628      9631      9628      9631      9632      9628      9631      9633
      9628      9631      9634      9632      9631      9633      9632      9631      9634
      9633      9631      9634      9585      9635      9636      9585      9635      9637
      9585      9635      9638      9636      9635      9637      9636      9635      9638
      9637      9635      9638      9635      9638      9639      9635      9638      9640
      9635      9638      9641      9639      9638      9640      9639      9638      9641
      9640      9638      9641      9638      9641      9642      9638      9641      9643
      9638      9641      9644      9642      9641      9643      9642      9641      9644
      9643      9641      9644      9641      9644      9645      9641      9644      9646
      9641      9644      9647      9645      9644      9646      9645      9644      9647
      9646      9644      9647      9644      9647      9648      9644      9647      9649
      9644      9647      9650      9648      9647      9649      9648      9647      9650
      9649      9647      9650      9647      9650      9651      9647      9650      9652
      9647      9650      9653      9651      9650      9652      9651      9650      9653
      9652      9650      9653      9650      9653      9654      9650      9653      9655
      9650      9653      9656      9654      9653      9655      9654      9653      9656
      9655      9653      9656      9653      9656      9657      9653      9656      9658
      9653      9656      9659      9657      9656      9658      9657      9656      9659
      9658      9656      9659      9656      9659      9660      9656      9659      9661
      9656      9659      9662      9660      9659      9661      9660      9659      9662
      9661      9659      9662      9659      9662      9663      9659      9662      9664
      9659      9662      9665      9663      9662      9664      9663      9662      9665
      9664      9662      9665      9662      9665      9666      9662      9665      9667
      9662      9665      9668      9666      9665      9667      9666      9665      9668
      9667      9665      9668      9665      9668      9669      9665      9668      9670
      9665      9668      9671      9669      9668      9670      9669      9668      9671
      9670      9668      9671      9668      9671      9672      9668      9671      9673
      9668      9671      9674      9672      9671      9673      9672      9671      9674
      9673      9671      9674      9671      9674      9675      9671      9674      9676
      9671      9674      9677      9675      9674      9676      9675      9674      9677
      9676      9674      9677      9679      9678      9682      9679      9678      9686
      9679      9678      9690      9682      9678      9686      9682      9678      9690
      9686      9678      9690      9678      9679      9680      9678      9679      9681
      9678      9679      9694      9680      9679      9681      9680      9679      9694
      9681      9679      9694      9678      9682      9683      9678      9682      9684
      9678      9682      9685      9683      9682      9684      9683      9682      9685
      9684      9682      9685      9678      9686      9687      9678      9686      9688
      9678      9686      9689      9687      9686      9688      9687      9686      9689
      9688      9686      9689      9678      9690      9691      9678      9690      9692
      9678      9690      9693      9691      9690      9692      9691      9690      9693
      9692      9690      9693      9679      9694      9695      9679      9694      9696
      9679      9694      9700      9695      9694      9696      9695      9694      9700
      9696      9694      9700      9698      9697      9699      9698      9697      9700
      9698      9697      9701      9699      9697      9700      9699      9697      9701
      9700      9697      9701      9694      9700      9697      9697      9701      9702
      9701      9702      9703      9701      9702      9704      9701      9702      9705
      9703      9702      9704      9703      9702      9705      9704      9702      9705
      9702      9705      9706      9702      9705      9707      9702      9705      9713
      9706      9705      9707      9706      9705      9713      9707      9705      9713
      9705      9707      9708      9707      9708      9709      9707      9708      9710
      9709      9708      9710      9708      9710      9711      9708      9710      9712
      9708      9710      9722      9711      9710      9712      9711      9710      9722
      9712      9710      9722      9705      9713      9714      9705      9713      9715
      9705      9713      9716      9714      9713      9715      9714      9713      9716
      9715      9713      9716      9713      9716      9717      9716      9717      9718
      9716      9717      9719      9718      9717      9719      9717      9719      9720
      9717      9719      9721      9717      9719      9769      9720      9719      9721
      9720      9719      9769      9721      9719      9769      9710      9722      9723
      9710      9722      9724      9710      9722      9725      9723      9722      9724
      9723      9722      9725      9724      9722      9725      9722      9725      9726
      9722      9725      9727      9722      9725      9728      9726      9725      9727
      9726      9725      9728      9727      9725      9728      9725      9728      9729
      9725      9728      9730      9725      9728      9731      9729      9728      9730
      9729      9728      9731      9730      9728      9731      9728      9731      9732
      9728      9731      9733      9728      9731      9734      9732      9731      9733
      9732      9731      9734      9733      9731      9734      9731      9734      9735
      9731      9734      9736      9731      9734      9737      9735      9734      9736
      9735      9734      9737      9736      9734      9737      9734      9737      9738
      9734      9737      9739      9734      9737      9740      9738      9737      9739
      9738      9737      9740      9739      9737      9740      9737      9740      9741
      9737      9740      9742      9741      9740      9742      9740      9742      9743
      9740      9742      9744      9743      9742      9744      9742      9744      9745
      9742      9744      9746      9742      9744      9747      9745      9744      9746
      9745      9744      9747      9746      9744      9747      9744      9747      9748
      9744      9747      9749      9744      9747      9750      9748      9747      9749
      9748      9747      9750      9749      9747      9750      9747      9750      9751
      9747      9750      9752      9747      9750      9753      9751      9750      9752
      9751      9750      9753      9752      9750      9753      9750      9753      9754
      9750      9753      9755      9750      9753      9756      9754      9753      9755
      9754      9753      9756      9755      9753      9756      9753      9756      9757
      9753      9756      9758      9753      9756      9759      9757      9756      9758
      9757      9756      9759      9758      9756      9759      9756      9759      9760
      9756      9759      9761      9756      9759      9762      9760      9759      9761
      9760      9759      9762      9761      9759      9762      9759      9762      9763
      9759      9762      9764      9759      9762      9765      9763      9762      9764
      9763      9762      9765      9764      9762      9765      9762      9765      9766
      9762      9765      9767      9762      9765      9768      9766      9765      9767
      9766      9765      9768      9767      9765      9768      9719      9769      9770
      9719      9769      9771      9719      9769      9772      9770      9769      9771
      9770      9769      9772      9771      9769      9772      9769      9772      9773
      9769      9772      9774      9769      9772      9775      9773      9772      9774
      9773      9772      9775      9774      9772      9775      9772      9775      9776
      9772      9775      9777      9772      9775      9778      9776      9775      9777
      9776      9775      9778      9777      9775      9778      9775      9778      9779
      9775      9778      9780      9775      9778      9781      9779      9778      9780
      9779      9778      9781      9780      9778      9781      9778      9781      9782
      9778      9781      9783      9778      9781      9784      9782      9781      9783
      9782      9781      9784      9783      9781      9784      9781      9784      9785
      9781      9784      9786      9781      9784      9787      9785      9784      9786
      9785      9784      9787      9786      9784      9787      9784      9787      9788
      9784      9787      9789      9784      9787      9790      9788      9787      9789
      9788      9787      9790      9789      9787      9790      9787      9790      9791
      9787      9790      9792      9787      9790      9793      9791      9790      9792
      9791      9790      9793      9792      9790      9793      9790      9793      9794
      9790      9793      9795      9790      9793      9796      9794      9793      9795
      9794      9793      9796      9795      9793      9796      9793      9796      9797
      9793      9796      9798      9793      9796      9799      9797      9796      9798
      9797      9796      9799      9798      9796      9799      9796      9799      9800
      9796      9799      9801      9796      9799      9802      9800      9799      9801
      9800      9799      9802      9801      9799      9802      9799      9802      9803
      9799      9802      9804      9799      9802      9805      9803      9802      9804
      9803      9802      9805      9804      9802      9805      9802      9805      9806
      9802      9805      9807      9802      9805      9808      9806      9805      9807
      9806      9805      9808      9807      9805      9808      9805      9808      9809
      9805      9808      9810      9805      9808      9811      9809      9808      9810
      9809      9808      9811      9810      9808      9811      9813      9812      9814
      9813      9812      9815      9813      9812      9816      9814      9812      9815
      9814      9812      9816      9815      9812      9816      9812      9816      9817
      9812      9816      9818      9812      9816      9821      9817      9816      9818
      9817      9816      9821      9818      9816      9821      9816      9818      9819
      9816      9818      9820      9819      9818      9820      9816      9821      9822
      9816      9821      9823      9816      9821      9827      9822      9821      9823
      9822      9821      9827      9823      9821      9827      9825      9824      9826
      9825      9824      9827      9825      9824      9828      9826      9824      9827
      9826      9824      9828      9827      9824      9828      9821      9827      9824
      9824      9828      9829      9828      9829      9830      9828      9829      9831
      9828      9829      9832      9830      9829      9831      9830      9829      9832
      9831      9829      9832      9829      9832      9833      9829      9832      9834
      9829      9832      9840      9833      9832      9834      9833      9832      9840
      9834      9832      9840      9832      9834      9835      9834      9835      9836
      9834      9835      9837      9836      9835      9837      9835      9837      9838
      9835      9837      9839      9835      9837      9849      9838      9837      9839
      9838      9837      9849      9839      9837      9849      9832      9840      9841
      9832      9840      9842      9832      9840      9843      9841      9840      9842
      9841      9840      9843      9842      9840      9843      9840      9843      9844
      9843      9844      9845      9843      9844      9846      9845      9844      9846
      9844      9846      9847      9844      9846      9848      9844      9846      9896
      9847      9846      9848      9847      9846      9896      9848      9846      9896
      9837      9849      9850      9837      9849      9851      9837      9849      9852
      9850      9849      9851      9850      9849      9852      9851      9849      9852
      9849      9852      9853      9849      9852      9854      9849      9852      9855
      9853      9852      9854      9853      9852      9855      9854      9852      9855
      9852      9855      9856      9852      9855      9857      9852      9855      9858
      9856      9855      9857      9856      9855      9858      9857      9855      9858
      9855      9858      9859      9855      9858      9860      9855      9858      9861
      9859      9858      9860      9859      9858      9861      9860      9858      9861
      9858      9861      9862      9858      9861      9863      9858      9861      9864
      9862      9861      9863      9862      9861      9864      9863      9861      9864
      9861      9864      9865      9861      9864      9866      9861      9864      9867
      9865      9864      9866      9865      9864      9867      9866      9864      9867
      9864      9867      9868      9864      9867      9869      9868      9867      9869
      9867      9869      9870      9867      9869      9871      9870      9869      9871
      9869      9871      9872      9869      9871      9873      9869      9871      9874
      9872      9871      9873      9872      9871      9874      9873      9871      9874
      9871      9874      9875      9871      9874      9876      9871      9874      9877
      9875      9874      9876      9875      9874      9877      9876      9874      9877
      9874      9877      9878      9874      9877      9879      9874      9877      9880
      9878      9877      9879      9878      9877      9880      9879      9877      9880
      9877      9880      9881      9877      9880      9882      9877      9880      9883
      9881      9880      9882      9881      9880      9883      9882      9880      9883
      9880      9883      9884      9880      9883      9885      9880      9883      9886
      9884      9883      9885      9884      9883      9886      9885      9883      9886
      9883      9886      9887      9883      9886      9888      9883      9886      9889
      9887      9886      9888      9887      9886      9889      9888      9886      9889
      9886      9889      9890      9886      9889      9891      9886      9889      9892
      9890      9889      9891      9890      9889      9892      9891      9889      9892
      9889      9892      9893      9889      9892      9894      9889      9892      9895
      9893      9892      9894      9893      9892      9895      9894      9892      9895
      9846      9896      9897      9846      9896      9898      9846      9896      9899
      9897      9896      9898      9897      9896      9899      9898      9896      9899
      9896      9899      9900      9896      9899      9901      9896      9899      9902
      9900      9899      9901      9900      9899      9902      9901      9899      9902
      9899      9902      9903      9899      9902      9904      9899      9902      9905
      9903      9902      9904      9903      9902      9905      9904      9902      9905
      9902      9905      9906      9902      9905      9907      9902      9905      9908
      9906      9905      9907      9906      9905      9908      9907      9905      9908
      9905      9908      9909      9905      9908      9910      9905      9908      9911
      9909      9908      9910      9909      9908      9911      9910      9908      9911
      9908      9911      9912      9908      9911      9913      9908      9911      9914
      9912      9911      9913      9912      9911      9914      9913      9911      9914
      9911      9914      9915      9911      9914      9916      9911      9914      9917
      9915      9914      9916      9915      9914      9917      9916      9914      9917
      9914      9917      9918      9914      9917      9919      9914      9917      9920
      9918      9917      9919      9918      9917      9920      9919      9917      9920
      9917      9920      9921      9917      9920      9922      9917      9920      9923
      9921      9920      9922      9921      9920      9923      9922      9920      9923
      9920      9923      9924      9920      9923      9925      9920      9923      9926
      9924      9923      9925      9924      9923      9926      9925      9923      9926
      9923      9926      9927      9923      9926      9928      9923      9926      9929
      9927      9926      9928      9927      9926      9929      9928      9926      9929
      9926      9929      9930      9926      9929      9931      9926      9929      9932
      9930      9929      9931      9930      9929      9932      9931      9929      9932
      9929      9932      9933      9929      9932      9934      9929      9932      9935
      9933      9932      9934      9933      9932      9935      9934      9932      9935
      9932      9935      9936      9932      9935      9937      9932      9935      9938
      9936      9935      9937      9936      9935      9938      9937      9935      9938
      9940      9939      9943      9940      9939      9947      9940      9939      9951
      9943      9939      9947      9943      9939      9951      9947      9939      9951
      9939      9940      9941      9939      9940      9942      9939      9940      9955
      9941      9940      9942      9941      9940      9955      9942      9940      9955
      9939      9943      9944      9939      9943      9945      9939      9943      9946
      9944      9943      9945      9944      9943      9946      9945      9943      9946
      9939      9947      9948      9939      9947      9949      9939      9947      9950
      9948      9947      9949      9948      9947      9950      9949      9947      9950
      9939      9951      9952      9939      9951      9953      9939      9951      9954
      9952      9951      9953      9952      9951      9954      9953      9951      9954
      9940      9955      9956      9940      9955      9957      9940      9955      9961
      9956      9955      9957      9956      9955      9961      9957      9955      9961
      9959      9958      9960      9959      9958      9961      9959      9958      9962
      9960      9958      9961      9960      9958      9962      9961      9958      9962
      9955      9961      9958      9958      9962      9963      9962      9963      9964
      9962      9963      9965      9962      9963      9966      9964      9963      9965
      9964      9963      9966      9965      9963      9966      9963      9966      9967
      9963      9966      9968      9963      9966      9974      9967      9966      9968
      9967      9966      9974      9968      9966      9974      9966      9968      9969
      9968      9969      9970      9968      9969      9971      9970      9969      9971
      9969      9971      9972      9969      9971      9973      9969      9971      9983
      9972      9971      9973      9972      9971      9983      9973      9971      9983
      9966      9974      9975      9966      9974      9976      9966      9974      9977
      9975      9974      9976      9975      9974      9977      9976      9974      9977
      9974      9977      9978      9977      9978      9979      9977      9978      9980
      9979      9978      9980      9978      9980      9981      9978      9980      9982
      9978      9980     10030      9981      9980      9982      9981      9980     10030
      9982      9980     10030      9971      9983      9984      9971      9983      9985
      9971      9983      9986      9984      9983      9985      9984      9983      9986
      9985      9983      9986      9983      9986      9987      9983      9986      9988
      9983      9986      9989      9987      9986      9988      9987      9986      9989
      9988      9986      9989      9986      9989      9990      9986      9989      9991
      9986      9989      9992      9990      9989      9991      9990      9989      9992
      9991      9989      9992      9989      9992      9993      9989      9992      9994
      9989      9992      9995      9993      9992      9994      9993      9992      9995
      9994      9992      9995      9992      9995      9996      9992      9995      9997
      9992      9995      9998      9996      9995      9997      9996      9995      9998
      9997      9995      9998      9995      9998      9999      9995      9998     10000
      9995      9998     10001      9999      9998     10000      9999      9998     10001
     10000      9998     10001      9998     10001     10002      9998     10001     10003
     10002     10001     10003     10001     10003     10004     10001     10003     10005
     10004     10003     10005     10003     10005     10006     10003     10005     10007
     10003     10005     10008     10006     10005     10007     10006     10005     10008
     10007     10005     10008     10005     10008     10009     10005     10008     10010
     10005     10008     10011     10009     10008     10010     10009     10008     10011
     10010     10008     10011     10008     10011     10012     10008     10011     10013
     10008     10011     10014     10012     10011     10013     10012     10011     10014
     10013     10011     10014     10011     10014     10015     10011     10014     10016
     10011     10014     10017     10015     10014     10016     10015     10014     10017
     10016     10014     10017     10014     10017     10018     10014     10017     10019
     10014     10017     10020     10018     10017     10019     10018     10017     10020
     10019     10017     10020     10017     10020     10021     10017     10020     10022
     10017     10020     10023     10021     10020     10022     10021     10020     10023
     10022     10020     10023     10020     10023     10024     10020     10023     10025
     10020     10023     10026     10024     10023     10025     10024     10023     10026
     10025     10023     10026     10023     10026     10027     10023     10026     10028
     10023     10026     10029     10027     10026     10028     10027     10026     10029
     10028     10026     10029      9980     10030     10031      9980     10030     10032
      9980     10030     10033     10031     10030     10032     10031     10030     10033
     10032     10030     10033     10030     10033     10034     10030     10033     10035
     10030     10033     10036     10034     10033     10035     10034     10033     10036
     10035     10033     10036     10033     10036     10037     10033     10036     10038
     10033     10036     10039     10037     10036     10038     10037     10036     10039
     10038     10036     10039     10036     10039     10040     10036     10039     10041
     10036     10039     10042     10040     10039     10041     10040     10039     10042
     10041     10039     10042     10039     10042     10043     10039     10042     10044
     10039     10042     10045     10043     10042     10044     10043     10042     10045
     10044     10042     10045     10042     10045     10046     10042     10045     10047
     10042     10045     10048     10046     10045     10047     10046     10045     10048
     10047     10045     10048     10045     10048     10049     10045     10048     10050
     10045     10048     10051     10049     10048     10050     10049     10048     10051
     10050     10048     10051     10048     10051     10052     10048     10051     10053
     10048     10051     10054     10052     10051     10053     10052     10051     10054
     10053     10051     10054     10051     10054     10055     10051     10054     10056
     10051     10054     10057     10055     10054     10056     10055     10054     10057
     10056     10054     10057     10054     10057     10058     10054     10057     10059
     10054     10057     10060     10058     10057     10059     10058     10057     10060
     10059     10057     10060     10057     10060     10061     10057     10060     10062
     10057     10060     10063     10061     10060     10062     10061     10060     10063
     10062     10060     10063     10060     10063     10064     10060     10063     10065
     10060     10063     10066     10064     10063     10065     10064     10063     10066
     10065     10063     10066     10063     10066     10067     10063     10066     10068
     10063     10066     10069     10067     10066     10068     10067     10066     10069
     10068     10066     10069     10066     10069     10070     10066     10069     10071
     10066     10069     10072     10070     10069     10071     10070     10069     10072
     10071     10069     10072     10074     10073     10077     10074     10073     10081
     10074     10073     10085     10077     10073     10081     10077     10073     10085
     10081     10073     10085     10073     10074     10075     10073     10074     10076
     10073     10074     10089     10075     10074     10076     10075     10074     10089
     10076     10074     10089     10073     10077     10078     10073     10077     10079
     10073     10077     10080     10078     10077     10079     10078     10077     10080
     10079     10077     10080     10073     10081     10082     10073     10081     10083
     10073     10081     10084     10082     10081     10083     10082     10081     10084
     10083     10081     10084     10073     10085     10086     10073     10085     10087
     10073     10085     10088     10086     10085     10087     10086     10085     10088
     10087     10085     10088     10074     10089     10090     10074     10089     10091
     10074     10089     10095     10090     10089     10091     10090     10089     10095
     10091     10089     10095     10093     10092     10094     10093     10092     10095
     10093     10092     10096     10094     10092     10095     10094     10092     10096
     10095     10092     10096     10089     10095     10092     10092     10096     10097
     10096     10097     10098     10096     10097     10099     10096     10097     10100
     10098     10097     10099     10098     10097     10100     10099     10097     10100
     10097     10100     10101     10097     10100     10102     10097     10100     10108
     10101     10100     10102     10101     10100     10108     10102     10100     10108
     10100     10102     10103     10102     10103     10104     10102     10103     10105
     10104     10103     10105     10103     10105     10106     10103     10105     10107
     10103     10105     10117     10106     10105     10107     10106     10105     10117
     10107     10105     10117     10100     10108     10109     10100     10108     10110
     10100     10108     10111     10109     10108     10110     10109     10108     10111
     10110     10108     10111     10108     10111     10112     10111     10112     10113
     10111     10112     10114     10113     10112     10114     10112     10114     10115
     10112     10114     10116     10112     10114     10164     10115     10114     10116
     10115     10114     10164     10116     10114     10164     10105     10117     10118
     10105     10117     10119     10105     10117     10120     10118     10117     10119
     10118     10117     10120     10119     10117     10120     10117     10120     10121
     10117     10120     10122     10117     10120     10123     10121     10120     10122
     10121     10120     10123     10122     10120     10123     10120     10123     10124
     10120     10123     10125     10120     10123     10126     10124     10123     10125
     10124     10123     10126     10125     10123     10126     10123     10126     10127
     10123     10126     10128     10123     10126     10129     10127     10126     10128
     10127     10126     10129     10128     10126     10129     10126     10129     10130
     10126     10129     10131     10126     10129     10132     10130     10129     10131
     10130     10129     10132     10131     10129     10132     10129     10132     10133
     10129     10132     10134     10129     10132     10135     10133     10132     10134
     10133     10132     10135     10134     10132     10135     10132     10135     10136
     10132     10135     10137     10136     10135     10137     10135     10137     10138
     10135     10137     10139     10138     10137     10139     10137     10139     10140
     10137     10139     10141     10137     10139     10142     10140     10139     10141
     10140     10139     10142     10141     10139     10142     10139     10142     10143
     10139     10142     10144     10139     10142     10145     10143     10142     10144
     10143     10142     10145     10144     10142     10145     10142     10145     10146
     10142     10145     10147     10142     10145     10148     10146     10145     10147
     10146     10145     10148     10147     10145     10148     10145     10148     10149
     10145     10148     10150     10145     10148     10151     10149     10148     10150
     10149     10148     10151     10150     10148     10151     10148     10151     10152
     10148     10151     10153     10148     10151     10154     10152     10151     10153
     10152     10151     10154     10153     10151     10154     10151     10154     10155
     10151     10154     10156     10151     10154     10157     10155     10154     10156
     10155     10154     10157     10156     10154     10157     10154     10157     10158
     10154     10157     10159     10154     10157     10160     10158     10157     10159
     10158     10157     10160     10159     10157     10160     10157     10160     10161
     10157     10160     10162     10157     10160     10163     10161     10160     10162
     10161     10160     10163     10162     10160     10163     10114     10164     10165
     10114     10164     10166     10114     10164     10167     10165     10164     10166
     10165     10164     10167     10166     10164     10167     10164     10167     10168
     10164     10167     10169     10164     10167     10170     10168     10167     10169
     10168     10167     10170     10169     10167     10170     10167     10170     10171
     10167     10170     10172     10167     10170     10173     10171     10170     10172
     10171     10170     10173     10172     10170     10173     10170     10173     10174
     10170     10173     10175     10170     10173     10176     10174     10173     10175
     10174     10173     10176     10175     10173     10176     10173     10176     10177
     10173     10176     10178     10173     10176     10179     10177     10176     10178
     10177     10176     10179     10178     10176     10179     10176     10179     10180
     10176     10179     10181     10176     10179     10182     10180     10179     10181
     10180     10179     10182     10181     10179     10182     10179     10182     10183
     10179     10182     10184     10179     10182     10185     10183     10182     10184
     10183     10182     10185     10184     10182     10185     10182     10185     10186
     10182     10185     10187     10182     10185     10188     10186     10185     10187
     10186     10185     10188     10187     10185     10188     10185     10188     10189
     10185     10188     10190     10185     10188     10191     10189     10188     10190
     10189     10188     10191     10190     10188     10191     10188     10191     10192
     10188     10191     10193     10188     10191     10194     10192     10191     10193
     10192     10191     10194     10193     10191     10194     10191     10194     10195
     10191     10194     10196     10191     10194     10197     10195     10194     10196
     10195     10194     10197     10196     10194     10197     10194     10197     10198
     10194     10197     10199     10194     10197     10200     10198     10197     10199
     10198     10197     10200     10199     10197     10200     10197     10200     10201
     10197     10200     10202     10197     10200     10203     10201     10200     10202
     10201     10200     10203     10202     10200     10203     10200     10203     10204
     10200     10203     10205     10200     10203     10206     10204     10203     10205
     10204     10203     10206     10205     10203     10206     10208     10207     10211
     10208     10207     10215     10208     10207     10219     10211     10207     10215
     10211     10207     10219     10215     10207     10219     10207     10208     10209
     10207     10208     10210     10207     10208     10223     10209     10208     10210
     10209     10208     10223     10210     10208     10223     10207     10211     10212
     10207     10211     10213     10207     10211     10214     10212     10211     10213
     10212     10211     10214     10213     10211     10214     10207     10215     10216
     10207     10215     10217     10207     10215     10218     10216     10215     10217
     10216     10215     10218     10217     10215     10218     10207     10219     10220
     10207     10219     10221     10207     10219     10222     10220     10219     10221
     10220     10219     10222     10221     10219     10222     10208     10223     10224
     10208     10223     10225     10208     10223     10229     10224     10223     10225
     10224     10223     10229     10225     10223     10229     10227     10226     10228
     10227     10226     10229     10227     10226     10230     10228     10226     10229
     10228     10226     10230     10229     10226     10230     10223     10229     10226
     10226     10230     10231     10230     10231     10232     10230     10231     10233
     10230     10231     10234     10232     10231     10233     10232     10231     10234
     10233     10231     10234     10231     10234     10235     10231     10234     10236
     10231     10234     10242     10235     10234     10236     10235     10234     10242
     10236     10234     10242     10234     10236     10237     10236     10237     10238
     10236     10237     10239     10238     10237     10239     10237     10239     10240
     10237     10239     10241     10237     10239     10251     10240     10239     10241
     10240     10239     10251     10241     10239     10251     10234     10242     10243
     10234     10242     10244     10234     10242     10245     10243     10242     10244
     10243     10242     10245     10244     10242     10245     10242     10245     10246
     10245     10246     10247     10245     10246     10248     10247     10246     10248
     10246     10248     10249     10246     10248     10250     10246     10248     10298
     10249     10248     10250     10249     10248     10298     10250     10248     10298
     10239     10251     10252     10239     10251     10253     10239     10251     10254
     10252     10251     10253     10252     10251     10254     10253     10251     10254
     10251     10254     10255     10251     10254     10256     10251     10254     10257
     10255     10254     10256     10255     10254     10257     10256     10254     10257
     10254     10257     10258     10254     10257     10259     10254     10257     10260
     10258     10257     10259     10258     10257     10260     10259     10257     10260
     10257     10260     10261     10257     10260     10262     10257     10260     10263
     10261     10260     10262     10261     10260     10263     10262     10260     10263
     10260     10263     10264     10260     10263     10265     10260     10263     10266
     10264     10263     10265     10264     10263     10266     10265     10263     10266
     10263     10266     10267     10263     10266     10268     10263     10266     10269
     10267     10266     10268     10267     10266     10269     10268     10266     10269
     10266     10269     10270     10266     10269     10271     10270     10269     10271
     10269     10271     10272     10269     10271     10273     10272     10271     10273
     10271     10273     10274     10271     10273     10275     10271     10273     10276
     10274     10273     10275     10274     10273     10276     10275     10273     10276
     10273     10276     10277     10273     10276     10278     10273     10276     10279
     10277     10276     10278     10277     10276     10279     10278     10276     10279
     10276     10279     10280     10276     10279     10281     10276     10279     10282
     10280     10279     10281     10280     10279     10282     10281     10279     10282
     10279     10282     10283     10279     10282     10284     10279     10282     10285
     10283     10282     10284     10283     10282     10285     10284     10282     10285
     10282     10285     10286     10282     10285     10287     10282     10285     10288
     10286     10285     10287     10286     10285     10288     10287     10285     10288
     10285     10288     10289     10285     10288     10290     10285     10288     10291
     10289     10288     10290     10289     10288     10291     10290     10288     10291
     10288     10291     10292     10288     10291     10293     10288     10291     10294
     10292     10291     10293     10292     10291     10294     10293     10291     10294
     10291     10294     10295     10291     10294     10296     10291     10294     10297
     10295     10294     10296     10295     10294     10297     10296     10294     10297
     10248     10298     10299     10248     10298     10300     10248     10298     10301
     10299     10298     10300     10299     10298     10301     10300     10298     10301
     10298     10301     10302     10298     10301     10303     10298     10301     10304
     10302     10301     10303     10302     10301     10304     10303     10301     10304
     10301     10304     10305     10301     10304     10306     10301     10304     10307
     10305     10304     10306     10305     10304     10307     10306     10304     10307
     10304     10307     10308     10304     10307     10309     10304     10307     10310
     10308     10307     10309     10308     10307     10310     10309     10307     10310
     10307     10310     10311     10307     10310     10312     10307     10310     10313
     10311     10310     10312     10311     10310     10313     10312     10310     10313
     10310     10313     10314     10310     10313     10315     10310     10313     10316
     10314     10313     10315     10314     10313     10316     10315     10313     10316
     10313     10316     10317     10313     10316     10318     10313     10316     10319
     10317     10316     10318     10317     10316     10319     10318     10316     10319
     10316     10319     10320     10316     10319     10321     10316     10319     10322
     10320     10319     10321     10320     10319     10322     10321     10319     10322
     10319     10322     10323     10319     10322     10324     10319     10322     10325
     10323     10322     10324     10323     10322     10325     10324     10322     10325
     10322     10325     10326     10322     10325     10327     10322     10325     10328
     10326     10325     10327     10326     10325     10328     10327     10325     10328
     10325     10328     10329     10325     10328     10330     10325     10328     10331
     10329     10328     10330     10329     10328     10331     10330     10328     10331
     10328     10331     10332     10328     10331     10333     10328     10331     10334
     10332     10331     10333     10332     10331     10334     10333     10331     10334
     10331     10334     10335     10331     10334     10336     10331     10334     10337
     10335     10334     10336     10335     10334     10337     10336     10334     10337
     10334     10337     10338     10334     10337     10339     10334     10337     10340
     10338     10337     10339     10338     10337     10340     10339     10337     10340
     10342     10341     10345     10342     10341     10349     10342     10341     10353
     10345     10341     10349     10345     10341     10353     10349     10341     10353
     10341     10342     10343     10341     10342     10344     10341     10342     10357
     10343     10342     10344     10343     10342     10357     10344     10342     10357
     10341     10345     10346     10341     10345     10347     10341     10345     10348
     10346     10345     10347     10346     10345     10348     10347     10345     10348
     10341     10349     10350     10341     10349     10351     10341     10349     10352
     10350     10349     10351     10350     10349     10352     10351     10349     10352
     10341     10353     10354     10341     10353     10355     10341     10353     10356
     10354     10353     10355     10354     10353     10356     10355     10353     10356
     10342     10357     10358     10342     10357     10359     10342     10357     10363
     10358     10357     10359     10358     10357     10363     10359     10357     10363
     10361     10360     10362     10361     10360     10363     10361     10360     10364
     10362     10360     10363     10362     10360     10364     10363     10360     10364
     10357     10363     10360     10360     10364     10365     10364     10365     10366
     10364     10365     10367     10364     10365     10368     10366     10365     10367
     10366     10365     10368     10367     10365     10368     10365     10368     10369
     10365     10368     10370     10365     10368     10376     10369     10368     10370
     10369     10368     10376     10370     10368     10376     10368     10370     10371
     10370     10371     10372     10370     10371     10373     10372     10371     10373
     10371     10373     10374     10371     10373     10375     10371     10373     10385
     10374     10373     10375     10374     10373     10385     10375     10373     10385
     10368     10376     10377     10368     10376     10378     10368     10376     10379
     10377     10376     10378     10377     10376     10379     10378     10376     10379
     10376     10379     10380     10379     10380     10381     10379     10380     10382
     10381     10380     10382     10380     10382     10383     10380     10382     10384
     10380     10382     10432     10383     10382     10384     10383     10382     10432
     10384     10382     10432     10373     10385     10386     10373     10385     10387
     10373     10385     10388     10386     10385     10387     10386     10385     10388
     10387     10385     10388     10385     10388     10389     10385     10388     10390
     10385     10388     10391     10389     10388     10390     10389     10388     10391
     10390     10388     10391     10388     10391     10392     10388     10391     10393
     10388     10391     10394     10392     10391     10393     10392     10391     10394
     10393     10391     10394     10391     10394     10395     10391     10394     10396
     10391     10394     10397     10395     10394     10396     10395     10394     10397
     10396     10394     10397     10394     10397     10398     10394     10397     10399
     10394     10397     10400     10398     10397     10399     10398     10397     10400
     10399     10397     10400     10397     10400     10401     10397     10400     10402
     10397     10400     10403     10401     10400     10402     10401     10400     10403
     10402     10400     10403     10400     10403     10404     10400     10403     10405
     10404     10403     10405     10403     10405     10406     10403     10405     10407
     10406     10405     10407     10405     10407     10408     10405     10407     10409
     10405     10407     10410     10408     10407     10409     10408     10407     10410
     10409     10407     10410     10407     10410     10411     10407     10410     10412
     10407     10410     10413     10411     10410     10412     10411     10410     10413
     10412     10410     10413     10410     10413     10414     10410     10413     10415
     10410     10413     10416     10414     10413     10415     10414     10413     10416
     10415     10413     10416     10413     10416     10417     10413     10416     10418
     10413     10416     10419     10417     10416     10418     10417     10416     10419
     10418     10416     10419     10416     10419     10420     10416     10419     10421
     10416     10419     10422     10420     10419     10421     10420     10419     10422
     10421     10419     10422     10419     10422     10423     10419     10422     10424
     10419     10422     10425     10423     10422     10424     10423     10422     10425
     10424     10422     10425     10422     10425     10426     10422     10425     10427
     10422     10425     10428     10426     10425     10427     10426     10425     10428
     10427     10425     10428     10425     10428     10429     10425     10428     10430
     10425     10428     10431     10429     10428     10430     10429     10428     10431
     10430     10428     10431     10382     10432     10433     10382     10432     10434
     10382     10432     10435     10433     10432     10434     10433     10432     10435
     10434     10432     10435     10432     10435     10436     10432     10435     10437
     10432     10435     10438     10436     10435     10437     10436     10435     10438
     10437     10435     10438     10435     10438     10439     10435     10438     10440
     10435     10438     10441     10439     10438     10440     10439     10438     10441
     10440     10438     10441     10438     10441     10442     10438     10441     10443
     10438     10441     10444     10442     10441     10443     10442     10441     10444
     10443     10441     10444     10441     10444     10445     10441     10444     10446
     10441     10444     10447     10445     10444     10446     10445     10444     10447
     10446     10444     10447     10444     10447     10448     10444     10447     10449
     10444     10447     10450     10448     10447     10449     10448     10447     10450
     10449     10447     10450     10447     10450     10451     10447     10450     10452
     10447     10450     10453     10451     10450     10452     10451     10450     10453
     10452     10450     10453     10450     10453     10454     10450     10453     10455
     10450     10453     10456     10454     10453     10455     10454     10453     10456
     10455     10453     10456     10453     10456     10457     10453     10456     10458
     10453     10456     10459     10457     10456     10458     10457     10456     10459
     10458     10456     10459     10456     10459     10460     10456     10459     10461
     10456     10459     10462     10460     10459     10461     10460     10459     10462
     10461     10459     10462     10459     10462     10463     10459     10462     10464
     10459     10462     10465     10463     10462     10464     10463     10462     10465
     10464     10462     10465     10462     10465     10466     10462     10465     10467
     10462     10465     10468     10466     10465     10467     10466     10465     10468
     10467     10465     10468     10465     10468     10469     10465     10468     10470
     10465     10468     10471     10469     10468     10470     10469     10468     10471
     10470     10468     10471     10468     10471     10472     10468     10471     10473
     10468     10471     10474     10472     10471     10473     10472     10471     10474
     10473     10471     10474     10476     10475     10477     10476     10475     10478
     10476     10475     10479     10477     10475     10478     10477     10475     10479
     10478     10475     10479     10475     10479     10480     10475     10479     10481
     10475     10479     10484     10480     10479     10481     10480     10479     10484
     10481     10479     10484     10479     10481     10482     10479     10481     10483
     10482     10481     10483     10479     10484     10485     10479     10484     10486
     10479     10484     10490     10485     10484     10486     10485     10484     10490
     10486     10484     10490     10488     10487     10489     10488     10487     10490
     10488     10487     10491     10489     10487     10490     10489     10487     10491
     10490     10487     10491     10484     10490     10487     10487     10491     10492
     10491     10492     10493     10491     10492     10494     10491     10492     10495
     10493     10492     10494     10493     10492     10495     10494     10492     10495
     10492     10495     10496     10492     10495     10497     10492     10495     10503
     10496     10495     10497     10496     10495     10503     10497     10495     10503
     10495     10497     10498     10497     10498     10499     10497     10498     10500
     10499     10498     10500     10498     10500     10501     10498     10500     10502
     10498     10500     10512     10501     10500     10502     10501     10500     10512
     10502     10500     10512     10495     10503     10504     10495     10503     10505
     10495     10503     10506     10504     10503     10505     10504     10503     10506
     10505     10503     10506     10503     10506     10507     10506     10507     10508
     10506     10507     10509     10508     10507     10509     10507     10509     10510
     10507     10509     10511     10507     10509     10559     10510     10509     10511
     10510     10509     10559     10511     10509     10559     10500     10512     10513
     10500     10512     10514     10500     10512     10515     10513     10512     10514
     10513     10512     10515     10514     10512     10515     10512     10515     10516
     10512     10515     10517     10512     10515     10518     10516     10515     10517
     10516     10515     10518     10517     10515     10518     10515     10518     10519
     10515     10518     10520     10515     10518     10521     10519     10518     10520
     10519     10518     10521     10520     10518     10521     10518     10521     10522
     10518     10521     10523     10518     10521     10524     10522     10521     10523
     10522     10521     10524     10523     10521     10524     10521     10524     10525
     10521     10524     10526     10521     10524     10527     10525     10524     10526
     10525     10524     10527     10526     10524     10527     10524     10527     10528
     10524     10527     10529     10524     10527     10530     10528     10527     10529
     10528     10527     10530     10529     10527     10530     10527     10530     10531
     10527     10530     10532     10531     10530     10532     10530     10532     10533
     10530     10532     10534     10533     10532     10534     10532     10534     10535
     10532     10534     10536     10532     10534     10537     10535     10534     10536
     10535     10534     10537     10536     10534     10537     10534     10537     10538
     10534     10537     10539     10534     10537     10540     10538     10537     10539
     10538     10537     10540     10539     10537     10540     10537     10540     10541
     10537     10540     10542     10537     10540     10543     10541     10540     10542
     10541     10540     10543     10542     10540     10543     10540     10543     10544
     10540     10543     10545     10540     10543     10546     10544     10543     10545
     10544     10543     10546     10545     10543     10546     10543     10546     10547
     10543     10546     10548     10543     10546     10549     10547     10546     10548
     10547     10546     10549     10548     10546     10549     10546     10549     10550
     10546     10549     10551     10546     10549     10552     10550     10549     10551
     10550     10549     10552     10551     10549     10552     10549     10552     10553
     10549     10552     10554     10549     10552     10555     10553     10552     10554
     10553     10552     10555     10554     10552     10555     10552     10555     10556
     10552     10555     10557     10552     10555     10558     10556     10555     10557
     10556     10555     10558     10557     10555     10558     10509     10559     10560
     10509     10559     10561     10509     10559     10562     10560     10559     10561
     10560     10559     10562     10561     10559     10562     10559     10562     10563
     10559     10562     10564     10559     10562     10565     10563     10562     10564
     10563     10562     10565     10564     10562     10565     10562     10565     10566
     10562     10565     10567     10562     10565     10568     10566     10565     10567
     10566     10565     10568     10567     10565     10568     10565     10568     10569
     10565     10568     10570     10565     10568     10571     10569     10568     10570
     10569     10568     10571     10570     10568     10571     10568     10571     10572
     10568     10571     10573     10568     10571     10574     10572     10571     10573
     10572     10571     10574     10573     10571     10574     10571     10574     10575
     10571     10574     10576     10571     10574     10577     10575     10574     10576
     10575     10574     10577     10576     10574     10577     10574     10577     10578
     10574     10577     10579     10574     10577     10580     10578     10577     10579
     10578     10577     10580     10579     10577     10580     10577     10580     10581
     10577     10580     10582     10577     10580     10583     10581     10580     10582
     10581     10580     10583     10582     10580     10583     10580     10583     10584
     10580     10583     10585     10580     10583     10586     10584     10583     10585
     10584     10583     10586     10585     10583     10586     10583     10586     10587
     10583     10586     10588     10583     10586     10589     10587     10586     10588
     10587     10586     10589     10588     10586     10589     10586     10589     10590
     10586     10589     10591     10586     10589     10592     10590     10589     10591
     10590     10589     10592     10591     10589     10592     10589     10592     10593
     10589     10592     10594     10589     10592     10595     10593     10592     10594
     10593     10592     10595     10594     10592     10595     10592     10595     10596
     10592     10595     10597     10592     10595     10598     10596     10595     10597
     10596     10595     10598     10597     10595     10598     10595     10598     10599
     10595     10598     10600     10595     10598     10601     10599     10598     10600
     10599     10598     10601     10600     10598     10601     10603     10602     10604
     10603     10602     10605     10603     10602     10606     10604     10602     10605
     10604     10602     10606     10605     10602     10606     10602     10606     10607
     10602     10606     10608     10602     10606     10611     10607     10606     10608
     10607     10606     10611     10608     10606     10611     10606     10608     10609
     10606     10608     10610     10609     10608     10610     10606     10611     10612
     10606     10611     10613     10606     10611     10617     10612     10611     10613
     10612     10611     10617     10613     10611     10617     10615     10614     10616
     10615     10614     10617     10615     10614     10618     10616     10614     10617
     10616     10614     10618     10617     10614     10618     10611     10617     10614
     10614     10618     10619     10618     10619     10620     10618     10619     10621
     10618     10619     10622     10620     10619     10621     10620     10619     10622
     10621     10619     10622     10619     10622     10623     10619     10622     10624
     10619     10622     10630     10623     10622     10624     10623     10622     10630
     10624     10622     10630     10622     10624     10625     10624     10625     10626
     10624     10625     10627     10626     10625     10627     10625     10627     10628
     10625     10627     10629     10625     10627     10639     10628     10627     10629
     10628     10627     10639     10629     10627     10639     10622     10630     10631
     10622     10630     10632     10622     10630     10633     10631     10630     10632
     10631     10630     10633     10632     10630     10633     10630     10633     10634
     10633     10634     10635     10633     10634     10636     10635     10634     10636
     10634     10636     10637     10634     10636     10638     10634     10636     10686
     10637     10636     10638     10637     10636     10686     10638     10636     10686
     10627     10639     10640     10627     10639     10641     10627     10639     10642
     10640     10639     10641     10640     10639     10642     10641     10639     10642
     10639     10642     10643     10639     10642     10644     10639     10642     10645
     10643     10642     10644     10643     10642     10645     10644     10642     10645
     10642     10645     10646     10642     10645     10647     10642     10645     10648
     10646     10645     10647     10646     10645     10648     10647     10645     10648
     10645     10648     10649     10645     10648     10650     10645     10648     10651
     10649     10648     10650     10649     10648     10651     10650     10648     10651
     10648     10651     10652     10648     10651     10653     10648     10651     10654
     10652     10651     10653     10652     10651     10654     10653     10651     10654
     10651     10654     10655     10651     10654     10656     10651     10654     10657
     10655     10654     10656     10655     10654     10657     10656     10654     10657
     10654     10657     10658     10654     10657     10659     10658     10657     10659
     10657     10659     10660     10657     10659     10661     10660     10659     10661
     10659     10661     10662     10659     10661     10663     10659     10661     10664
     10662     10661     10663     10662     10661     10664     10663     10661     10664
     10661     10664     10665     10661     10664     10666     10661     10664     10667
     10665     10664     10666     10665     10664     10667     10666     10664     10667
     10664     10667     10668     10664     10667     10669     10664     10667     10670
     10668     10667     10669     10668     10667     10670     10669     10667     10670
     10667     10670     10671     10667     10670     10672     10667     10670     10673
     10671     10670     10672     10671     10670     10673     10672     10670     10673
     10670     10673     10674     10670     10673     10675     10670     10673     10676
     10674     10673     10675     10674     10673     10676     10675     10673     10676
     10673     10676     10677     10673     10676     10678     10673     10676     10679
     10677     10676     10678     10677     10676     10679     10678     10676     10679
     10676     10679     10680     10676     10679     10681     10676     10679     10682
     10680     10679     10681     10680     10679     10682     10681     10679     10682
     10679     10682     10683     10679     10682     10684     10679     10682     10685
     10683     10682     10684     10683     10682     10685     10684     10682     10685
     10636     10686     10687     10636     10686     10688     10636     10686     10689
     10687     10686     10688     10687     10686     10689     10688     10686     10689
     10686     10689     10690     10686     10689     10691     10686     10689     10692
     10690     10689     10691     10690     10689     10692     10691     10689     10692
     10689     10692     10693     10689     10692     10694     10689     10692     10695
     10693     10692     10694     10693     10692     10695     10694     10692     10695
     10692     10695     10696     10692     10695     10697     10692     10695     10698
     10696     10695     10697     10696     10695     10698     10697     10695     10698
     10695     10698     10699     10695     10698     10700     10695     10698     10701
     10699     10698     10700     10699     10698     10701     10700     10698     10701
     10698     10701     10702     10698     10701     10703     10698     10701     10704
     10702     10701     10703     10702     10701     10704     10703     10701     10704
     10701     10704     10705     10701     10704     10706     10701     10704     10707
     10705     10704     10706     10705     10704     10707     10706     10704     10707
     10704     10707     10708     10704     10707     10709     10704     10707     10710
     10708     10707     10709     10708     10707     10710     10709     10707     10710
     10707     10710     10711     10707     10710     10712     10707     10710     10713
     10711     10710     10712     10711     10710     10713     10712     10710     10713
     10710     10713     10714     10710     10713     10715     10710     10713     10716
     10714     10713     10715     10714     10713     10716     10715     10713     10716
     10713     10716     10717     10713     10716     10718     10713     10716     10719
     10717     10716     10718     10717     10716     10719     10718     10716     10719
     10716     10719     10720     10716     10719     10721     10716     10719     10722
     10720     10719     10721     10720     10719     10722     10721     10719     10722
     10719     10722     10723     10719     10722     10724     10719     10722     10725
     10723     10722     10724     10723     10722     10725     10724     10722     10725
     10722     10725     10726     10722     10725     10727     10722     10725     10728
     10726     10725     10727     10726     10725     10728     10727     10725     10728
     10730     10729     10731     10730     10729     10732     10730     10729     10733
     10731     10729     10732     10731     10729     10733     10732     10729     10733
     10729     10733     10734     10729     10733     10735     10729     10733     10738
     10734     10733     10735     10734     10733     10738     10735     10733     10738
     10733     10735     10736     10733     10735     10737     10736     10735     10737
     10733     10738     10739     10733     10738     10740     10733     10738     10744
     10739     10738     10740     10739     10738     10744     10740     10738     10744
     10742     10741     10743     10742     10741     10744     10742     10741     10745
     10743     10741     10744     10743     10741     10745     10744     10741     10745
     10738     10744     10741     10741     10745     10746     10745     10746     10747
     10745     10746     10748     10745     10746     10749     10747     10746     10748
     10747     10746     10749     10748     10746     10749     10746     10749     10750
     10746     10749     10751     10746     10749     10757     10750     10749     10751
     10750     10749     10757     10751     10749     10757     10749     10751     10752
     10751     10752     10753     10751     10752     10754     10753     10752     10754
     10752     10754     10755     10752     10754     10756     10752     10754     10766
     10755     10754     10756     10755     10754     10766     10756     10754     10766
     10749     10757     10758     10749     10757     10759     10749     10757     10760
     10758     10757     10759     10758     10757     10760     10759     10757     10760
     10757     10760     10761     10760     10761     10762     10760     10761     10763
     10762     10761     10763     10761     10763     10764     10761     10763     10765
     10761     10763     10813     10764     10763     10765     10764     10763     10813
     10765     10763     10813     10754     10766     10767     10754     10766     10768
     10754     10766     10769     10767     10766     10768     10767     10766     10769
     10768     10766     10769     10766     10769     10770     10766     10769     10771
     10766     10769     10772     10770     10769     10771     10770     10769     10772
     10771     10769     10772     10769     10772     10773     10769     10772     10774
     10769     10772     10775     10773     10772     10774     10773     10772     10775
     10774     10772     10775     10772     10775     10776     10772     10775     10777
     10772     10775     10778     10776     10775     10777     10776     10775     10778
     10777     10775     10778     10775     10778     10779     10775     10778     10780
     10775     10778     10781     10779     10778     10780     10779     10778     10781
     10780     10778     10781     10778     10781     10782     10778     10781     10783
     10778     10781     10784     10782     10781     10783     10782     10781     10784
     10783     10781     10784     10781     10784     10785     10781     10784     10786
     10785     10784     10786     10784     10786     10787     10784     10786     10788
     10787     10786     10788     10786     10788     10789     10786     10788     10790
     10786     10788     10791     10789     10788     10790     10789     10788     10791
     10790     10788     10791     10788     10791     10792     10788     10791     10793
     10788     10791     10794     10792     10791     10793     10792     10791     10794
     10793     10791     10794     10791     10794     10795     10791     10794     10796
     10791     10794     10797     10795     10794     10796     10795     10794     10797
     10796     10794     10797     10794     10797     10798     10794     10797     10799
     10794     10797     10800     10798     10797     10799     10798     10797     10800
     10799     10797     10800     10797     10800     10801     10797     10800     10802
     10797     10800     10803     10801     10800     10802     10801     10800     10803
     10802     10800     10803     10800     10803     10804     10800     10803     10805
     10800     10803     10806     10804     10803     10805     10804     10803     10806
     10805     10803     10806     10803     10806     10807     10803     10806     10808
     10803     10806     10809     10807     10806     10808     10807     10806     10809
     10808     10806     10809     10806     10809     10810     10806     10809     10811
     10806     10809     10812     10810     10809     10811     10810     10809     10812
     10811     10809     10812     10763     10813     10814     10763     10813     10815
     10763     10813     10816     10814     10813     10815     10814     10813     10816
     10815     10813     10816     10813     10816     10817     10813     10816     10818
     10813     10816     10819     10817     10816     10818     10817     10816     10819
     10818     10816     10819     10816     10819     10820     10816     10819     10821
     10816     10819     10822     10820     10819     10821     10820     10819     10822
     10821     10819     10822     10819     10822     10823     10819     10822     10824
     10819     10822     10825     10823     10822     10824     10823     10822     10825
     10824     10822     10825     10822     10825     10826     10822     10825     10827
     10822     10825     10828     10826     10825     10827     10826     10825     10828
     10827     10825     10828     10825     10828     10829     10825     10828     10830
     10825     10828     10831     10829     10828     10830     10829     10828     10831
     10830     10828     10831     10828     10831     10832     10828     10831     10833
     10828     10831     10834     10832     10831     10833     10832     10831     10834
     10833     10831     10834     10831     10834     10835     10831     10834     10836
     10831     10834     10837     10835     10834     10836     10835     10834     10837
     10836     10834     10837     10834     10837     10838     10834     10837     10839
     10834     10837     10840     10838     10837     10839     10838     10837     10840
     10839     10837     10840     10837     10840     10841     10837     10840     10842
     10837     10840     10843     10841     10840     10842     10841     10840     10843
     10842     10840     10843     10840     10843     10844     10840     10843     10845
     10840     10843     10846     10844     10843     10845     10844     10843     10846
     10845     10843     10846     10843     10846     10847     10843     10846     10848
     10843     10846     10849     10847     10846     10848     10847     10846     10849
     10848     10846     10849     10846     10849     10850     10846     10849     10851
     10846     10849     10852     10850     10849     10851     10850     10849     10852
     10851     10849     10852     10849     10852     10853     10849     10852     10854
     10849     10852     10855     10853     10852     10854     10853     10852     10855
     10854     10852     10855     10857     10856     10860     10857     10856     10864
     10857     10856     10868     10860     10856     10864     10860     10856     10868
     10864     10856     10868     10856     10857     10858     10856     10857     10859
     10856     10857     10872     10858     10857     10859     10858     10857     10872
     10859     10857     10872     10856     10860     10861     10856     10860     10862
     10856     10860     10863     10861     10860     10862     10861     10860     10863
     10862     10860     10863     10856     10864     10865     10856     10864     10866
     10856     10864     10867     10865     10864     10866     10865     10864     10867
     10866     10864     10867     10856     10868     10869     10856     10868     10870
     10856     10868     10871     10869     10868     10870     10869     10868     10871
     10870     10868     10871     10857     10872     10873     10857     10872     10874
     10857     10872     10878     10873     10872     10874     10873     10872     10878
     10874     10872     10878     10876     10875     10877     10876     10875     10878
     10876     10875     10879     10877     10875     10878     10877     10875     10879
     10878     10875     10879     10872     10878     10875     10875     10879     10880
     10879     10880     10881     10879     10880     10882     10879     10880     10883
     10881     10880     10882     10881     10880     10883     10882     10880     10883
     10880     10883     10884     10880     10883     10885     10880     10883     10891
     10884     10883     10885     10884     10883     10891     10885     10883     10891
     10883     10885     10886     10885     10886     10887     10885     10886     10888
     10887     10886     10888     10886     10888     10889     10886     10888     10890
     10886     10888     10900     10889     10888     10890     10889     10888     10900
     10890     10888     10900     10883     10891     10892     10883     10891     10893
     10883     10891     10894     10892     10891     10893     10892     10891     10894
     10893     10891     10894     10891     10894     10895     10894     10895     10896
     10894     10895     10897     10896     10895     10897     10895     10897     10898
     10895     10897     10899     10895     10897     10947     10898     10897     10899
     10898     10897     10947     10899     10897     10947     10888     10900     10901
     10888     10900     10902     10888     10900     10903     10901     10900     10902
     10901     10900     10903     10902     10900     10903     10900     10903     10904
     10900     10903     10905     10900     10903     10906     10904     10903     10905
     10904     10903     10906     10905     10903     10906     10903     10906     10907
     10903     10906     10908     10903     10906     10909     10907     10906     10908
     10907     10906     10909     10908     10906     10909     10906     10909     10910
     10906     10909     10911     10906     10909     10912     10910     10909     10911
     10910     10909     10912     10911     10909     10912     10909     10912     10913
     10909     10912     10914     10909     10912     10915     10913     10912     10914
     10913     10912     10915     10914     10912     10915     10912     10915     10916
     10912     10915     10917     10912     10915     10918     10916     10915     10917
     10916     10915     10918     10917     10915     10918     10915     10918     10919
     10915     10918     10920     10919     10918     10920     10918     10920     10921
     10918     10920     10922     10921     10920     10922     10920     10922     10923
     10920     10922     10924     10920     10922     10925     10923     10922     10924
     10923     10922     10925     10924     10922     10925     10922     10925     10926
     10922     10925     10927     10922     10925     10928     10926     10925     10927
     10926     10925     10928     10927     10925     10928     10925     10928     10929
     10925     10928     10930     10925     10928     10931     10929     10928     10930
     10929     10928     10931     10930     10928     10931     10928     10931     10932
     10928     10931     10933     10928     10931     10934     10932     10931     10933
     10932     10931     10934     10933     10931     10934     10931     10934     10935
     10931     10934     10936     10931     10934     10937     10935     10934     10936
     10935     10934     10937     10936     10934     10937     10934     10937     10938
     10934     10937     10939     10934     10937     10940     10938     10937     10939
     10938     10937     10940     10939     10937     10940     10937     10940     10941
     10937     10940     10942     10937     10940     10943     10941     10940     10942
     10941     10940     10943     10942     10940     10943     10940     10943     10944
     10940     10943     10945     10940     10943     10946     10944     10943     10945
     10944     10943     10946     10945     10943     10946     10897     10947     10948
     10897     10947     10949     10897     10947     10950     10948     10947     10949
     10948     10947     10950     10949     10947     10950     10947     10950     10951
     10947     10950     10952     10947     10950     10953     10951     10950     10952
     10951     10950     10953     10952     10950     10953     10950     10953     10954
     10950     10953     10955     10950     10953     10956     10954     10953     10955
     10954     10953     10956     10955     10953     10956     10953     10956     10957
     10953     10956     10958     10953     10956     10959     10957     10956     10958
     10957     10956     10959     10958     10956     10959     10956     10959     10960
     10956     10959     10961     10956     10959     10962     10960     10959     10961
     10960     10959     10962     10961     10959     10962     10959     10962     10963
     10959     10962     10964     10959     10962     10965     10963     10962     10964
     10963     10962     10965     10964     10962     10965     10962     10965     10966
     10962     10965     10967     10962     10965     10968     10966     10965     10967
     10966     10965     10968     10967     10965     10968     10965     10968     10969
     10965     10968     10970     10965     10968     10971     10969     10968     10970
     10969     10968     10971     10970     10968     10971     10968     10971     10972
     10968     10971     10973     10968     10971     10974     10972     10971     10973
     10972     10971     10974     10973     10971     10974     10971     10974     10975
     10971     10974     10976     10971     10974     10977     10975     10974     10976
     10975     10974     10977     10976     10974     10977     10974     10977     10978
     10974     10977     10979     10974     10977     10980     10978     10977     10979
     10978     10977     10980     10979     10977     10980     10977     10980     10981
     10977     10980     10982     10977     10980     10983     10981     10980     10982
     10981     10980     10983     10982     10980     10983     10980     10983     10984
     10980     10983     10985     10980     10983     10986     10984     10983     10985
     10984     10983     10986     10985     10983     10986     10983     10986     10987
     10983     10986     10988     10983     10986     10989     10987     10986     10988
     10987     10986     10989     10988     10986     10989     10991     10990     10994
     10991     10990     10998     10991     10990     11002     10994     10990     10998
     10994     10990     11002     10998     10990     11002     10990     10991     10992
     10990     10991     10993     10990     10991     11006     10992     10991     10993
     10992     10991     11006     10993     10991     11006     10990     10994     10995
     10990     10994     10996     10990     10994     10997     10995     10994     10996
     10995     10994     10997     10996     10994     10997     10990     10998     10999
     10990     10998     11000     10990     10998     11001     10999     10998     11000
     10999     10998     11001     11000     10998     11001     10990     11002     11003
     10990     11002     11004     10990     11002     11005     11003     11002     11004
     11003     11002     11005     11004     11002     11005     10991     11006     11007
     10991     11006     11008     10991     11006     11012     11007     11006     11008
     11007     11006     11012     11008     11006     11012     11010     11009     11011
     11010     11009     11012     11010     11009     11013     11011     11009     11012
     11011     11009     11013     11012     11009     11013     11006     11012     11009
     11009     11013     11014     11013     11014     11015     11013     11014     11016
     11013     11014     11017     11015     11014     11016     11015     11014     11017
     11016     11014     11017     11014     11017     11018     11014     11017     11019
     11014     11017     11025     11018     11017     11019     11018     11017     11025
     11019     11017     11025     11017     11019     11020     11019     11020     11021
     11019     11020     11022     11021     11020     11022     11020     11022     11023
     11020     11022     11024     11020     11022     11034     11023     11022     11024
     11023     11022     11034     11024     11022     11034     11017     11025     11026
     11017     11025     11027     11017     11025     11028     11026     11025     11027
     11026     11025     11028     11027     11025     11028     11025     11028     11029
     11028     11029     11030     11028     11029     11031     11030     11029     11031
     11029     11031     11032     11029     11031     11033     11029     11031     11081
     11032     11031     11033     11032     11031     11081     11033     11031     11081
     11022     11034     11035     11022     11034     11036     11022     11034     11037
     11035     11034     11036     11035     11034     11037     11036     11034     11037
     11034     11037     11038     11034     11037     11039     11034     11037     11040
     11038     11037     11039     11038     11037     11040     11039     11037     11040
     11037     11040     11041     11037     11040     11042     11037     11040     11043
     11041     11040     11042     11041     11040     11043     11042     11040     11043
     11040     11043     11044     11040     11043     11045     11040     11043     11046
     11044     11043     11045     11044     11043     11046     11045     11043     11046
     11043     11046     11047     11043     11046     11048     11043     11046     11049
     11047     11046     11048     11047     11046     11049     11048     11046     11049
     11046     11049     11050     11046     11049     11051     11046     11049     11052
     11050     11049     11051     11050     11049     11052     11051     11049     11052
     11049     11052     11053     11049     11052     11054     11053     11052     11054
     11052     11054     11055     11052     11054     11056     11055     11054     11056
     11054     11056     11057     11054     11056     11058     11054     11056     11059
     11057     11056     11058     11057     11056     11059     11058     11056     11059
     11056     11059     11060     11056     11059     11061     11056     11059     11062
     11060     11059     11061     11060     11059     11062     11061     11059     11062
     11059     11062     11063     11059     11062     11064     11059     11062     11065
     11063     11062     11064     11063     11062     11065     11064     11062     11065
     11062     11065     11066     11062     11065     11067     11062     11065     11068
     11066     11065     11067     11066     11065     11068     11067     11065     11068
     11065     11068     11069     11065     11068     11070     11065     11068     11071
     11069     11068     11070     11069     11068     11071     11070     11068     11071
     11068     11071     11072     11068     11071     11073     11068     11071     11074
     11072     11071     11073     11072     11071     11074     11073     11071     11074
     11071     11074     11075     11071     11074     11076     11071     11074     11077
     11075     11074     11076     11075     11074     11077     11076     11074     11077
     11074     11077     11078     11074     11077     11079     11074     11077     11080
     11078     11077     11079     11078     11077     11080     11079     11077     11080
     11031     11081     11082     11031     11081     11083     11031     11081     11084
     11082     11081     11083     11082     11081     11084     11083     11081     11084
     11081     11084     11085     11081     11084     11086     11081     11084     11087
     11085     11084     11086     11085     11084     11087     11086     11084     11087
     11084     11087     11088     11084     11087     11089     11084     11087     11090
     11088     11087     11089     11088     11087     11090     11089     11087     11090
     11087     11090     11091     11087     11090     11092     11087     11090     11093
     11091     11090     11092     11091     11090     11093     11092     11090     11093
     11090     11093     11094     11090     11093     11095     11090     11093     11096
     11094     11093     11095     11094     11093     11096     11095     11093     11096
     11093     11096     11097     11093     11096     11098     11093     11096     11099
     11097     11096     11098     11097     11096     11099     11098     11096     11099
     11096     11099     11100     11096     11099     11101     11096     11099     11102
     11100     11099     11101     11100     11099     11102     11101     11099     11102
     11099     11102     11103     11099     11102     11104     11099     11102     11105
     11103     11102     11104     11103     11102     11105     11104     11102     11105
     11102     11105     11106     11102     11105     11107     11102     11105     11108
     11106     11105     11107     11106     11105     11108     11107     11105     11108
     11105     11108     11109     11105     11108     11110     11105     11108     11111
     11109     11108     11110     11109     11108     11111     11110     11108     11111
     11108     11111     11112     11108     11111     11113     11108     11111     11114
     11112     11111     11113     11112     11111     11114     11113     11111     11114
     11111     11114     11115     11111     11114     11116     11111     11114     11117
     11115     11114     11116     11115     11114     11117     11116     11114     11117
     11114     11117     11118     11114     11117     11119     11114     11117     11120
     11118     11117     11119     11118     11117     11120     11119     11117     11120
     11117     11120     11121     11117     11120     11122     11117     11120     11123
     11121     11120     11122     11121     11120     11123     11122     11120     11123
     11125     11124     11128     11125     11124     11132     11125     11124     11136
     11128     11124     11132     11128     11124     11136     11132     11124     11136
     11124     11125     11126     11124     11125     11127     11124     11125     11140
     11126     11125     11127     11126     11125     11140     11127     11125     11140
     11124     11128     11129     11124     11128     11130     11124     11128     11131
     11129     11128     11130     11129     11128     11131     11130     11128     11131
     11124     11132     11133     11124     11132     11134     11124     11132     11135
     11133     11132     11134     11133     11132     11135     11134     11132     11135
     11124     11136     11137     11124     11136     11138     11124     11136     11139
     11137     11136     11138     11137     11136     11139     11138     11136     11139
     11125     11140     11141     11125     11140     11142     11125     11140     11146
     11141     11140     11142     11141     11140     11146     11142     11140     11146
     11144     11143     11145     11144     11143     11146     11144     11143     11147
     11145     11143     11146     11145     11143     11147     11146     11143     11147
     11140     11146     11143     11143     11147     11148     11147     11148     11149
     11147     11148     11150     11147     11148     11151     11149     11148     11150
     11149     11148     11151     11150     11148     11151     11148     11151     11152
     11148     11151     11153     11148     11151     11159     11152     11151     11153
     11152     11151     11159     11153     11151     11159     11151     11153     11154
     11153     11154     11155     11153     11154     11156     11155     11154     11156
     11154     11156     11157     11154     11156     11158     11154     11156     11168
     11157     11156     11158     11157     11156     11168     11158     11156     11168
     11151     11159     11160     11151     11159     11161     11151     11159     11162
     11160     11159     11161     11160     11159     11162     11161     11159     11162
     11159     11162     11163     11162     11163     11164     11162     11163     11165
     11164     11163     11165     11163     11165     11166     11163     11165     11167
     11163     11165     11215     11166     11165     11167     11166     11165     11215
     11167     11165     11215     11156     11168     11169     11156     11168     11170
     11156     11168     11171     11169     11168     11170     11169     11168     11171
     11170     11168     11171     11168     11171     11172     11168     11171     11173
     11168     11171     11174     11172     11171     11173     11172     11171     11174
     11173     11171     11174     11171     11174     11175     11171     11174     11176
     11171     11174     11177     11175     11174     11176     11175     11174     11177
     11176     11174     11177     11174     11177     11178     11174     11177     11179
     11174     11177     11180     11178     11177     11179     11178     11177     11180
     11179     11177     11180     11177     11180     11181     11177     11180     11182
     11177     11180     11183     11181     11180     11182     11181     11180     11183
     11182     11180     11183     11180     11183     11184     11180     11183     11185
     11180     11183     11186     11184     11183     11185     11184     11183     11186
     11185     11183     11186     11183     11186     11187     11183     11186     11188
     11187     11186     11188     11186     11188     11189     11186     11188     11190
     11189     11188     11190     11188     11190     11191     11188     11190     11192
     11188     11190     11193     11191     11190     11192     11191     11190     11193
     11192     11190     11193     11190     11193     11194     11190     11193     11195
     11190     11193     11196     11194     11193     11195     11194     11193     11196
     11195     11193     11196     11193     11196     11197     11193     11196     11198
     11193     11196     11199     11197     11196     11198     11197     11196     11199
     11198     11196     11199     11196     11199     11200     11196     11199     11201
     11196     11199     11202     11200     11199     11201     11200     11199     11202
     11201     11199     11202     11199     11202     11203     11199     11202     11204
     11199     11202     11205     11203     11202     11204     11203     11202     11205
     11204     11202     11205     11202     11205     11206     11202     11205     11207
     11202     11205     11208     11206     11205     11207     11206     11205     11208
     11207     11205     11208     11205     11208     11209     11205     11208     11210
     11205     11208     11211     11209     11208     11210     11209     11208     11211
     11210     11208     11211     11208     11211     11212     11208     11211     11213
     11208     11211     11214     11212     11211     11213     11212     11211     11214
     11213     11211     11214     11165     11215     11216     11165     11215     11217
     11165     11215     11218     11216     11215     11217     11216     11215     11218
     11217     11215     11218     11215     11218     11219     11215     11218     11220
     11215     11218     11221     11219     11218     11220     11219     11218     11221
     11220     11218     11221     11218     11221     11222     11218     11221     11223
     11218     11221     11224     11222     11221     11223     11222     11221     11224
     11223     11221     11224     11221     11224     11225     11221     11224     11226
     11221     11224     11227     11225     11224     11226     11225     11224     11227
     11226     11224     11227     11224     11227     11228     11224     11227     11229
     11224     11227     11230     11228     11227     11229     11228     11227     11230
     11229     11227     11230     11227     11230     11231     11227     11230     11232
     11227     11230     11233     11231     11230     11232     11231     11230     11233
     11232     11230     11233     11230     11233     11234     11230     11233     11235
     11230     11233     11236     11234     11233     11235     11234     11233     11236
     11235     11233     11236     11233     11236     11237     11233     11236     11238
     11233     11236     11239     11237     11236     11238     11237     11236     11239
     11238     11236     11239     11236     11239     11240     11236     11239     11241
     11236     11239     11242     11240     11239     11241     11240     11239     11242
     11241     11239     11242     11239     11242     11243     11239     11242     11244
     11239     11242     11245     11243     11242     11244     11243     11242     11245
     11244     11242     11245     11242     11245     11246     11242     11245     11247
     11242     11245     11248     11246     11245     11247     11246     11245     11248
     11247     11245     11248     11245     11248     11249     11245     11248     11250
     11245     11248     11251     11249     11248     11250     11249     11248     11251
     11250     11248     11251     11248     11251     11252     11248     11251     11253
     11248     11251     11254     11252     11251     11253     11252     11251     11254
     11253     11251     11254     11251     11254     11255     11251     11254     11256
     11251     11254     11257     11255     11254     11256     11255     11254     11257
     11256     11254     11257     11259     11258     11262     11259     11258     11266
     11259     11258     11270     11262     11258     11266     11262     11258     11270
     11266     11258     11270     11258     11259     11260     11258     11259     11261
     11258     11259     11274     11260     11259     11261     11260     11259     11274
     11261     11259     11274     11258     11262     11263     11258     11262     11264
     11258     11262     11265     11263     11262     11264     11263     11262     11265
     11264     11262     11265     11258     11266     11267     11258     11266     11268
     11258     11266     11269     11267     11266     11268     11267     11266     11269
     11268     11266     11269     11258     11270     11271     11258     11270     11272
     11258     11270     11273     11271     11270     11272     11271     11270     11273
     11272     11270     11273     11259     11274     11275     11259     11274     11276
     11259     11274     11280     11275     11274     11276     11275     11274     11280
     11276     11274     11280     11278     11277     11279     11278     11277     11280
     11278     11277     11281     11279     11277     11280     11279     11277     11281
     11280     11277     11281     11274     11280     11277     11277     11281     11282
     11281     11282     11283     11281     11282     11284     11281     11282     11285
     11283     11282     11284     11283     11282     11285     11284     11282     11285
     11282     11285     11286     11282     11285     11287     11282     11285     11293
     11286     11285     11287     11286     11285     11293     11287     11285     11293
     11285     11287     11288     11287     11288     11289     11287     11288     11290
     11289     11288     11290     11288     11290     11291     11288     11290     11292
     11288     11290     11302     11291     11290     11292     11291     11290     11302
     11292     11290     11302     11285     11293     11294     11285     11293     11295
     11285     11293     11296     11294     11293     11295     11294     11293     11296
     11295     11293     11296     11293     11296     11297     11296     11297     11298
     11296     11297     11299     11298     11297     11299     11297     11299     11300
     11297     11299     11301     11297     11299     11349     11300     11299     11301
     11300     11299     11349     11301     11299     11349     11290     11302     11303
     11290     11302     11304     11290     11302     11305     11303     11302     11304
     11303     11302     11305     11304     11302     11305     11302     11305     11306
     11302     11305     11307     11302     11305     11308     11306     11305     11307
     11306     11305     11308     11307     11305     11308     11305     11308     11309
     11305     11308     11310     11305     11308     11311     11309     11308     11310
     11309     11308     11311     11310     11308     11311     11308     11311     11312
     11308     11311     11313     11308     11311     11314     11312     11311     11313
     11312     11311     11314     11313     11311     11314     11311     11314     11315
     11311     11314     11316     11311     11314     11317     11315     11314     11316
     11315     11314     11317     11316     11314     11317     11314     11317     11318
     11314     11317     11319     11314     11317     11320     11318     11317     11319
     11318     11317     11320     11319     11317     11320     11317     11320     11321
     11317     11320     11322     11321     11320     11322     11320     11322     11323
     11320     11322     11324     11323     11322     11324     11322     11324     11325
     11322     11324     11326     11322     11324     11327     11325     11324     11326
     11325     11324     11327     11326     11324     11327     11324     11327     11328
     11324     11327     11329     11324     11327     11330     11328     11327     11329
     11328     11327     11330     11329     11327     11330     11327     11330     11331
     11327     11330     11332     11327     11330     11333     11331     11330     11332
     11331     11330     11333     11332     11330     11333     11330     11333     11334
     11330     11333     11335     11330     11333     11336     11334     11333     11335
     11334     11333     11336     11335     11333     11336     11333     11336     11337
     11333     11336     11338     11333     11336     11339     11337     11336     11338
     11337     11336     11339     11338     11336     11339     11336     11339     11340
     11336     11339     11341     11336     11339     11342     11340     11339     11341
     11340     11339     11342     11341     11339     11342     11339     11342     11343
     11339     11342     11344     11339     11342     11345     11343     11342     11344
     11343     11342     11345     11344     11342     11345     11342     11345     11346
     11342     11345     11347     11342     11345     11348     11346     11345     11347
     11346     11345     11348     11347     11345     11348     11299     11349     11350
     11299     11349     11351     11299     11349     11352     11350     11349     11351
     11350     11349     11352     11351     11349     11352     11349     11352     11353
     11349     11352     11354     11349     11352     11355     11353     11352     11354
     11353     11352     11355     11354     11352     11355     11352     11355     11356
     11352     11355     11357     11352     11355     11358     11356     11355     11357
     11356     11355     11358     11357     11355     11358     11355     11358     11359
     11355     11358     11360     11355     11358     11361     11359     11358     11360
     11359     11358     11361     11360     11358     11361     11358     11361     11362
     11358     11361     11363     11358     11361     11364     11362     11361     11363
     11362     11361     11364     11363     11361     11364     11361     11364     11365
     11361     11364     11366     11361     11364     11367     11365     11364     11366
     11365     11364     11367     11366     11364     11367     11364     11367     11368
     11364     11367     11369     11364     11367     11370     11368     11367     11369
     11368     11367     11370     11369     11367     11370     11367     11370     11371
     11367     11370     11372     11367     11370     11373     11371     11370     11372
     11371     11370     11373     11372     11370     11373     11370     11373     11374
     11370     11373     11375     11370     11373     11376     11374     11373     11375
     11374     11373     11376     11375     11373     11376     11373     11376     11377
     11373     11376     11378     11373     11376     11379     11377     11376     11378
     11377     11376     11379     11378     11376     11379     11376     11379     11380
     11376     11379     11381     11376     11379     11382     11380     11379     11381
     11380     11379     11382     11381     11379     11382     11379     11382     11383
     11379     11382     11384     11379     11382     11385     11383     11382     11384
     11383     11382     11385     11384     11382     11385     11382     11385     11386
     11382     11385     11387     11382     11385     11388     11386     11385     11387
     11386     11385     11388     11387     11385     11388     11385     11388     11389
     11385     11388     11390     11385     11388     11391     11389     11388     11390
     11389     11388     11391     11390     11388     11391     11393     11392     11396
     11393     11392     11400     11393     11392     11404     11396     11392     11400
     11396     11392     11404     11400     11392     11404     11392     11393     11394
     11392     11393     11395     11392     11393     11408     11394     11393     11395
     11394     11393     11408     11395     11393     11408     11392     11396     11397
     11392     11396     11398     11392     11396     11399     11397     11396     11398
     11397     11396     11399     11398     11396     11399     11392     11400     11401
     11392     11400     11402     11392     11400     11403     11401     11400     11402
     11401     11400     11403     11402     11400     11403     11392     11404     11405
     11392     11404     11406     11392     11404     11407     11405     11404     11406
     11405     11404     11407     11406     11404     11407     11393     11408     11409
     11393     11408     11410     11393     11408     11414     11409     11408     11410
     11409     11408     11414     11410     11408     11414     11412     11411     11413
     11412     11411     11414     11412     11411     11415     11413     11411     11414
     11413     11411     11415     11414     11411     11415     11408     11414     11411
     11411     11415     11416     11415     11416     11417     11415     11416     11418
     11415     11416     11419     11417     11416     11418     11417     11416     11419
     11418     11416     11419     11416     11419     11420     11416     11419     11421
     11416     11419     11427     11420     11419     11421     11420     11419     11427
     11421     11419     11427     11419     11421     11422     11421     11422     11423
     11421     11422     11424     11423     11422     11424     11422     11424     11425
     11422     11424     11426     11422     11424     11436     11425     11424     11426
     11425     11424     11436     11426     11424     11436     11419     11427     11428
     11419     11427     11429     11419     11427     11430     11428     11427     11429
     11428     11427     11430     11429     11427     11430     11427     11430     11431
     11430     11431     11432     11430     11431     11433     11432     11431     11433
     11431     11433     11434     11431     11433     11435     11431     11433     11483
     11434     11433     11435     11434     11433     11483     11435     11433     11483
     11424     11436     11437     11424     11436     11438     11424     11436     11439
     11437     11436     11438     11437     11436     11439     11438     11436     11439
     11436     11439     11440     11436     11439     11441     11436     11439     11442
     11440     11439     11441     11440     11439     11442     11441     11439     11442
     11439     11442     11443     11439     11442     11444     11439     11442     11445
     11443     11442     11444     11443     11442     11445     11444     11442     11445
     11442     11445     11446     11442     11445     11447     11442     11445     11448
     11446     11445     11447     11446     11445     11448     11447     11445     11448
     11445     11448     11449     11445     11448     11450     11445     11448     11451
     11449     11448     11450     11449     11448     11451     11450     11448     11451
     11448     11451     11452     11448     11451     11453     11448     11451     11454
     11452     11451     11453     11452     11451     11454     11453     11451     11454
     11451     11454     11455     11451     11454     11456     11455     11454     11456
     11454     11456     11457     11454     11456     11458     11457     11456     11458
     11456     11458     11459     11456     11458     11460     11456     11458     11461
     11459     11458     11460     11459     11458     11461     11460     11458     11461
     11458     11461     11462     11458     11461     11463     11458     11461     11464
     11462     11461     11463     11462     11461     11464     11463     11461     11464
     11461     11464     11465     11461     11464     11466     11461     11464     11467
     11465     11464     11466     11465     11464     11467     11466     11464     11467
     11464     11467     11468     11464     11467     11469     11464     11467     11470
     11468     11467     11469     11468     11467     11470     11469     11467     11470
     11467     11470     11471     11467     11470     11472     11467     11470     11473
     11471     11470     11472     11471     11470     11473     11472     11470     11473
     11470     11473     11474     11470     11473     11475     11470     11473     11476
     11474     11473     11475     11474     11473     11476     11475     11473     11476
     11473     11476     11477     11473     11476     11478     11473     11476     11479
     11477     11476     11478     11477     11476     11479     11478     11476     11479
     11476     11479     11480     11476     11479     11481     11476     11479     11482
     11480     11479     11481     11480     11479     11482     11481     11479     11482
     11433     11483     11484     11433     11483     11485     11433     11483     11486
     11484     11483     11485     11484     11483     11486     11485     11483     11486
     11483     11486     11487     11483     11486     11488     11483     11486     11489
     11487     11486     11488     11487     11486     11489     11488     11486     11489
     11486     11489     11490     11486     11489     11491     11486     11489     11492
     11490     11489     11491     11490     11489     11492     11491     11489     11492
     11489     11492     11493     11489     11492     11494     11489     11492     11495
     11493     11492     11494     11493     11492     11495     11494     11492     11495
     11492     11495     11496     11492     11495     11497     11492     11495     11498
     11496     11495     11497     11496     11495     11498     11497     11495     11498
     11495     11498     11499     11495     11498     11500     11495     11498     11501
     11499     11498     11500     11499     11498     11501     11500     11498     11501
     11498     11501     11502     11498     11501     11503     11498     11501     11504
     11502     11501     11503     11502     11501     11504     11503     11501     11504
     11501     11504     11505     11501     11504     11506     11501     11504     11507
     11505     11504     11506     11505     11504     11507     11506     11504     11507
     11504     11507     11508     11504     11507     11509     11504     11507     11510
     11508     11507     11509     11508     11507     11510     11509     11507     11510
     11507     11510     11511     11507     11510     11512     11507     11510     11513
     11511     11510     11512     11511     11510     11513     11512     11510     11513
     11510     11513     11514     11510     11513     11515     11510     11513     11516
     11514     11513     11515     11514     11513     11516     11515     11513     11516
     11513     11516     11517     11513     11516     11518     11513     11516     11519
     11517     11516     11518     11517     11516     11519     11518     11516     11519
     11516     11519     11520     11516     11519     11521     11516     11519     11522
     11520     11519     11521     11520     11519     11522     11521     11519     11522
     11519     11522     11523     11519     11522     11524     11519     11522     11525
     11523     11522     11524     11523     11522     11525     11524     11522     11525
     11527     11526     11530     11527     11526     11534     11527     11526     11538
     11530     11526     11534     11530     11526     11538     11534     11526     11538
     11526     11527     11528     11526     11527     11529     11526     11527     11542
     11528     11527     11529     11528     11527     11542     11529     11527     11542
     11526     11530     11531     11526     11530     11532     11526     11530     11533
     11531     11530     11532     11531     11530     11533     11532     11530     11533
     11526     11534     11535     11526     11534     11536     11526     11534     11537
     11535     11534     11536     11535     11534     11537     11536     11534     11537
     11526     11538     11539     11526     11538     11540     11526     11538     11541
     11539     11538     11540     11539     11538     11541     11540     11538     11541
     11527     11542     11543     11527     11542     11544     11527     11542     11548
     11543     11542     11544     11543     11542     11548     11544     11542     11548
     11546     11545     11547     11546     11545     11548     11546     11545     11549
     11547     11545     11548     11547     11545     11549     11548     11545     11549
     11542     11548     11545     11545     11549     11550     11549     11550     11551
     11549     11550     11552     11549     11550     11553     11551     11550     11552
     11551     11550     11553     11552     11550     11553     11550     11553     11554
     11550     11553     11555     11550     11553     11561     11554     11553     11555
     11554     11553     11561     11555     11553     11561     11553     11555     11556
     11555     11556     11557     11555     11556     11558     11557     11556     11558
     11556     11558     11559     11556     11558     11560     11556     11558     11570
     11559     11558     11560     11559     11558     11570     11560     11558     11570
     11553     11561     11562     11553     11561     11563     11553     11561     11564
     11562     11561     11563     11562     11561     11564     11563     11561     11564
     11561     11564     11565     11564     11565     11566     11564     11565     11567
     11566     11565     11567     11565     11567     11568     11565     11567     11569
     11565     11567     11617     11568     11567     11569     11568     11567     11617
     11569     11567     11617     11558     11570     11571     11558     11570     11572
     11558     11570     11573     11571     11570     11572     11571     11570     11573
     11572     11570     11573     11570     11573     11574     11570     11573     11575
     11570     11573     11576     11574     11573     11575     11574     11573     11576
     11575     11573     11576     11573     11576     11577     11573     11576     11578
     11573     11576     11579     11577     11576     11578     11577     11576     11579
     11578     11576     11579     11576     11579     11580     11576     11579     11581
     11576     11579     11582     11580     11579     11581     11580     11579     11582
     11581     11579     11582     11579     11582     11583     11579     11582     11584
     11579     11582     11585     11583     11582     11584     11583     11582     11585
     11584     11582     11585     11582     11585     11586     11582     11585     11587
     11582     11585     11588     11586     11585     11587     11586     11585     11588
     11587     11585     11588     11585     11588     11589     11585     11588     11590
     11589     11588     11590     11588     11590     11591     11588     11590     11592
     11591     11590     11592     11590     11592     11593     11590     11592     11594
     11590     11592     11595     11593     11592     11594     11593     11592     11595
     11594     11592     11595     11592     11595     11596     11592     11595     11597
     11592     11595     11598     11596     11595     11597     11596     11595     11598
     11597     11595     11598     11595     11598     11599     11595     11598     11600
     11595     11598     11601     11599     11598     11600     11599     11598     11601
     11600     11598     11601     11598     11601     11602     11598     11601     11603
     11598     11601     11604     11602     11601     11603     11602     11601     11604
     11603     11601     11604     11601     11604     11605     11601     11604     11606
     11601     11604     11607     11605     11604     11606     11605     11604     11607
     11606     11604     11607     11604     11607     11608     11604     11607     11609
     11604     11607     11610     11608     11607     11609     11608     11607     11610
     11609     11607     11610     11607     11610     11611     11607     11610     11612
     11607     11610     11613     11611     11610     11612     11611     11610     11613
     11612     11610     11613     11610     11613     11614     11610     11613     11615
     11610     11613     11616     11614     11613     11615     11614     11613     11616
     11615     11613     11616     11567     11617     11618     11567     11617     11619
     11567     11617     11620     11618     11617     11619     11618     11617     11620
     11619     11617     11620     11617     11620     11621     11617     11620     11622
     11617     11620     11623     11621     11620     11622     11621     11620     11623
     11622     11620     11623     11620     11623     11624     11620     11623     11625
     11620     11623     11626     11624     11623     11625     11624     11623     11626
     11625     11623     11626     11623     11626     11627     11623     11626     11628
     11623     11626     11629     11627     11626     11628     11627     11626     11629
     11628     11626     11629     11626     11629     11630     11626     11629     11631
     11626     11629     11632     11630     11629     11631     11630     11629     11632
     11631     11629     11632     11629     11632     11633     11629     11632     11634
     11629     11632     11635     11633     11632     11634     11633     11632     11635
     11634     11632     11635     11632     11635     11636     11632     11635     11637
     11632     11635     11638     11636     11635     11637     11636     11635     11638
     11637     11635     11638     11635     11638     11639     11635     11638     11640
     11635     11638     11641     11639     11638     11640     11639     11638     11641
     11640     11638     11641     11638     11641     11642     11638     11641     11643
     11638     11641     11644     11642     11641     11643     11642     11641     11644
     11643     11641     11644     11641     11644     11645     11641     11644     11646
     11641     11644     11647     11645     11644     11646     11645     11644     11647
     11646     11644     11647     11644     11647     11648     11644     11647     11649
     11644     11647     11650     11648     11647     11649     11648     11647     11650
     11649     11647     11650     11647     11650     11651     11647     11650     11652
     11647     11650     11653     11651     11650     11652     11651     11650     11653
     11652     11650     11653     11650     11653     11654     11650     11653     11655
     11650     11653     11656     11654     11653     11655     11654     11653     11656
     11655     11653     11656     11653     11656     11657     11653     11656     11658
     11653     11656     11659     11657     11656     11658     11657     11656     11659
     11658     11656     11659     11661     11660     11664     11661     11660     11668
     11661     11660     11672     11664     11660     11668     11664     11660     11672
     11668     11660     11672     11660     11661     11662     11660     11661     11663
     11660     11661     11676     11662     11661     11663     11662     11661     11676
     11663     11661     11676     11660     11664     11665     11660     11664     11666
     11660     11664     11667     11665     11664     11666     11665     11664     11667
     11666     11664     11667     11660     11668     11669     11660     11668     11670
     11660     11668     11671     11669     11668     11670     11669     11668     11671
     11670     11668     11671     11660     11672     11673     11660     11672     11674
     11660     11672     11675     11673     11672     11674     11673     11672     11675
     11674     11672     11675     11661     11676     11677     11661     11676     11678
     11661     11676     11682     11677     11676     11678     11677     11676     11682
     11678     11676     11682     11680     11679     11681     11680     11679     11682
     11680     11679     11683     11681     11679     11682     11681     11679     11683
     11682     11679     11683     11676     11682     11679     11679     11683     11684
     11683     11684     11685     11683     11684     11686     11683     11684     11687
     11685     11684     11686     11685     11684     11687     11686     11684     11687
     11684     11687     11688     11684     11687     11689     11684     11687     11695
     11688     11687     11689     11688     11687     11695     11689     11687     11695
     11687     11689     11690     11689     11690     11691     11689     11690     11692
     11691     11690     11692     11690     11692     11693     11690     11692     11694
     11690     11692     11704     11693     11692     11694     11693     11692     11704
     11694     11692     11704     11687     11695     11696     11687     11695     11697
     11687     11695     11698     11696     11695     11697     11696     11695     11698
     11697     11695     11698     11695     11698     11699     11698     11699     11700
     11698     11699     11701     11700     11699     11701     11699     11701     11702
     11699     11701     11703     11699     11701     11751     11702     11701     11703
     11702     11701     11751     11703     11701     11751     11692     11704     11705
     11692     11704     11706     11692     11704     11707     11705     11704     11706
     11705     11704     11707     11706     11704     11707     11704     11707     11708
     11704     11707     11709     11704     11707     11710     11708     11707     11709
     11708     11707     11710     11709     11707     11710     11707     11710     11711
     11707     11710     11712     11707     11710     11713     11711     11710     11712
     11711     11710     11713     11712     11710     11713     11710     11713     11714
     11710     11713     11715     11710     11713     11716     11714     11713     11715
     11714     11713     11716     11715     11713     11716     11713     11716     11717
     11713     11716     11718     11713     11716     11719     11717     11716     11718
     11717     11716     11719     11718     11716     11719     11716     11719     11720
     11716     11719     11721     11716     11719     11722     11720     11719     11721
     11720     11719     11722     11721     11719     11722     11719     11722     11723
     11719     11722     11724     11723     11722     11724     11722     11724     11725
     11722     11724     11726     11725     11724     11726     11724     11726     11727
     11724     11726     11728     11724     11726     11729     11727     11726     11728
     11727     11726     11729     11728     11726     11729     11726     11729     11730
     11726     11729     11731     11726     11729     11732     11730     11729     11731
     11730     11729     11732     11731     11729     11732     11729     11732     11733
     11729     11732     11734     11729     11732     11735     11733     11732     11734
     11733     11732     11735     11734     11732     11735     11732     11735     11736
     11732     11735     11737     11732     11735     11738     11736     11735     11737
     11736     11735     11738     11737     11735     11738     11735     11738     11739
     11735     11738     11740     11735     11738     11741     11739     11738     11740
     11739     11738     11741     11740     11738     11741     11738     11741     11742
     11738     11741     11743     11738     11741     11744     11742     11741     11743
     11742     11741     11744     11743     11741     11744     11741     11744     11745
     11741     11744     11746     11741     11744     11747     11745     11744     11746
     11745     11744     11747     11746     11744     11747     11744     11747     11748
     11744     11747     11749     11744     11747     11750     11748     11747     11749
     11748     11747     11750     11749     11747     11750     11701     11751     11752
     11701     11751     11753     11701     11751     11754     11752     11751     11753
     11752     11751     11754     11753     11751     11754     11751     11754     11755
     11751     11754     11756     11751     11754     11757     11755     11754     11756
     11755     11754     11757     11756     11754     11757     11754     11757     11758
     11754     11757     11759     11754     11757     11760     11758     11757     11759
     11758     11757     11760     11759     11757     11760     11757     11760     11761
     11757     11760     11762     11757     11760     11763     11761     11760     11762
     11761     11760     11763     11762     11760     11763     11760     11763     11764
     11760     11763     11765     11760     11763     11766     11764     11763     11765
     11764     11763     11766     11765     11763     11766     11763     11766     11767
     11763     11766     11768     11763     11766     11769     11767     11766     11768
     11767     11766     11769     11768     11766     11769     11766     11769     11770
     11766     11769     11771     11766     11769     11772     11770     11769     11771
     11770     11769     11772     11771     11769     11772     11769     11772     11773
     11769     11772     11774     11769     11772     11775     11773     11772     11774
     11773     11772     11775     11774     11772     11775     11772     11775     11776
     11772     11775     11777     11772     11775     11778     11776     11775     11777
     11776     11775     11778     11777     11775     11778     11775     11778     11779
     11775     11778     11780     11775     11778     11781     11779     11778     11780
     11779     11778     11781     11780     11778     11781     11778     11781     11782
     11778     11781     11783     11778     11781     11784     11782     11781     11783
     11782     11781     11784     11783     11781     11784     11781     11784     11785
     11781     11784     11786     11781     11784     11787     11785     11784     11786
     11785     11784     11787     11786     11784     11787     11784     11787     11788
     11784     11787     11789     11784     11787     11790     11788     11787     11789
     11788     11787     11790     11789     11787     11790     11787     11790     11791
     11787     11790     11792     11787     11790     11793     11791     11790     11792
     11791     11790     11793     11792     11790     11793     11795     11794     11798
     11795     11794     11802     11795     11794     11806     11798     11794     11802
     11798     11794     11806     11802     11794     11806     11794     11795     11796
     11794     11795     11797     11794     11795     11810     11796     11795     11797
     11796     11795     11810     11797     11795     11810     11794     11798     11799
     11794     11798     11800     11794     11798     11801     11799     11798     11800
     11799     11798     11801     11800     11798     11801     11794     11802     11803
     11794     11802     11804     11794     11802     11805     11803     11802     11804
     11803     11802     11805     11804     11802     11805     11794     11806     11807
     11794     11806     11808     11794     11806     11809     11807     11806     11808
     11807     11806     11809     11808     11806     11809     11795     11810     11811
     11795     11810     11812     11795     11810     11816     11811     11810     11812
     11811     11810     11816     11812     11810     11816     11814     11813     11815
     11814     11813     11816     11814     11813     11817     11815     11813     11816
     11815     11813     11817     11816     11813     11817     11810     11816     11813
     11813     11817     11818     11817     11818     11819     11817     11818     11820
     11817     11818     11821     11819     11818     11820     11819     11818     11821
     11820     11818     11821     11818     11821     11822     11818     11821     11823
     11818     11821     11829     11822     11821     11823     11822     11821     11829
     11823     11821     11829     11821     11823     11824     11823     11824     11825
     11823     11824     11826     11825     11824     11826     11824     11826     11827
     11824     11826     11828     11824     11826     11838     11827     11826     11828
     11827     11826     11838     11828     11826     11838     11821     11829     11830
     11821     11829     11831     11821     11829     11832     11830     11829     11831
     11830     11829     11832     11831     11829     11832     11829     11832     11833
     11832     11833     11834     11832     11833     11835     11834     11833     11835
     11833     11835     11836     11833     11835     11837     11833     11835     11885
     11836     11835     11837     11836     11835     11885     11837     11835     11885
     11826     11838     11839     11826     11838     11840     11826     11838     11841
     11839     11838     11840     11839     11838     11841     11840     11838     11841
     11838     11841     11842     11838     11841     11843     11838     11841     11844
     11842     11841     11843     11842     11841     11844     11843     11841     11844
     11841     11844     11845     11841     11844     11846     11841     11844     11847
     11845     11844     11846     11845     11844     11847     11846     11844     11847
     11844     11847     11848     11844     11847     11849     11844     11847     11850
     11848     11847     11849     11848     11847     11850     11849     11847     11850
     11847     11850     11851     11847     11850     11852     11847     11850     11853
     11851     11850     11852     11851     11850     11853     11852     11850     11853
     11850     11853     11854     11850     11853     11855     11850     11853     11856
     11854     11853     11855     11854     11853     11856     11855     11853     11856
     11853     11856     11857     11853     11856     11858     11857     11856     11858
     11856     11858     11859     11856     11858     11860     11859     11858     11860
     11858     11860     11861     11858     11860     11862     11858     11860     11863
     11861     11860     11862     11861     11860     11863     11862     11860     11863
     11860     11863     11864     11860     11863     11865     11860     11863     11866
     11864     11863     11865     11864     11863     11866     11865     11863     11866
     11863     11866     11867     11863     11866     11868     11863     11866     11869
     11867     11866     11868     11867     11866     11869     11868     11866     11869
     11866     11869     11870     11866     11869     11871     11866     11869     11872
     11870     11869     11871     11870     11869     11872     11871     11869     11872
     11869     11872     11873     11869     11872     11874     11869     11872     11875
     11873     11872     11874     11873     11872     11875     11874     11872     11875
     11872     11875     11876     11872     11875     11877     11872     11875     11878
     11876     11875     11877     11876     11875     11878     11877     11875     11878
     11875     11878     11879     11875     11878     11880     11875     11878     11881
     11879     11878     11880     11879     11878     11881     11880     11878     11881
     11878     11881     11882     11878     11881     11883     11878     11881     11884
     11882     11881     11883     11882     11881     11884     11883     11881     11884
     11835     11885     11886     11835     11885     11887     11835     11885     11888
     11886     11885     11887     11886     11885     11888     11887     11885     11888
     11885     11888     11889     11885     11888     11890     11885     11888     11891
     11889     11888     11890     11889     11888     11891     11890     11888     11891
     11888     11891     11892     11888     11891     11893     11888     11891     11894
     11892     11891     11893     11892     11891     11894     11893     11891     11894
     11891     11894     11895     11891     11894     11896     11891     11894     11897
     11895     11894     11896     11895     11894     11897     11896     11894     11897
     11894     11897     11898     11894     11897     11899     11894     11897     11900
     11898     11897     11899     11898     11897     11900     11899     11897     11900
     11897     11900     11901     11897     11900     11902     11897     11900     11903
     11901     11900     11902     11901     11900     11903     11902     11900     11903
     11900     11903     11904     11900     11903     11905     11900     11903     11906
     11904     11903     11905     11904     11903     11906     11905     11903     11906
     11903     11906     11907     11903     11906     11908     11903     11906     11909
     11907     11906     11908     11907     11906     11909     11908     11906     11909
     11906     11909     11910     11906     11909     11911     11906     11909     11912
     11910     11909     11911     11910     11909     11912     11911     11909     11912
     11909     11912     11913     11909     11912     11914     11909     11912     11915
     11913     11912     11914     11913     11912     11915     11914     11912     11915
     11912     11915     11916     11912     11915     11917     11912     11915     11918
     11916     11915     11917     11916     11915     11918     11917     11915     11918
     11915     11918     11919     11915     11918     11920     11915     11918     11921
     11919     11918     11920     11919     11918     11921     11920     11918     11921
     11918     11921     11922     11918     11921     11923     11918     11921     11924
     11922     11921     11923     11922     11921     11924     11923     11921     11924
     11921     11924     11925     11921     11924     11926     11921     11924     11927
     11925     11924     11926     11925     11924     11927     11926     11924     11927
     11929     11928     11932     11929     11928     11936     11929     11928     11940
     11932     11928     11936     11932     11928     11940     11936     11928     11940
     11928     11929     11930     11928     11929     11931     11928     11929     11944
     11930     11929     11931     11930     11929     11944     11931     11929     11944
     11928     11932     11933     11928     11932     11934     11928     11932     11935
     11933     11932     11934     11933     11932     11935     11934     11932     11935
     11928     11936     11937     11928     11936     11938     11928     11936     11939
     11937     11936     11938     11937     11936     11939     11938     11936     11939
     11928     11940     11941     11928     11940     11942     11928     11940     11943
     11941     11940     11942     11941     11940     11943     11942     11940     11943
     11929     11944     11945     11929     11944     11946     11929     11944     11950
     11945     11944     11946     11945     11944     11950     11946     11944     11950
     11948     11947     11949     11948     11947     11950     11948     11947     11951
     11949     11947     11950     11949     11947     11951     11950     11947     11951
     11944     11950     11947     11947     11951     11952     11951     11952     11953
     11951     11952     11954     11951     11952     11955     11953     11952     11954
     11953     11952     11955     11954     11952     11955     11952     11955     11956
     11952     11955     11957     11952     11955     11963     11956     11955     11957
     11956     11955     11963     11957     11955     11963     11955     11957     11958
     11957     11958     11959     11957     11958     11960     11959     11958     11960
     11958     11960     11961     11958     11960     11962     11958     11960     11972
     11961     11960     11962     11961     11960     11972     11962     11960     11972
     11955     11963     11964     11955     11963     11965     11955     11963     11966
     11964     11963     11965     11964     11963     11966     11965     11963     11966
     11963     11966     11967     11966     11967     11968     11966     11967     11969
     11968     11967     11969     11967     11969     11970     11967     11969     11971
     11967     11969     12019     11970     11969     11971     11970     11969     12019
     11971     11969     12019     11960     11972     11973     11960     11972     11974
     11960     11972     11975     11973     11972     11974     11973     11972     11975
     11974     11972     11975     11972     11975     11976     11972     11975     11977
     11972     11975     11978     11976     11975     11977     11976     11975     11978
     11977     11975     11978     11975     11978     11979     11975     11978     11980
     11975     11978     11981     11979     11978     11980     11979     11978     11981
     11980     11978     11981     11978     11981     11982     11978     11981     11983
     11978     11981     11984     11982     11981     11983     11982     11981     11984
     11983     11981     11984     11981     11984     11985     11981     11984     11986
     11981     11984     11987     11985     11984     11986     11985     11984     11987
     11986     11984     11987     11984     11987     11988     11984     11987     11989
     11984     11987     11990     11988     11987     11989     11988     11987     11990
     11989     11987     11990     11987     11990     11991     11987     11990     11992
     11991     11990     11992     11990     11992     11993     11990     11992     11994
     11993     11992     11994     11992     11994     11995     11992     11994     11996
     11992     11994     11997     11995     11994     11996     11995     11994     11997
     11996     11994     11997     11994     11997     11998     11994     11997     11999
     11994     11997     12000     11998     11997     11999     11998     11997     12000
     11999     11997     12000     11997     12000     12001     11997     12000     12002
     11997     12000     12003     12001     12000     12002     12001     12000     12003
     12002     12000     12003     12000     12003     12004     12000     12003     12005
     12000     12003     12006     12004     12003     12005     12004     12003     12006
     12005     12003     12006     12003     12006     12007     12003     12006     12008
     12003     12006     12009     12007     12006     12008     12007     12006     12009
     12008     12006     12009     12006     12009     12010     12006     12009     12011
     12006     12009     12012     12010     12009     12011     12010     12009     12012
     12011     12009     12012     12009     12012     12013     12009     12012     12014
     12009     12012     12015     12013     12012     12014     12013     12012     12015
     12014     12012     12015     12012     12015     12016     12012     12015     12017
     12012     12015     12018     12016     12015     12017     12016     12015     12018
     12017     12015     12018     11969     12019     12020     11969     12019     12021
     11969     12019     12022     12020     12019     12021     12020     12019     12022
     12021     12019     12022     12019     12022     12023     12019     12022     12024
     12019     12022     12025     12023     12022     12024     12023     12022     12025
     12024     12022     12025     12022     12025     12026     12022     12025     12027
     12022     12025     12028     12026     12025     12027     12026     12025     12028
     12027     12025     12028     12025     12028     12029     12025     12028     12030
     12025     12028     12031     12029     12028     12030     12029     12028     12031
     12030     12028     12031     12028     12031     12032     12028     12031     12033
     12028     12031     12034     12032     12031     12033     12032     12031     12034
     12033     12031     12034     12031     12034     12035     12031     12034     12036
     12031     12034     12037     12035     12034     12036     12035     12034     12037
     12036     12034     12037     12034     12037     12038     12034     12037     12039
     12034     12037     12040     12038     12037     12039     12038     12037     12040
     12039     12037     12040     12037     12040     12041     12037     12040     12042
     12037     12040     12043     12041     12040     12042     12041     12040     12043
     12042     12040     12043     12040     12043     12044     12040     12043     12045
     12040     12043     12046     12044     12043     12045     12044     12043     12046
     12045     12043     12046     12043     12046     12047     12043     12046     12048
     12043     12046     12049     12047     12046     12048     12047     12046     12049
     12048     12046     12049     12046     12049     12050     12046     12049     12051
     12046     12049     12052     12050     12049     12051     12050     12049     12052
     12051     12049     12052     12049     12052     12053     12049     12052     12054
     12049     12052     12055     12053     12052     12054     12053     12052     12055
     12054     12052     12055     12052     12055     12056     12052     12055     12057
     12052     12055     12058     12056     12055     12057     12056     12055     12058
     12057     12055     12058     12055     12058     12059     12055     12058     12060
     12055     12058     12061     12059     12058     12060     12059     12058     12061
     12060     12058     12061     12063     12062     12064     12063     12062     12065
     12063     12062     12066     12064     12062     12065     12064     12062     12066
     12065     12062     12066     12062     12066     12067     12062     12066     12068
     12062     12066     12071     12067     12066     12068     12067     12066     12071
     12068     12066     12071     12066     12068     12069     12066     12068     12070
     12069     12068     12070     12066     12071     12072     12066     12071     12073
     12066     12071     12077     12072     12071     12073     12072     12071     12077
     12073     12071     12077     12075     12074     12076     12075     12074     12077
     12075     12074     12078     12076     12074     12077     12076     12074     12078
     12077     12074     12078     12071     12077     12074     12074     12078     12079
     12078     12079     12080     12078     12079     12081     12078     12079     12082
     12080     12079     12081     12080     12079     12082     12081     12079     12082
     12079     12082     12083     12079     12082     12084     12079     12082     12090
     12083     12082     12084     12083     12082     12090     12084     12082     12090
     12082     12084     12085     12084     12085     12086     12084     12085     12087
     12086     12085     12087     12085     12087     12088     12085     12087     12089
     12085     12087     12099     12088     12087     12089     12088     12087     12099
     12089     12087     12099     12082     12090     12091     12082     12090     12092
     12082     12090     12093     12091     12090     12092     12091     12090     12093
     12092     12090     12093     12090     12093     12094     12093     12094     12095
     12093     12094     12096     12095     12094     12096     12094     12096     12097
     12094     12096     12098     12094     12096     12146     12097     12096     12098
     12097     12096     12146     12098     12096     12146     12087     12099     12100
     12087     12099     12101     12087     12099     12102     12100     12099     12101
     12100     12099     12102     12101     12099     12102     12099     12102     12103
     12099     12102     12104     12099     12102     12105     12103     12102     12104
     12103     12102     12105     12104     12102     12105     12102     12105     12106
     12102     12105     12107     12102     12105     12108     12106     12105     12107
     12106     12105     12108     12107     12105     12108     12105     12108     12109
     12105     12108     12110     12105     12108     12111     12109     12108     12110
     12109     12108     12111     12110     12108     12111     12108     12111     12112
     12108     12111     12113     12108     12111     12114     12112     12111     12113
     12112     12111     12114     12113     12111     12114     12111     12114     12115
     12111     12114     12116     12111     12114     12117     12115     12114     12116
     12115     12114     12117     12116     12114     12117     12114     12117     12118
     12114     12117     12119     12118     12117     12119     12117     12119     12120
     12117     12119     12121     12120     12119     12121     12119     12121     12122
     12119     12121     12123     12119     12121     12124     12122     12121     12123
     12122     12121     12124     12123     12121     12124     12121     12124     12125
     12121     12124     12126     12121     12124     12127     12125     12124     12126
     12125     12124     12127     12126     12124     12127     12124     12127     12128
     12124     12127     12129     12124     12127     12130     12128     12127     12129
     12128     12127     12130     12129     12127     12130     12127     12130     12131
     12127     12130     12132     12127     12130     12133     12131     12130     12132
     12131     12130     12133     12132     12130     12133     12130     12133     12134
     12130     12133     12135     12130     12133     12136     12134     12133     12135
     12134     12133     12136     12135     12133     12136     12133     12136     12137
     12133     12136     12138     12133     12136     12139     12137     12136     12138
     12137     12136     12139     12138     12136     12139     12136     12139     12140
     12136     12139     12141     12136     12139     12142     12140     12139     12141
     12140     12139     12142     12141     12139     12142     12139     12142     12143
     12139     12142     12144     12139     12142     12145     12143     12142     12144
     12143     12142     12145     12144     12142     12145     12096     12146     12147
     12096     12146     12148     12096     12146     12149     12147     12146     12148
     12147     12146     12149     12148     12146     12149     12146     12149     12150
     12146     12149     12151     12146     12149     12152     12150     12149     12151
     12150     12149     12152     12151     12149     12152     12149     12152     12153
     12149     12152     12154     12149     12152     12155     12153     12152     12154
     12153     12152     12155     12154     12152     12155     12152     12155     12156
     12152     12155     12157     12152     12155     12158     12156     12155     12157
     12156     12155     12158     12157     12155     12158     12155     12158     12159
     12155     12158     12160     12155     12158     12161     12159     12158     12160
     12159     12158     12161     12160     12158     12161     12158     12161     12162
     12158     12161     12163     12158     12161     12164     12162     12161     12163
     12162     12161     12164     12163     12161     12164     12161     12164     12165
     12161     12164     12166     12161     12164     12167     12165     12164     12166
     12165     12164     12167     12166     12164     12167     12164     12167     12168
     12164     12167     12169     12164     12167     12170     12168     12167     12169
     12168     12167     12170     12169     12167     12170     12167     12170     12171
     12167     12170     12172     12167     12170     12173     12171     12170     12172
     12171     12170     12173     12172     12170     12173     12170     12173     12174
     12170     12173     12175     12170     12173     12176     12174     12173     12175
     12174     12173     12176     12175     12173     12176     12173     12176     12177
     12173     12176     12178     12173     12176     12179     12177     12176     12178
     12177     12176     12179     12178     12176     12179     12176     12179     12180
     12176     12179     12181     12176     12179     12182     12180     12179     12181
     12180     12179     12182     12181     12179     12182     12179     12182     12183
     12179     12182     12184     12179     12182     12185     12183     12182     12184
     12183     12182     12185     12184     12182     12185     12182     12185     12186
     12182     12185     12187     12182     12185     12188     12186     12185     12187
     12186     12185     12188     12187     12185     12188     12190     12189     12193
     12190     12189     12197     12190     12189     12201     12193     12189     12197
     12193     12189     12201     12197     12189     12201     12189     12190     12191
     12189     12190     12192     12189     12190     12205     12191     12190     12192
     12191     12190     12205     12192     12190     12205     12189     12193     12194
     12189     12193     12195     12189     12193     12196     12194     12193     12195
     12194     12193     12196     12195     12193     12196     12189     12197     12198
     12189     12197     12199     12189     12197     12200     12198     12197     12199
     12198     12197     12200     12199     12197     12200     12189     12201     12202
     12189     12201     12203     12189     12201     12204     12202     12201     12203
     12202     12201     12204     12203     12201     12204     12190     12205     12206
     12190     12205     12207     12190     12205     12211     12206     12205     12207
     12206     12205     12211     12207     12205     12211     12209     12208     12210
     12209     12208     12211     12209     12208     12212     12210     12208     12211
     12210     12208     12212     12211     12208     12212     12205     12211     12208
     12208     12212     12213     12212     12213     12214     12212     12213     12215
     12212     12213     12216     12214     12213     12215     12214     12213     12216
     12215     12213     12216     12213     12216     12217     12213     12216     12218
     12213     12216     12224     12217     12216     12218     12217     12216     12224
     12218     12216     12224     12216     12218     12219     12218     12219     12220
     12218     12219     12221     12220     12219     12221     12219     12221     12222
     12219     12221     12223     12219     12221     12233     12222     12221     12223
     12222     12221     12233     12223     12221     12233     12216     12224     12225
     12216     12224     12226     12216     12224     12227     12225     12224     12226
     12225     12224     12227     12226     12224     12227     12224     12227     12228
     12227     12228     12229     12227     12228     12230     12229     12228     12230
     12228     12230     12231     12228     12230     12232     12228     12230     12280
     12231     12230     12232     12231     12230     12280     12232     12230     12280
     12221     12233     12234     12221     12233     12235     12221     12233     12236
     12234     12233     12235     12234     12233     12236     12235     12233     12236
     12233     12236     12237     12233     12236     12238     12233     12236     12239
     12237     12236     12238     12237     12236     12239     12238     12236     12239
     12236     12239     12240     12236     12239     12241     12236     12239     12242
     12240     12239     12241     12240     12239     12242     12241     12239     12242
     12239     12242     12243     12239     12242     12244     12239     12242     12245
     12243     12242     12244     12243     12242     12245     12244     12242     12245
     12242     12245     12246     12242     12245     12247     12242     12245     12248
     12246     12245     12247     12246     12245     12248     12247     12245     12248
     12245     12248     12249     12245     12248     12250     12245     12248     12251
     12249     12248     12250     12249     12248     12251     12250     12248     12251
     12248     12251     12252     12248     12251     12253     12252     12251     12253
     12251     12253     12254     12251     12253     12255     12254     12253     12255
     12253     12255     12256     12253     12255     12257     12253     12255     12258
     12256     12255     12257     12256     12255     12258     12257     12255     12258
     12255     12258     12259     12255     12258     12260     12255     12258     12261
     12259     12258     12260     12259     12258     12261     12260     12258     12261
     12258     12261     12262     12258     12261     12263     12258     12261     12264
     12262     12261     12263     12262     12261     12264     12263     12261     12264
     12261     12264     12265     12261     12264     12266     12261     12264     12267
     12265     12264     12266     12265     12264     12267     12266     12264     12267
     12264     12267     12268     12264     12267     12269     12264     12267     12270
     12268     12267     12269     12268     12267     12270     12269     12267     12270
     12267     12270     12271     12267     12270     12272     12267     12270     12273
     12271     12270     12272     12271     12270     12273     12272     12270     12273
     12270     12273     12274     12270     12273     12275     12270     12273     12276
     12274     12273     12275     12274     12273     12276     12275     12273     12276
     12273     12276     12277     12273     12276     12278     12273     12276     12279
     12277     12276     12278     12277     12276     12279     12278     12276     12279
     12230     12280     12281     12230     12280     12282     12230     12280     12283
     12281     12280     12282     12281     12280     12283     12282     12280     12283
     12280     12283     12284     12280     12283     12285     12280     12283     12286
     12284     12283     12285     12284     12283     12286     12285     12283     12286
     12283     12286     12287     12283     12286     12288     12283     12286     12289
     12287     12286     12288     12287     12286     12289     12288     12286     12289
     12286     12289     12290     12286     12289     12291     12286     12289     12292
     12290     12289     12291     12290     12289     12292     12291     12289     12292
     12289     12292     12293     12289     12292     12294     12289     12292     12295
     12293     12292     12294     12293     12292     12295     12294     12292     12295
     12292     12295     12296     12292     12295     12297     12292     12295     12298
     12296     12295     12297     12296     12295     12298     12297     12295     12298
     12295     12298     12299     12295     12298     12300     12295     12298     12301
     12299     12298     12300     12299     12298     12301     12300     12298     12301
     12298     12301     12302     12298     12301     12303     12298     12301     12304
     12302     12301     12303     12302     12301     12304     12303     12301     12304
     12301     12304     12305     12301     12304     12306     12301     12304     12307
     12305     12304     12306     12305     12304     12307     12306     12304     12307
     12304     12307     12308     12304     12307     12309     12304     12307     12310
     12308     12307     12309     12308     12307     12310     12309     12307     12310
     12307     12310     12311     12307     12310     12312     12307     12310     12313
     12311     12310     12312     12311     12310     12313     12312     12310     12313
     12310     12313     12314     12310     12313     12315     12310     12313     12316
     12314     12313     12315     12314     12313     12316     12315     12313     12316
     12313     12316     12317     12313     12316     12318     12313     12316     12319
     12317     12316     12318     12317     12316     12319     12318     12316     12319
     12316     12319     12320     12316     12319     12321     12316     12319     12322
     12320     12319     12321     12320     12319     12322     12321     12319     12322
     12324     12323     12327     12324     12323     12331     12324     12323     12335
     12327     12323     12331     12327     12323     12335     12331     12323     12335
     12323     12324     12325     12323     12324     12326     12323     12324     12339
     12325     12324     12326     12325     12324     12339     12326     12324     12339
     12323     12327     12328     12323     12327     12329     12323     12327     12330
     12328     12327     12329     12328     12327     12330     12329     12327     12330
     12323     12331     12332     12323     12331     12333     12323     12331     12334
     12332     12331     12333     12332     12331     12334     12333     12331     12334
     12323     12335     12336     12323     12335     12337     12323     12335     12338
     12336     12335     12337     12336     12335     12338     12337     12335     12338
     12324     12339     12340     12324     12339     12341     12324     12339     12345
     12340     12339     12341     12340     12339     12345     12341     12339     12345
     12343     12342     12344     12343     12342     12345     12343     12342     12346
     12344     12342     12345     12344     12342     12346     12345     12342     12346
     12339     12345     12342     12342     12346     12347     12346     12347     12348
     12346     12347     12349     12346     12347     12350     12348     12347     12349
     12348     12347     12350     12349     12347     12350     12347     12350     12351
     12347     12350     12352     12347     12350     12358     12351     12350     12352
     12351     12350     12358     12352     12350     12358     12350     12352     12353
     12352     12353     12354     12352     12353     12355     12354     12353     12355
     12353     12355     12356     12353     12355     12357     12353     12355     12367
     12356     12355     12357     12356     12355     12367     12357     12355     12367
     12350     12358     12359     12350     12358     12360     12350     12358     12361
     12359     12358     12360     12359     12358     12361     12360     12358     12361
     12358     12361     12362     12361     12362     12363     12361     12362     12364
     12363     12362     12364     12362     12364     12365     12362     12364     12366
     12362     12364     12414     12365     12364     12366     12365     12364     12414
     12366     12364     12414     12355     12367     12368     12355     12367     12369
     12355     12367     12370     12368     12367     12369     12368     12367     12370
     12369     12367     12370     12367     12370     12371     12367     12370     12372
     12367     12370     12373     12371     12370     12372     12371     12370     12373
     12372     12370     12373     12370     12373     12374     12370     12373     12375
     12370     12373     12376     12374     12373     12375     12374     12373     12376
     12375     12373     12376     12373     12376     12377     12373     12376     12378
     12373     12376     12379     12377     12376     12378     12377     12376     12379
     12378     12376     12379     12376     12379     12380     12376     12379     12381
     12376     12379     12382     12380     12379     12381     12380     12379     12382
     12381     12379     12382     12379     12382     12383     12379     12382     12384
     12379     12382     12385     12383     12382     12384     12383     12382     12385
     12384     12382     12385     12382     12385     12386     12382     12385     12387
     12386     12385     12387     12385     12387     12388     12385     12387     12389
     12388     12387     12389     12387     12389     12390     12387     12389     12391
     12387     12389     12392     12390     12389     12391     12390     12389     12392
     12391     12389     12392     12389     12392     12393     12389     12392     12394
     12389     12392     12395     12393     12392     12394     12393     12392     12395
     12394     12392     12395     12392     12395     12396     12392     12395     12397
     12392     12395     12398     12396     12395     12397     12396     12395     12398
     12397     12395     12398     12395     12398     12399     12395     12398     12400
     12395     12398     12401     12399     12398     12400     12399     12398     12401
     12400     12398     12401     12398     12401     12402     12398     12401     12403
     12398     12401     12404     12402     12401     12403     12402     12401     12404
     12403     12401     12404     12401     12404     12405     12401     12404     12406
     12401     12404     12407     12405     12404     12406     12405     12404     12407
     12406     12404     12407     12404     12407     12408     12404     12407     12409
     12404     12407     12410     12408     12407     12409     12408     12407     12410
     12409     12407     12410     12407     12410     12411     12407     12410     12412
     12407     12410     12413     12411     12410     12412     12411     12410     12413
     12412     12410     12413     12364     12414     12415     12364     12414     12416
     12364     12414     12417     12415     12414     12416     12415     12414     12417
     12416     12414     12417     12414     12417     12418     12414     12417     12419
     12414     12417     12420     12418     12417     12419     12418     12417     12420
     12419     12417     12420     12417     12420     12421     12417     12420     12422
     12417     12420     12423     12421     12420     12422     12421     12420     12423
     12422     12420     12423     12420     12423     12424     12420     12423     12425
     12420     12423     12426     12424     12423     12425     12424     12423     12426
     12425     12423     12426     12423     12426     12427     12423     12426     12428
     12423     12426     12429     12427     12426     12428     12427     12426     12429
     12428     12426     12429     12426     12429     12430     12426     12429     12431
     12426     12429     12432     12430     12429     12431     12430     12429     12432
     12431     12429     12432     12429     12432     12433     12429     12432     12434
     12429     12432     12435     12433     12432     12434     12433     12432     12435
     12434     12432     12435     12432     12435     12436     12432     12435     12437
     12432     12435     12438     12436     12435     12437     12436     12435     12438
     12437     12435     12438     12435     12438     12439     12435     12438     12440
     12435     12438     12441     12439     12438     12440     12439     12438     12441
     12440     12438     12441     12438     12441     12442     12438     12441     12443
     12438     12441     12444     12442     12441     12443     12442     12441     12444
     12443     12441     12444     12441     12444     12445     12441     12444     12446
     12441     12444     12447     12445     12444     12446     12445     12444     12447
     12446     12444     12447     12444     12447     12448     12444     12447     12449
     12444     12447     12450     12448     12447     12449     12448     12447     12450
     12449     12447     12450     12447     12450     12451     12447     12450     12452
     12447     12450     12453     12451     12450     12452     12451     12450     12453
     12452     12450     12453     12450     12453     12454     12450     12453     12455
     12450     12453     12456     12454     12453     12455     12454     12453     12456
     12455     12453     12456     12458     12457     12461     12458     12457     12465
     12458     12457     12469     12461     12457     12465     12461     12457     12469
     12465     12457     12469     12457     12458     12459     12457     12458     12460
     12457     12458     12473     12459     12458     12460     12459     12458     12473
     12460     12458     12473     12457     12461     12462     12457     12461     12463
     12457     12461     12464     12462     12461     12463     12462     12461     12464
     12463     12461     12464     12457     12465     12466     12457     12465     12467
     12457     12465     12468     12466     12465     12467     12466     12465     12468
     12467     12465     12468     12457     12469     12470     12457     12469     12471
     12457     12469     12472     12470     12469     12471     12470     12469     12472
     12471     12469     12472     12458     12473     12474     12458     12473     12475
     12458     12473     12479     12474     12473     12475     12474     12473     12479
     12475     12473     12479     12477     12476     12478     12477     12476     12479
     12477     12476     12480     12478     12476     12479     12478     12476     12480
     12479     12476     12480     12473     12479     12476     12476     12480     12481
     12480     12481     12482     12480     12481     12483     12480     12481     12484
     12482     12481     12483     12482     12481     12484     12483     12481     12484
     12481     12484     12485     12481     12484     12486     12481     12484     12492
     12485     12484     12486     12485     12484     12492     12486     12484     12492
     12484     12486     12487     12486     12487     12488     12486     12487     12489
     12488     12487     12489     12487     12489     12490     12487     12489     12491
     12487     12489     12501     12490     12489     12491     12490     12489     12501
     12491     12489     12501     12484     12492     12493     12484     12492     12494
     12484     12492     12495     12493     12492     12494     12493     12492     12495
     12494     12492     12495     12492     12495     12496     12495     12496     12497
     12495     12496     12498     12497     12496     12498     12496     12498     12499
     12496     12498     12500     12496     12498     12548     12499     12498     12500
     12499     12498     12548     12500     12498     12548     12489     12501     12502
     12489     12501     12503     12489     12501     12504     12502     12501     12503
     12502     12501     12504     12503     12501     12504     12501     12504     12505
     12501     12504     12506     12501     12504     12507     12505     12504     12506
     12505     12504     12507     12506     12504     12507     12504     12507     12508
     12504     12507     12509     12504     12507     12510     12508     12507     12509
     12508     12507     12510     12509     12507     12510     12507     12510     12511
     12507     12510     12512     12507     12510     12513     12511     12510     12512
     12511     12510     12513     12512     12510     12513     12510     12513     12514
     12510     12513     12515     12510     12513     12516     12514     12513     12515
     12514     12513     12516     12515     12513     12516     12513     12516     12517
     12513     12516     12518     12513     12516     12519     12517     12516     12518
     12517     12516     12519     12518     12516     12519     12516     12519     12520
     12516     12519     12521     12520     12519     12521     12519     12521     12522
     12519     12521     12523     12522     12521     12523     12521     12523     12524
     12521     12523     12525     12521     12523     12526     12524     12523     12525
     12524     12523     12526     12525     12523     12526     12523     12526     12527
     12523     12526     12528     12523     12526     12529     12527     12526     12528
     12527     12526     12529     12528     12526     12529     12526     12529     12530
     12526     12529     12531     12526     12529     12532     12530     12529     12531
     12530     12529     12532     12531     12529     12532     12529     12532     12533
     12529     12532     12534     12529     12532     12535     12533     12532     12534
     12533     12532     12535     12534     12532     12535     12532     12535     12536
     12532     12535     12537     12532     12535     12538     12536     12535     12537
     12536     12535     12538     12537     12535     12538     12535     12538     12539
     12535     12538     12540     12535     12538     12541     12539     12538     12540
     12539     12538     12541     12540     12538     12541     12538     12541     12542
     12538     12541     12543     12538     12541     12544     12542     12541     12543
     12542     12541     12544     12543     12541     12544     12541     12544     12545
     12541     12544     12546     12541     12544     12547     12545     12544     12546
     12545     12544     12547     12546     12544     12547     12498     12548     12549
     12498     12548     12550     12498     12548     12551     12549     12548     12550
     12549     12548     12551     12550     12548     12551     12548     12551     12552
     12548     12551     12553     12548     12551     12554     12552     12551     12553
     12552     12551     12554     12553     12551     12554     12551     12554     12555
     12551     12554     12556     12551     12554     12557     12555     12554     12556
     12555     12554     12557     12556     12554     12557     12554     12557     12558
     12554     12557     12559     12554     12557     12560     12558     12557     12559
     12558     12557     12560     12559     12557     12560     12557     12560     12561
     12557     12560     12562     12557     12560     12563     12561     12560     12562
     12561     12560     12563     12562     12560     12563     12560     12563     12564
     12560     12563     12565     12560     12563     12566     12564     12563     12565
     12564     12563     12566     12565     12563     12566     12563     12566     12567
     12563     12566     12568     12563     12566     12569     12567     12566     12568
     12567     12566     12569     12568     12566     12569     12566     12569     12570
     12566     12569     12571     12566     12569     12572     12570     12569     12571
     12570     12569     12572     12571     12569     12572     12569     12572     12573
     12569     12572     12574     12569     12572     12575     12573     12572     12574
     12573     12572     12575     12574     12572     12575     12572     12575     12576
     12572     12575     12577     12572     12575     12578     12576     12575     12577
     12576     12575     12578     12577     12575     12578     12575     12578     12579
     12575     12578     12580     12575     12578     12581     12579     12578     12580
     12579     12578     12581     12580     12578     12581     12578     12581     12582
     12578     12581     12583     12578     12581     12584     12582     12581     12583
     12582     12581     12584     12583     12581     12584     12581     12584     12585
     12581     12584     12586     12581     12584     12587     12585     12584     12586
     12585     12584     12587     12586     12584     12587     12584     12587     12588
     12584     12587     12589     12584     12587     12590     12588     12587     12589
     12588     12587     12590     12589     12587     12590     12592     12591     12595
     12592     12591     12599     12592     12591     12603     12595     12591     12599
     12595     12591     12603     12599     12591     12603     12591     12592     12593
     12591     12592     12594     12591     12592     12607     12593     12592     12594
     12593     12592     12607     12594     12592     12607     12591     12595     12596
     12591     12595     12597     12591     12595     12598     12596     12595     12597
     12596     12595     12598     12597     12595     12598     12591     12599     12600
     12591     12599     12601     12591     12599     12602     12600     12599     12601
     12600     12599     12602     12601     12599     12602     12591     12603     12604
     12591     12603     12605     12591     12603     12606     12604     12603     12605
     12604     12603     12606     12605     12603     12606     12592     12607     12608
     12592     12607     12609     12592     12607     12613     12608     12607     12609
     12608     12607     12613     12609     12607     12613     12611     12610     12612
     12611     12610     12613     12611     12610     12614     12612     12610     12613
     12612     12610     12614     12613     12610     12614     12607     12613     12610
     12610     12614     12615     12614     12615     12616     12614     12615     12617
     12614     12615     12618     12616     12615     12617     12616     12615     12618
     12617     12615     12618     12615     12618     12619     12615     12618     12620
     12615     12618     12626     12619     12618     12620     12619     12618     12626
     12620     12618     12626     12618     12620     12621     12620     12621     12622
     12620     12621     12623     12622     12621     12623     12621     12623     12624
     12621     12623     12625     12621     12623     12635     12624     12623     12625
     12624     12623     12635     12625     12623     12635     12618     12626     12627
     12618     12626     12628     12618     12626     12629     12627     12626     12628
     12627     12626     12629     12628     12626     12629     12626     12629     12630
     12629     12630     12631     12629     12630     12632     12631     12630     12632
     12630     12632     12633     12630     12632     12634     12630     12632     12682
     12633     12632     12634     12633     12632     12682     12634     12632     12682
     12623     12635     12636     12623     12635     12637     12623     12635     12638
     12636     12635     12637     12636     12635     12638     12637     12635     12638
     12635     12638     12639     12635     12638     12640     12635     12638     12641
     12639     12638     12640     12639     12638     12641     12640     12638     12641
     12638     12641     12642     12638     12641     12643     12638     12641     12644
     12642     12641     12643     12642     12641     12644     12643     12641     12644
     12641     12644     12645     12641     12644     12646     12641     12644     12647
     12645     12644     12646     12645     12644     12647     12646     12644     12647
     12644     12647     12648     12644     12647     12649     12644     12647     12650
     12648     12647     12649     12648     12647     12650     12649     12647     12650
     12647     12650     12651     12647     12650     12652     12647     12650     12653
     12651     12650     12652     12651     12650     12653     12652     12650     12653
     12650     12653     12654     12650     12653     12655     12654     12653     12655
     12653     12655     12656     12653     12655     12657     12656     12655     12657
     12655     12657     12658     12655     12657     12659     12655     12657     12660
     12658     12657     12659     12658     12657     12660     12659     12657     12660
     12657     12660     12661     12657     12660     12662     12657     12660     12663
     12661     12660     12662     12661     12660     12663     12662     12660     12663
     12660     12663     12664     12660     12663     12665     12660     12663     12666
     12664     12663     12665     12664     12663     12666     12665     12663     12666
     12663     12666     12667     12663     12666     12668     12663     12666     12669
     12667     12666     12668     12667     12666     12669     12668     12666     12669
     12666     12669     12670     12666     12669     12671     12666     12669     12672
     12670     12669     12671     12670     12669     12672     12671     12669     12672
     12669     12672     12673     12669     12672     12674     12669     12672     12675
     12673     12672     12674     12673     12672     12675     12674     12672     12675
     12672     12675     12676     12672     12675     12677     12672     12675     12678
     12676     12675     12677     12676     12675     12678     12677     12675     12678
     12675     12678     12679     12675     12678     12680     12675     12678     12681
     12679     12678     12680     12679     12678     12681     12680     12678     12681
     12632     12682     12683     12632     12682     12684     12632     12682     12685
     12683     12682     12684     12683     12682     12685     12684     12682     12685
     12682     12685     12686     12682     12685     12687     12682     12685     12688
     12686     12685     12687     12686     12685     12688     12687     12685     12688
     12685     12688     12689     12685     12688     12690     12685     12688     12691
     12689     12688     12690     12689     12688     12691     12690     12688     12691
     12688     12691     12692     12688     12691     12693     12688     12691     12694
     12692     12691     12693     12692     12691     12694     12693     12691     12694
     12691     12694     12695     12691     12694     12696     12691     12694     12697
     12695     12694     12696     12695     12694     12697     12696     12694     12697
     12694     12697     12698     12694     12697     12699     12694     12697     12700
     12698     12697     12699     12698     12697     12700     12699     12697     12700
     12697     12700     12701     12697     12700     12702     12697     12700     12703
     12701     12700     12702     12701     12700     12703     12702     12700     12703
     12700     12703     12704     12700     12703     12705     12700     12703     12706
     12704     12703     12705     12704     12703     12706     12705     12703     12706
     12703     12706     12707     12703     12706     12708     12703     12706     12709
     12707     12706     12708     12707     12706     12709     12708     12706     12709
     12706     12709     12710     12706     12709     12711     12706     12709     12712
     12710     12709     12711     12710     12709     12712     12711     12709     12712
     12709     12712     12713     12709     12712     12714     12709     12712     12715
     12713     12712     12714     12713     12712     12715     12714     12712     12715
     12712     12715     12716     12712     12715     12717     12712     12715     12718
     12716     12715     12717     12716     12715     12718     12717     12715     12718
     12715     12718     12719     12715     12718     12720     12715     12718     12721
     12719     12718     12720     12719     12718     12721     12720     12718     12721
     12718     12721     12722     12718     12721     12723     12718     12721     12724
     12722     12721     12723     12722     12721     12724     12723     12721     12724
     12726     12725     12729     12726     12725     12733     12726     12725     12737
     12729     12725     12733     12729     12725     12737     12733     12725     12737
     12725     12726     12727     12725     12726     12728     12725     12726     12741
     12727     12726     12728     12727     12726     12741     12728     12726     12741
     12725     12729     12730     12725     12729     12731     12725     12729     12732
     12730     12729     12731     12730     12729     12732     12731     12729     12732
     12725     12733     12734     12725     12733     12735     12725     12733     12736
     12734     12733     12735     12734     12733     12736     12735     12733     12736
     12725     12737     12738     12725     12737     12739     12725     12737     12740
     12738     12737     12739     12738     12737     12740     12739     12737     12740
     12726     12741     12742     12726     12741     12743     12726     12741     12747
     12742     12741     12743     12742     12741     12747     12743     12741     12747
     12745     12744     12746     12745     12744     12747     12745     12744     12748
     12746     12744     12747     12746     12744     12748     12747     12744     12748
     12741     12747     12744     12744     12748     12749     12748     12749     12750
     12748     12749     12751     12748     12749     12752     12750     12749     12751
     12750     12749     12752     12751     12749     12752     12749     12752     12753
     12749     12752     12754     12749     12752     12760     12753     12752     12754
     12753     12752     12760     12754     12752     12760     12752     12754     12755
     12754     12755     12756     12754     12755     12757     12756     12755     12757
     12755     12757     12758     12755     12757     12759     12755     12757     12769
     12758     12757     12759     12758     12757     12769     12759     12757     12769
     12752     12760     12761     12752     12760     12762     12752     12760     12763
     12761     12760     12762     12761     12760     12763     12762     12760     12763
     12760     12763     12764     12763     12764     12765     12763     12764     12766
     12765     12764     12766     12764     12766     12767     12764     12766     12768
     12764     12766     12816     12767     12766     12768     12767     12766     12816
     12768     12766     12816     12757     12769     12770     12757     12769     12771
     12757     12769     12772     12770     12769     12771     12770     12769     12772
     12771     12769     12772     12769     12772     12773     12769     12772     12774
     12769     12772     12775     12773     12772     12774     12773     12772     12775
     12774     12772     12775     12772     12775     12776     12772     12775     12777
     12772     12775     12778     12776     12775     12777     12776     12775     12778
     12777     12775     12778     12775     12778     12779     12775     12778     12780
     12775     12778     12781     12779     12778     12780     12779     12778     12781
     12780     12778     12781     12778     12781     12782     12778     12781     12783
     12778     12781     12784     12782     12781     12783     12782     12781     12784
     12783     12781     12784     12781     12784     12785     12781     12784     12786
     12781     12784     12787     12785     12784     12786     12785     12784     12787
     12786     12784     12787     12784     12787     12788     12784     12787     12789
     12788     12787     12789     12787     12789     12790     12787     12789     12791
     12790     12789     12791     12789     12791     12792     12789     12791     12793
     12789     12791     12794     12792     12791     12793     12792     12791     12794
     12793     12791     12794     12791     12794     12795     12791     12794     12796
     12791     12794     12797     12795     12794     12796     12795     12794     12797
     12796     12794     12797     12794     12797     12798     12794     12797     12799
     12794     12797     12800     12798     12797     12799     12798     12797     12800
     12799     12797     12800     12797     12800     12801     12797     12800     12802
     12797     12800     12803     12801     12800     12802     12801     12800     12803
     12802     12800     12803     12800     12803     12804     12800     12803     12805
     12800     12803     12806     12804     12803     12805     12804     12803     12806
     12805     12803     12806     12803     12806     12807     12803     12806     12808
     12803     12806     12809     12807     12806     12808     12807     12806     12809
     12808     12806     12809     12806     12809     12810     12806     12809     12811
     12806     12809     12812     12810     12809     12811     12810     12809     12812
     12811     12809     12812     12809     12812     12813     12809     12812     12814
     12809     12812     12815     12813     12812     12814     12813     12812     12815
     12814     12812     12815     12766     12816     12817     12766     12816     12818
     12766     12816     12819     12817     12816     12818     12817     12816     12819
     12818     12816     12819     12816     12819     12820     12816     12819     12821
     12816     12819     12822     12820     12819     12821     12820     12819     12822
     12821     12819     12822     12819     12822     12823     12819     12822     12824
     12819     12822     12825     12823     12822     12824     12823     12822     12825
     12824     12822     12825     12822     12825     12826     12822     12825     12827
     12822     12825     12828     12826     12825     12827     12826     12825     12828
     12827     12825     12828     12825     12828     12829     12825     12828     12830
     12825     12828     12831     12829     12828     12830     12829     12828     12831
     12830     12828     12831     12828     12831     12832     12828     12831     12833
     12828     12831     12834     12832     12831     12833     12832     12831     12834
     12833     12831     12834     12831     12834     12835     12831     12834     12836
     12831     12834     12837     12835     12834     12836     12835     12834     12837
     12836     12834     12837     12834     12837     12838     12834     12837     12839
     12834     12837     12840     12838     12837     12839     12838     12837     12840
     12839     12837     12840     12837     12840     12841     12837     12840     12842
     12837     12840     12843     12841     12840     12842     12841     12840     12843
     12842     12840     12843     12840     12843     12844     12840     12843     12845
     12840     12843     12846     12844     12843     12845     12844     12843     12846
     12845     12843     12846     12843     12846     12847     12843     12846     12848
     12843     12846     12849     12847     12846     12848     12847     12846     12849
     12848     12846     12849     12846     12849     12850     12846     12849     12851
     12846     12849     12852     12850     12849     12851     12850     12849     12852
     12851     12849     12852     12849     12852     12853     12849     12852     12854
     12849     12852     12855     12853     12852     12854     12853     12852     12855
     12854     12852     12855     12852     12855     12856     12852     12855     12857
     12852     12855     12858     12856     12855     12857     12856     12855     12858
     12857     12855     12858     12860     12859     12861     12860     12859     12862
     12860     12859     12863     12861     12859     12862     12861     12859     12863
     12862     12859     12863     12859     12863     12864     12859     12863     12865
     12859     12863     12868     12864     12863     12865     12864     12863     12868
     12865     12863     12868     12863     12865     12866     12863     12865     12867
     12866     12865     12867     12863     12868     12869     12863     12868     12870
     12863     12868     12874     12869     12868     12870     12869     12868     12874
     12870     12868     12874     12872     12871     12873     12872     12871     12874
     12872     12871     12875     12873     12871     12874     12873     12871     12875
     12874     12871     12875     12868     12874     12871     12871     12875     12876
     12875     12876     12877     12875     12876     12878     12875     12876     12879
     12877     12876     12878     12877     12876     12879     12878     12876     12879
     12876     12879     12880     12876     12879     12881     12876     12879     12887
     12880     12879     12881     12880     12879     12887     12881     12879     12887
     12879     12881     12882     12881     12882     12883     12881     12882     12884
     12883     12882     12884     12882     12884     12885     12882     12884     12886
     12882     12884     12896     12885     12884     12886     12885     12884     12896
     12886     12884     12896     12879     12887     12888     12879     12887     12889
     12879     12887     12890     12888     12887     12889     12888     12887     12890
     12889     12887     12890     12887     12890     12891     12890     12891     12892
     12890     12891     12893     12892     12891     12893     12891     12893     12894
     12891     12893     12895     12891     12893     12943     12894     12893     12895
     12894     12893     12943     12895     12893     12943     12884     12896     12897
     12884     12896     12898     12884     12896     12899     12897     12896     12898
     12897     12896     12899     12898     12896     12899     12896     12899     12900
     12896     12899     12901     12896     12899     12902     12900     12899     12901
     12900     12899     12902     12901     12899     12902     12899     12902     12903
     12899     12902     12904     12899     12902     12905     12903     12902     12904
     12903     12902     12905     12904     12902     12905     12902     12905     12906
     12902     12905     12907     12902     12905     12908     12906     12905     12907
     12906     12905     12908     12907     12905     12908     12905     12908     12909
     12905     12908     12910     12905     12908     12911     12909     12908     12910
     12909     12908     12911     12910     12908     12911     12908     12911     12912
     12908     12911     12913     12908     12911     12914     12912     12911     12913
     12912     12911     12914     12913     12911     12914     12911     12914     12915
     12911     12914     12916     12915     12914     12916     12914     12916     12917
     12914     12916     12918     12917     12916     12918     12916     12918     12919
     12916     12918     12920     12916     12918     12921     12919     12918     12920
     12919     12918     12921     12920     12918     12921     12918     12921     12922
     12918     12921     12923     12918     12921     12924     12922     12921     12923
     12922     12921     12924     12923     12921     12924     12921     12924     12925
     12921     12924     12926     12921     12924     12927     12925     12924     12926
     12925     12924     12927     12926     12924     12927     12924     12927     12928
     12924     12927     12929     12924     12927     12930     12928     12927     12929
     12928     12927     12930     12929     12927     12930     12927     12930     12931
     12927     12930     12932     12927     12930     12933     12931     12930     12932
     12931     12930     12933     12932     12930     12933     12930     12933     12934
     12930     12933     12935     12930     12933     12936     12934     12933     12935
     12934     12933     12936     12935     12933     12936     12933     12936     12937
     12933     12936     12938     12933     12936     12939     12937     12936     12938
     12937     12936     12939     12938     12936     12939     12936     12939     12940
     12936     12939     12941     12936     12939     12942     12940     12939     12941
     12940     12939     12942     12941     12939     12942     12893     12943     12944
     12893     12943     12945     12893     12943     12946     12944     12943     12945
     12944     12943     12946     12945     12943     12946     12943     12946     12947
     12943     12946     12948     12943     12946     12949     12947     12946     12948
     12947     12946     12949     12948     12946     12949     12946     12949     12950
     12946     12949     12951     12946     12949     12952     12950     12949     12951
     12950     12949     12952     12951     12949     12952     12949     12952     12953
     12949     12952     12954     12949     12952     12955     12953     12952     12954
     12953     12952     12955     12954     12952     12955     12952     12955     12956
     12952     12955     12957     12952     12955     12958     12956     12955     12957
     12956     12955     12958     12957     12955     12958     12955     12958     12959
     12955     12958     12960     12955     12958     12961     12959     12958     12960
     12959     12958     12961     12960     12958     12961     12958     12961     12962
     12958     12961     12963     12958     12961     12964     12962     12961     12963
     12962     12961     12964     12963     12961     12964     12961     12964     12965
     12961     12964     12966     12961     12964     12967     12965     12964     12966
     12965     12964     12967     12966     12964     12967     12964     12967     12968
     12964     12967     12969     12964     12967     12970     12968     12967     12969
     12968     12967     12970     12969     12967     12970     12967     12970     12971
     12967     12970     12972     12967     12970     12973     12971     12970     12972
     12971     12970     12973     12972     12970     12973     12970     12973     12974
     12970     12973     12975     12970     12973     12976     12974     12973     12975
     12974     12973     12976     12975     12973     12976     12973     12976     12977
     12973     12976     12978     12973     12976     12979     12977     12976     12978
     12977     12976     12979     12978     12976     12979     12976     12979     12980
     12976     12979     12981     12976     12979     12982     12980     12979     12981
     12980     12979     12982     12981     12979     12982     12979     12982     12983
     12979     12982     12984     12979     12982     12985     12983     12982     12984
     12983     12982     12985     12984     12982     12985     12987     12986     12990
     12987     12986     12994     12987     12986     12998     12990     12986     12994
     12990     12986     12998     12994     12986     12998     12986     12987     12988
     12986     12987     12989     12986     12987     13002     12988     12987     12989
     12988     12987     13002     12989     12987     13002     12986     12990     12991
     12986     12990     12992     12986     12990     12993     12991     12990     12992
     12991     12990     12993     12992     12990     12993     12986     12994     12995
     12986     12994     12996     12986     12994     12997     12995     12994     12996
     12995     12994     12997     12996     12994     12997     12986     12998     12999
     12986     12998     13000     12986     12998     13001     12999     12998     13000
     12999     12998     13001     13000     12998     13001     12987     13002     13003
     12987     13002     13004     12987     13002     13008     13003     13002     13004
     13003     13002     13008     13004     13002     13008     13006     13005     13007
     13006     13005     13008     13006     13005     13009     13007     13005     13008
     13007     13005     13009     13008     13005     13009     13002     13008     13005
     13005     13009     13010     13009     13010     13011     13009     13010     13012
     13009     13010     13013     13011     13010     13012     13011     13010     13013
     13012     13010     13013     13010     13013     13014     13010     13013     13015
     13010     13013     13021     13014     13013     13015     13014     13013     13021
     13015     13013     13021     13013     13015     13016     13015     13016     13017
     13015     13016     13018     13017     13016     13018     13016     13018     13019
     13016     13018     13020     13016     13018     13030     13019     13018     13020
     13019     13018     13030     13020     13018     13030     13013     13021     13022
     13013     13021     13023     13013     13021     13024     13022     13021     13023
     13022     13021     13024     13023     13021     13024     13021     13024     13025
     13024     13025     13026     13024     13025     13027     13026     13025     13027
     13025     13027     13028     13025     13027     13029     13025     13027     13077
     13028     13027     13029     13028     13027     13077     13029     13027     13077
     13018     13030     13031     13018     13030     13032     13018     13030     13033
     13031     13030     13032     13031     13030     13033     13032     13030     13033
     13030     13033     13034     13030     13033     13035     13030     13033     13036
     13034     13033     13035     13034     13033     13036     13035     13033     13036
     13033     13036     13037     13033     13036     13038     13033     13036     13039
     13037     13036     13038     13037     13036     13039     13038     13036     13039
     13036     13039     13040     13036     13039     13041     13036     13039     13042
     13040     13039     13041     13040     13039     13042     13041     13039     13042
     13039     13042     13043     13039     13042     13044     13039     13042     13045
     13043     13042     13044     13043     13042     13045     13044     13042     13045
     13042     13045     13046     13042     13045     13047     13042     13045     13048
     13046     13045     13047     13046     13045     13048     13047     13045     13048
     13045     13048     13049     13045     13048     13050     13049     13048     13050
     13048     13050     13051     13048     13050     13052     13051     13050     13052
     13050     13052     13053     13050     13052     13054     13050     13052     13055
     13053     13052     13054     13053     13052     13055     13054     13052     13055
     13052     13055     13056     13052     13055     13057     13052     13055     13058
     13056     13055     13057     13056     13055     13058     13057     13055     13058
     13055     13058     13059     13055     13058     13060     13055     13058     13061
     13059     13058     13060     13059     13058     13061     13060     13058     13061
     13058     13061     13062     13058     13061     13063     13058     13061     13064
     13062     13061     13063     13062     13061     13064     13063     13061     13064
     13061     13064     13065     13061     13064     13066     13061     13064     13067
     13065     13064     13066     13065     13064     13067     13066     13064     13067
     13064     13067     13068     13064     13067     13069     13064     13067     13070
     13068     13067     13069     13068     13067     13070     13069     13067     13070
     13067     13070     13071     13067     13070     13072     13067     13070     13073
     13071     13070     13072     13071     13070     13073     13072     13070     13073
     13070     13073     13074     13070     13073     13075     13070     13073     13076
     13074     13073     13075     13074     13073     13076     13075     13073     13076
     13027     13077     13078     13027     13077     13079     13027     13077     13080
     13078     13077     13079     13078     13077     13080     13079     13077     13080
     13077     13080     13081     13077     13080     13082     13077     13080     13083
     13081     13080     13082     13081     13080     13083     13082     13080     13083
     13080     13083     13084     13080     13083     13085     13080     13083     13086
     13084     13083     13085     13084     13083     13086     13085     13083     13086
     13083     13086     13087     13083     13086     13088     13083     13086     13089
     13087     13086     13088     13087     13086     13089     13088     13086     13089
     13086     13089     13090     13086     13089     13091     13086     13089     13092
     13090     13089     13091     13090     13089     13092     13091     13089     13092
     13089     13092     13093     13089     13092     13094     13089     13092     13095
     13093     13092     13094     13093     13092     13095     13094     13092     13095
     13092     13095     13096     13092     13095     13097     13092     13095     13098
     13096     13095     13097     13096     13095     13098     13097     13095     13098
     13095     13098     13099     13095     13098     13100     13095     13098     13101
     13099     13098     13100     13099     13098     13101     13100     13098     13101
     13098     13101     13102     13098     13101     13103     13098     13101     13104
     13102     13101     13103     13102     13101     13104     13103     13101     13104
     13101     13104     13105     13101     13104     13106     13101     13104     13107
     13105     13104     13106     13105     13104     13107     13106     13104     13107
     13104     13107     13108     13104     13107     13109     13104     13107     13110
     13108     13107     13109     13108     13107     13110     13109     13107     13110
     13107     13110     13111     13107     13110     13112     13107     13110     13113
     13111     13110     13112     13111     13110     13113     13112     13110     13113
     13110     13113     13114     13110     13113     13115     13110     13113     13116
     13114     13113     13115     13114     13113     13116     13115     13113     13116
     13113     13116     13117     13113     13116     13118     13113     13116     13119
     13117     13116     13118     13117     13116     13119     13118     13116     13119
     13121     13120     13124     13121     13120     13128     13121     13120     13132
     13124     13120     13128     13124     13120     13132     13128     13120     13132
     13120     13121     13122     13120     13121     13123     13120     13121     13136
     13122     13121     13123     13122     13121     13136     13123     13121     13136
     13120     13124     13125     13120     13124     13126     13120     13124     13127
     13125     13124     13126     13125     13124     13127     13126     13124     13127
     13120     13128     13129     13120     13128     13130     13120     13128     13131
     13129     13128     13130     13129     13128     13131     13130     13128     13131
     13120     13132     13133     13120     13132     13134     13120     13132     13135
     13133     13132     13134     13133     13132     13135     13134     13132     13135
     13121     13136     13137     13121     13136     13138     13121     13136     13142
     13137     13136     13138     13137     13136     13142     13138     13136     13142
     13140     13139     13141     13140     13139     13142     13140     13139     13143
     13141     13139     13142     13141     13139     13143     13142     13139     13143
     13136     13142     13139     13139     13143     13144     13143     13144     13145
     13143     13144     13146     13143     13144     13147     13145     13144     13146
     13145     13144     13147     13146     13144     13147     13144     13147     13148
     13144     13147     13149     13144     13147     13155     13148     13147     13149
     13148     13147     13155     13149     13147     13155     13147     13149     13150
     13149     13150     13151     13149     13150     13152     13151     13150     13152
     13150     13152     13153     13150     13152     13154     13150     13152     13164
     13153     13152     13154     13153     13152     13164     13154     13152     13164
     13147     13155     13156     13147     13155     13157     13147     13155     13158
     13156     13155     13157     13156     13155     13158     13157     13155     13158
     13155     13158     13159     13158     13159     13160     13158     13159     13161
     13160     13159     13161     13159     13161     13162     13159     13161     13163
     13159     13161     13211     13162     13161     13163     13162     13161     13211
     13163     13161     13211     13152     13164     13165     13152     13164     13166
     13152     13164     13167     13165     13164     13166     13165     13164     13167
     13166     13164     13167     13164     13167     13168     13164     13167     13169
     13164     13167     13170     13168     13167     13169     13168     13167     13170
     13169     13167     13170     13167     13170     13171     13167     13170     13172
     13167     13170     13173     13171     13170     13172     13171     13170     13173
     13172     13170     13173     13170     13173     13174     13170     13173     13175
     13170     13173     13176     13174     13173     13175     13174     13173     13176
     13175     13173     13176     13173     13176     13177     13173     13176     13178
     13173     13176     13179     13177     13176     13178     13177     13176     13179
     13178     13176     13179     13176     13179     13180     13176     13179     13181
     13176     13179     13182     13180     13179     13181     13180     13179     13182
     13181     13179     13182     13179     13182     13183     13179     13182     13184
     13183     13182     13184     13182     13184     13185     13182     13184     13186
     13185     13184     13186     13184     13186     13187     13184     13186     13188
     13184     13186     13189     13187     13186     13188     13187     13186     13189
     13188     13186     13189     13186     13189     13190     13186     13189     13191
     13186     13189     13192     13190     13189     13191     13190     13189     13192
     13191     13189     13192     13189     13192     13193     13189     13192     13194
     13189     13192     13195     13193     13192     13194     13193     13192     13195
     13194     13192     13195     13192     13195     13196     13192     13195     13197
     13192     13195     13198     13196     13195     13197     13196     13195     13198
     13197     13195     13198     13195     13198     13199     13195     13198     13200
     13195     13198     13201     13199     13198     13200     13199     13198     13201
     13200     13198     13201     13198     13201     13202     13198     13201     13203
     13198     13201     13204     13202     13201     13203     13202     13201     13204
     13203     13201     13204     13201     13204     13205     13201     13204     13206
     13201     13204     13207     13205     13204     13206     13205     13204     13207
     13206     13204     13207     13204     13207     13208     13204     13207     13209
     13204     13207     13210     13208     13207     13209     13208     13207     13210
     13209     13207     13210     13161     13211     13212     13161     13211     13213
     13161     13211     13214     13212     13211     13213     13212     13211     13214
     13213     13211     13214     13211     13214     13215     13211     13214     13216
     13211     13214     13217     13215     13214     13216     13215     13214     13217
     13216     13214     13217     13214     13217     13218     13214     13217     13219
     13214     13217     13220     13218     13217     13219     13218     13217     13220
     13219     13217     13220     13217     13220     13221     13217     13220     13222
     13217     13220     13223     13221     13220     13222     13221     13220     13223
     13222     13220     13223     13220     13223     13224     13220     13223     13225
     13220     13223     13226     13224     13223     13225     13224     13223     13226
     13225     13223     13226     13223     13226     13227     13223     13226     13228
     13223     13226     13229     13227     13226     13228     13227     13226     13229
     13228     13226     13229     13226     13229     13230     13226     13229     13231
     13226     13229     13232     13230     13229     13231     13230     13229     13232
     13231     13229     13232     13229     13232     13233     13229     13232     13234
     13229     13232     13235     13233     13232     13234     13233     13232     13235
     13234     13232     13235     13232     13235     13236     13232     13235     13237
     13232     13235     13238     13236     13235     13237     13236     13235     13238
     13237     13235     13238     13235     13238     13239     13235     13238     13240
     13235     13238     13241     13239     13238     13240     13239     13238     13241
     13240     13238     13241     13238     13241     13242     13238     13241     13243
     13238     13241     13244     13242     13241     13243     13242     13241     13244
     13243     13241     13244     13241     13244     13245     13241     13244     13246
     13241     13244     13247     13245     13244     13246     13245     13244     13247
     13246     13244     13247     13244     13247     13248     13244     13247     13249
     13244     13247     13250     13248     13247     13249     13248     13247     13250
     13249     13247     13250     13247     13250     13251     13247     13250     13252
     13247     13250     13253     13251     13250     13252     13251     13250     13253
     13252     13250     13253     13255     13254     13258     13255     13254     13262
     13255     13254     13266     13258     13254     13262     13258     13254     13266
     13262     13254     13266     13254     13255     13256     13254     13255     13257
     13254     13255     13270     13256     13255     13257     13256     13255     13270
     13257     13255     13270     13254     13258     13259     13254     13258     13260
     13254     13258     13261     13259     13258     13260     13259     13258     13261
     13260     13258     13261     13254     13262     13263     13254     13262     13264
     13254     13262     13265     13263     13262     13264     13263     13262     13265
     13264     13262     13265     13254     13266     13267     13254     13266     13268
     13254     13266     13269     13267     13266     13268     13267     13266     13269
     13268     13266     13269     13255     13270     13271     13255     13270     13272
     13255     13270     13276     13271     13270     13272     13271     13270     13276
     13272     13270     13276     13274     13273     13275     13274     13273     13276
     13274     13273     13277     13275     13273     13276     13275     13273     13277
     13276     13273     13277     13270     13276     13273     13273     13277     13278
     13277     13278     13279     13277     13278     13280     13277     13278     13281
     13279     13278     13280     13279     13278     13281     13280     13278     13281
     13278     13281     13282     13278     13281     13283     13278     13281     13289
     13282     13281     13283     13282     13281     13289     13283     13281     13289
     13281     13283     13284     13283     13284     13285     13283     13284     13286
     13285     13284     13286     13284     13286     13287     13284     13286     13288
     13284     13286     13298     13287     13286     13288     13287     13286     13298
     13288     13286     13298     13281     13289     13290     13281     13289     13291
     13281     13289     13292     13290     13289     13291     13290     13289     13292
     13291     13289     13292     13289     13292     13293     13292     13293     13294
     13292     13293     13295     13294     13293     13295     13293     13295     13296
     13293     13295     13297     13293     13295     13345     13296     13295     13297
     13296     13295     13345     13297     13295     13345     13286     13298     13299
     13286     13298     13300     13286     13298     13301     13299     13298     13300
     13299     13298     13301     13300     13298     13301     13298     13301     13302
     13298     13301     13303     13298     13301     13304     13302     13301     13303
     13302     13301     13304     13303     13301     13304     13301     13304     13305
     13301     13304     13306     13301     13304     13307     13305     13304     13306
     13305     13304     13307     13306     13304     13307     13304     13307     13308
     13304     13307     13309     13304     13307     13310     13308     13307     13309
     13308     13307     13310     13309     13307     13310     13307     13310     13311
     13307     13310     13312     13307     13310     13313     13311     13310     13312
     13311     13310     13313     13312     13310     13313     13310     13313     13314
     13310     13313     13315     13310     13313     13316     13314     13313     13315
     13314     13313     13316     13315     13313     13316     13313     13316     13317
     13313     13316     13318     13317     13316     13318     13316     13318     13319
     13316     13318     13320     13319     13318     13320     13318     13320     13321
     13318     13320     13322     13318     13320     13323     13321     13320     13322
     13321     13320     13323     13322     13320     13323     13320     13323     13324
     13320     13323     13325     13320     13323     13326     13324     13323     13325
     13324     13323     13326     13325     13323     13326     13323     13326     13327
     13323     13326     13328     13323     13326     13329     13327     13326     13328
     13327     13326     13329     13328     13326     13329     13326     13329     13330
     13326     13329     13331     13326     13329     13332     13330     13329     13331
     13330     13329     13332     13331     13329     13332     13329     13332     13333
     13329     13332     13334     13329     13332     13335     13333     13332     13334
     13333     13332     13335     13334     13332     13335     13332     13335     13336
     13332     13335     13337     13332     13335     13338     13336     13335     13337
     13336     13335     13338     13337     13335     13338     13335     13338     13339
     13335     13338     13340     13335     13338     13341     13339     13338     13340
     13339     13338     13341     13340     13338     13341     13338     13341     13342
     13338     13341     13343     13338     13341     13344     13342     13341     13343
     13342     13341     13344     13343     13341     13344     13295     13345     13346
     13295     13345     13347     13295     13345     13348     13346     13345     13347
     13346     13345     13348     13347     13345     13348     13345     13348     13349
     13345     13348     13350     13345     13348     13351     13349     13348     13350
     13349     13348     13351     13350     13348     13351     13348     13351     13352
     13348     13351     13353     13348     13351     13354     13352     13351     13353
     13352     13351     13354     13353     13351     13354     13351     13354     13355
     13351     13354     13356     13351     13354     13357     13355     13354     13356
     13355     13354     13357     13356     13354     13357     13354     13357     13358
     13354     13357     13359     13354     13357     13360     13358     13357     13359
     13358     13357     13360     13359     13357     13360     13357     13360     13361
     13357     13360     13362     13357     13360     13363     13361     13360     13362
     13361     13360     13363     13362     13360     13363     13360     13363     13364
     13360     13363     13365     13360     13363     13366     13364     13363     13365
     13364     13363     13366     13365     13363     13366     13363     13366     13367
     13363     13366     13368     13363     13366     13369     13367     13366     13368
     13367     13366     13369     13368     13366     13369     13366     13369     13370
     13366     13369     13371     13366     13369     13372     13370     13369     13371
     13370     13369     13372     13371     13369     13372     13369     13372     13373
     13369     13372     13374     13369     13372     13375     13373     13372     13374
     13373     13372     13375     13374     13372     13375     13372     13375     13376
     13372     13375     13377     13372     13375     13378     13376     13375     13377
     13376     13375     13378     13377     13375     13378     13375     13378     13379
     13375     13378     13380     13375     13378     13381     13379     13378     13380
     13379     13378     13381     13380     13378     13381     13378     13381     13382
     13378     13381     13383     13378     13381     13384     13382     13381     13383
     13382     13381     13384     13383     13381     13384     13381     13384     13385
     13381     13384     13386     13381     13384     13387     13385     13384     13386
     13385     13384     13387     13386     13384     13387     13389     13388     13392
     13389     13388     13396     13389     13388     13400     13392     13388     13396
     13392     13388     13400     13396     13388     13400     13388     13389     13390
     13388     13389     13391     13388     13389     13404     13390     13389     13391
     13390     13389     13404     13391     13389     13404     13388     13392     13393
     13388     13392     13394     13388     13392     13395     13393     13392     13394
     13393     13392     13395     13394     13392     13395     13388     13396     13397
     13388     13396     13398     13388     13396     13399     13397     13396     13398
     13397     13396     13399     13398     13396     13399     13388     13400     13401
     13388     13400     13402     13388     13400     13403     13401     13400     13402
     13401     13400     13403     13402     13400     13403     13389     13404     13405
     13389     13404     13406     13389     13404     13410     13405     13404     13406
     13405     13404     13410     13406     13404     13410     13408     13407     13409
     13408     13407     13410     13408     13407     13411     13409     13407     13410
     13409     13407     13411     13410     13407     13411     13404     13410     13407
     13407     13411     13412     13411     13412     13413     13411     13412     13414
     13411     13412     13415     13413     13412     13414     13413     13412     13415
     13414     13412     13415     13412     13415     13416     13412     13415     13417
     13412     13415     13423     13416     13415     13417     13416     13415     13423
     13417     13415     13423     13415     13417     13418     13417     13418     13419
     13417     13418     13420     13419     13418     13420     13418     13420     13421
     13418     13420     13422     13418     13420     13432     13421     13420     13422
     13421     13420     13432     13422     13420     13432     13415     13423     13424
     13415     13423     13425     13415     13423     13426     13424     13423     13425
     13424     13423     13426     13425     13423     13426     13423     13426     13427
     13426     13427     13428     13426     13427     13429     13428     13427     13429
     13427     13429     13430     13427     13429     13431     13427     13429     13479
     13430     13429     13431     13430     13429     13479     13431     13429     13479
     13420     13432     13433     13420     13432     13434     13420     13432     13435
     13433     13432     13434     13433     13432     13435     13434     13432     13435
     13432     13435     13436     13432     13435     13437     13432     13435     13438
     13436     13435     13437     13436     13435     13438     13437     13435     13438
     13435     13438     13439     13435     13438     13440     13435     13438     13441
     13439     13438     13440     13439     13438     13441     13440     13438     13441
     13438     13441     13442     13438     13441     13443     13438     13441     13444
     13442     13441     13443     13442     13441     13444     13443     13441     13444
     13441     13444     13445     13441     13444     13446     13441     13444     13447
     13445     13444     13446     13445     13444     13447     13446     13444     13447
     13444     13447     13448     13444     13447     13449     13444     13447     13450
     13448     13447     13449     13448     13447     13450     13449     13447     13450
     13447     13450     13451     13447     13450     13452     13451     13450     13452
     13450     13452     13453     13450     13452     13454     13453     13452     13454
     13452     13454     13455     13452     13454     13456     13452     13454     13457
     13455     13454     13456     13455     13454     13457     13456     13454     13457
     13454     13457     13458     13454     13457     13459     13454     13457     13460
     13458     13457     13459     13458     13457     13460     13459     13457     13460
     13457     13460     13461     13457     13460     13462     13457     13460     13463
     13461     13460     13462     13461     13460     13463     13462     13460     13463
     13460     13463     13464     13460     13463     13465     13460     13463     13466
     13464     13463     13465     13464     13463     13466     13465     13463     13466
     13463     13466     13467     13463     13466     13468     13463     13466     13469
     13467     13466     13468     13467     13466     13469     13468     13466     13469
     13466     13469     13470     13466     13469     13471     13466     13469     13472
     13470     13469     13471     13470     13469     13472     13471     13469     13472
     13469     13472     13473     13469     13472     13474     13469     13472     13475
     13473     13472     13474     13473     13472     13475     13474     13472     13475
     13472     13475     13476     13472     13475     13477     13472     13475     13478
     13476     13475     13477     13476     13475     13478     13477     13475     13478
     13429     13479     13480     13429     13479     13481     13429     13479     13482
     13480     13479     13481     13480     13479     13482     13481     13479     13482
     13479     13482     13483     13479     13482     13484     13479     13482     13485
     13483     13482     13484     13483     13482     13485     13484     13482     13485
     13482     13485     13486     13482     13485     13487     13482     13485     13488
     13486     13485     13487     13486     13485     13488     13487     13485     13488
     13485     13488     13489     13485     13488     13490     13485     13488     13491
     13489     13488     13490     13489     13488     13491     13490     13488     13491
     13488     13491     13492     13488     13491     13493     13488     13491     13494
     13492     13491     13493     13492     13491     13494     13493     13491     13494
     13491     13494     13495     13491     13494     13496     13491     13494     13497
     13495     13494     13496     13495     13494     13497     13496     13494     13497
     13494     13497     13498     13494     13497     13499     13494     13497     13500
     13498     13497     13499     13498     13497     13500     13499     13497     13500
     13497     13500     13501     13497     13500     13502     13497     13500     13503
     13501     13500     13502     13501     13500     13503     13502     13500     13503
     13500     13503     13504     13500     13503     13505     13500     13503     13506
     13504     13503     13505     13504     13503     13506     13505     13503     13506
     13503     13506     13507     13503     13506     13508     13503     13506     13509
     13507     13506     13508     13507     13506     13509     13508     13506     13509
     13506     13509     13510     13506     13509     13511     13506     13509     13512
     13510     13509     13511     13510     13509     13512     13511     13509     13512
     13509     13512     13513     13509     13512     13514     13509     13512     13515
     13513     13512     13514     13513     13512     13515     13514     13512     13515
     13512     13515     13516     13512     13515     13517     13512     13515     13518
     13516     13515     13517     13516     13515     13518     13517     13515     13518
     13515     13518     13519     13515     13518     13520     13515     13518     13521
     13519     13518     13520     13519     13518     13521     13520     13518     13521
     13523     13522     13524     13523     13522     13525     13523     13522     13526
     13524     13522     13525     13524     13522     13526     13525     13522     13526
     13522     13526     13527     13522     13526     13528     13522     13526     13531
     13527     13526     13528     13527     13526     13531     13528     13526     13531
     13526     13528     13529     13526     13528     13530     13529     13528     13530
     13526     13531     13532     13526     13531     13533     13526     13531     13537
     13532     13531     13533     13532     13531     13537     13533     13531     13537
     13535     13534     13536     13535     13534     13537     13535     13534     13538
     13536     13534     13537     13536     13534     13538     13537     13534     13538
     13531     13537     13534     13534     13538     13539     13538     13539     13540
     13538     13539     13541     13538     13539     13542     13540     13539     13541
     13540     13539     13542     13541     13539     13542     13539     13542     13543
     13539     13542     13544     13539     13542     13550     13543     13542     13544
     13543     13542     13550     13544     13542     13550     13542     13544     13545
     13544     13545     13546     13544     13545     13547     13546     13545     13547
     13545     13547     13548     13545     13547     13549     13545     13547     13559
     13548     13547     13549     13548     13547     13559     13549     13547     13559
     13542     13550     13551     13542     13550     13552     13542     13550     13553
     13551     13550     13552     13551     13550     13553     13552     13550     13553
     13550     13553     13554     13553     13554     13555     13553     13554     13556
     13555     13554     13556     13554     13556     13557     13554     13556     13558
     13554     13556     13606     13557     13556     13558     13557     13556     13606
     13558     13556     13606     13547     13559     13560     13547     13559     13561
     13547     13559     13562     13560     13559     13561     13560     13559     13562
     13561     13559     13562     13559     13562     13563     13559     13562     13564
     13559     13562     13565     13563     13562     13564     13563     13562     13565
     13564     13562     13565     13562     13565     13566     13562     13565     13567
     13562     13565     13568     13566     13565     13567     13566     13565     13568
     13567     13565     13568     13565     13568     13569     13565     13568     13570
     13565     13568     13571     13569     13568     13570     13569     13568     13571
     13570     13568     13571     13568     13571     13572     13568     13571     13573
     13568     13571     13574     13572     13571     13573     13572     13571     13574
     13573     13571     13574     13571     13574     13575     13571     13574     13576
     13571     13574     13577     13575     13574     13576     13575     13574     13577
     13576     13574     13577     13574     13577     13578     13574     13577     13579
     13578     13577     13579     13577     13579     13580     13577     13579     13581
     13580     13579     13581     13579     13581     13582     13579     13581     13583
     13579     13581     13584     13582     13581     13583     13582     13581     13584
     13583     13581     13584     13581     13584     13585     13581     13584     13586
     13581     13584     13587     13585     13584     13586     13585     13584     13587
     13586     13584     13587     13584     13587     13588     13584     13587     13589
     13584     13587     13590     13588     13587     13589     13588     13587     13590
     13589     13587     13590     13587     13590     13591     13587     13590     13592
     13587     13590     13593     13591     13590     13592     13591     13590     13593
     13592     13590     13593     13590     13593     13594     13590     13593     13595
     13590     13593     13596     13594     13593     13595     13594     13593     13596
     13595     13593     13596     13593     13596     13597     13593     13596     13598
     13593     13596     13599     13597     13596     13598     13597     13596     13599
     13598     13596     13599     13596     13599     13600     13596     13599     13601
     13596     13599     13602     13600     13599     13601     13600     13599     13602
     13601     13599     13602     13599     13602     13603     13599     13602     13604
     13599     13602     13605     13603     13602     13604     13603     13602     13605
     13604     13602     13605     13556     13606     13607     13556     13606     13608
     13556     13606     13609     13607     13606     13608     13607     13606     13609
     13608     13606     13609     13606     13609     13610     13606     13609     13611
     13606     13609     13612     13610     13609     13611     13610     13609     13612
     13611     13609     13612     13609     13612     13613     13609     13612     13614
     13609     13612     13615     13613     13612     13614     13613     13612     13615
     13614     13612     13615     13612     13615     13616     13612     13615     13617
     13612     13615     13618     13616     13615     13617     13616     13615     13618
     13617     13615     13618     13615     13618     13619     13615     13618     13620
     13615     13618     13621     13619     13618     13620     13619     13618     13621
     13620     13618     13621     13618     13621     13622     13618     13621     13623
     13618     13621     13624     13622     13621     13623     13622     13621     13624
     13623     13621     13624     13621     13624     13625     13621     13624     13626
     13621     13624     13627     13625     13624     13626     13625     13624     13627
     13626     13624     13627     13624     13627     13628     13624     13627     13629
     13624     13627     13630     13628     13627     13629     13628     13627     13630
     13629     13627     13630     13627     13630     13631     13627     13630     13632
     13627     13630     13633     13631     13630     13632     13631     13630     13633
     13632     13630     13633     13630     13633     13634     13630     13633     13635
     13630     13633     13636     13634     13633     13635     13634     13633     13636
     13635     13633     13636     13633     13636     13637     13633     13636     13638
     13633     13636     13639     13637     13636     13638     13637     13636     13639
     13638     13636     13639     13636     13639     13640     13636     13639     13641
     13636     13639     13642     13640     13639     13641     13640     13639     13642
     13641     13639     13642     13639     13642     13643     13639     13642     13644
     13639     13642     13645     13643     13642     13644     13643     13642     13645
     13644     13642     13645     13642     13645     13646     13642     13645     13647
     13642     13645     13648     13646     13645     13647     13646     13645     13648
     13647     13645     13648     13650     13649     13653     13650     13649     13657
     13650     13649     13661     13653     13649     13657     13653     13649     13661
     13657     13649     13661     13649     13650     13651     13649     13650     13652
     13649     13650     13665     13651     13650     13652     13651     13650     13665
     13652     13650     13665     13649     13653     13654     13649     13653     13655
     13649     13653     13656     13654     13653     13655     13654     13653     13656
     13655     13653     13656     13649     13657     13658     13649     13657     13659
     13649     13657     13660     13658     13657     13659     13658     13657     13660
     13659     13657     13660     13649     13661     13662     13649     13661     13663
     13649     13661     13664     13662     13661     13663     13662     13661     13664
     13663     13661     13664     13650     13665     13666     13650     13665     13667
     13650     13665     13671     13666     13665     13667     13666     13665     13671
     13667     13665     13671     13669     13668     13670     13669     13668     13671
     13669     13668     13672     13670     13668     13671     13670     13668     13672
     13671     13668     13672     13665     13671     13668     13668     13672     13673
     13672     13673     13674     13672     13673     13675     13672     13673     13676
     13674     13673     13675     13674     13673     13676     13675     13673     13676
     13673     13676     13677     13673     13676     13678     13673     13676     13684
     13677     13676     13678     13677     13676     13684     13678     13676     13684
     13676     13678     13679     13678     13679     13680     13678     13679     13681
     13680     13679     13681     13679     13681     13682     13679     13681     13683
     13679     13681     13693     13682     13681     13683     13682     13681     13693
     13683     13681     13693     13676     13684     13685     13676     13684     13686
     13676     13684     13687     13685     13684     13686     13685     13684     13687
     13686     13684     13687     13684     13687     13688     13687     13688     13689
     13687     13688     13690     13689     13688     13690     13688     13690     13691
     13688     13690     13692     13688     13690     13740     13691     13690     13692
     13691     13690     13740     13692     13690     13740     13681     13693     13694
     13681     13693     13695     13681     13693     13696     13694     13693     13695
     13694     13693     13696     13695     13693     13696     13693     13696     13697
     13693     13696     13698     13693     13696     13699     13697     13696     13698
     13697     13696     13699     13698     13696     13699     13696     13699     13700
     13696     13699     13701     13696     13699     13702     13700     13699     13701
     13700     13699     13702     13701     13699     13702     13699     13702     13703
     13699     13702     13704     13699     13702     13705     13703     13702     13704
     13703     13702     13705     13704     13702     13705     13702     13705     13706
     13702     13705     13707     13702     13705     13708     13706     13705     13707
     13706     13705     13708     13707     13705     13708     13705     13708     13709
     13705     13708     13710     13705     13708     13711     13709     13708     13710
     13709     13708     13711     13710     13708     13711     13708     13711     13712
     13708     13711     13713     13712     13711     13713     13711     13713     13714
     13711     13713     13715     13714     13713     13715     13713     13715     13716
     13713     13715     13717     13713     13715     13718     13716     13715     13717
     13716     13715     13718     13717     13715     13718     13715     13718     13719
     13715     13718     13720     13715     13718     13721     13719     13718     13720
     13719     13718     13721     13720     13718     13721     13718     13721     13722
     13718     13721     13723     13718     13721     13724     13722     13721     13723
     13722     13721     13724     13723     13721     13724     13721     13724     13725
     13721     13724     13726     13721     13724     13727     13725     13724     13726
     13725     13724     13727     13726     13724     13727     13724     13727     13728
     13724     13727     13729     13724     13727     13730     13728     13727     13729
     13728     13727     13730     13729     13727     13730     13727     13730     13731
     13727     13730     13732     13727     13730     13733     13731     13730     13732
     13731     13730     13733     13732     13730     13733     13730     13733     13734
     13730     13733     13735     13730     13733     13736     13734     13733     13735
     13734     13733     13736     13735     13733     13736     13733     13736     13737
     13733     13736     13738     13733     13736     13739     13737     13736     13738
     13737     13736     13739     13738     13736     13739     13690     13740     13741
     13690     13740     13742     13690     13740     13743     13741     13740     13742
     13741     13740     13743     13742     13740     13743     13740     13743     13744
     13740     13743     13745     13740     13743     13746     13744     13743     13745
     13744     13743     13746     13745     13743     13746     13743     13746     13747
     13743     13746     13748     13743     13746     13749     13747     13746     13748
     13747     13746     13749     13748     13746     13749     13746     13749     13750
     13746     13749     13751     13746     13749     13752     13750     13749     13751
     13750     13749     13752     13751     13749     13752     13749     13752     13753
     13749     13752     13754     13749     13752     13755     13753     13752     13754
     13753     13752     13755     13754     13752     13755     13752     13755     13756
     13752     13755     13757     13752     13755     13758     13756     13755     13757
     13756     13755     13758     13757     13755     13758     13755     13758     13759
     13755     13758     13760     13755     13758     13761     13759     13758     13760
     13759     13758     13761     13760     13758     13761     13758     13761     13762
     13758     13761     13763     13758     13761     13764     13762     13761     13763
     13762     13761     13764     13763     13761     13764     13761     13764     13765
     13761     13764     13766     13761     13764     13767     13765     13764     13766
     13765     13764     13767     13766     13764     13767     13764     13767     13768
     13764     13767     13769     13764     13767     13770     13768     13767     13769
     13768     13767     13770     13769     13767     13770     13767     13770     13771
     13767     13770     13772     13767     13770     13773     13771     13770     13772
     13771     13770     13773     13772     13770     13773     13770     13773     13774
     13770     13773     13775     13770     13773     13776     13774     13773     13775
     13774     13773     13776     13775     13773     13776     13773     13776     13777
     13773     13776     13778     13773     13776     13779     13777     13776     13778
     13777     13776     13779     13778     13776     13779     13776     13779     13780
     13776     13779     13781     13776     13779     13782     13780     13779     13781
     13780     13779     13782     13781     13779     13782     13784     13783     13787
     13784     13783     13791     13784     13783     13795     13787     13783     13791
     13787     13783     13795     13791     13783     13795     13783     13784     13785
     13783     13784     13786     13783     13784     13799     13785     13784     13786
     13785     13784     13799     13786     13784     13799     13783     13787     13788
     13783     13787     13789     13783     13787     13790     13788     13787     13789
     13788     13787     13790     13789     13787     13790     13783     13791     13792
     13783     13791     13793     13783     13791     13794     13792     13791     13793
     13792     13791     13794     13793     13791     13794     13783     13795     13796
     13783     13795     13797     13783     13795     13798     13796     13795     13797
     13796     13795     13798     13797     13795     13798     13784     13799     13800
     13784     13799     13801     13784     13799     13805     13800     13799     13801
     13800     13799     13805     13801     13799     13805     13803     13802     13804
     13803     13802     13805     13803     13802     13806     13804     13802     13805
     13804     13802     13806     13805     13802     13806     13799     13805     13802
     13802     13806     13807     13806     13807     13808     13806     13807     13809
     13806     13807     13810     13808     13807     13809     13808     13807     13810
     13809     13807     13810     13807     13810     13811     13807     13810     13812
     13807     13810     13818     13811     13810     13812     13811     13810     13818
     13812     13810     13818     13810     13812     13813     13812     13813     13814
     13812     13813     13815     13814     13813     13815     13813     13815     13816
     13813     13815     13817     13813     13815     13827     13816     13815     13817
     13816     13815     13827     13817     13815     13827     13810     13818     13819
     13810     13818     13820     13810     13818     13821     13819     13818     13820
     13819     13818     13821     13820     13818     13821     13818     13821     13822
     13821     13822     13823     13821     13822     13824     13823     13822     13824
     13822     13824     13825     13822     13824     13826     13822     13824     13874
     13825     13824     13826     13825     13824     13874     13826     13824     13874
     13815     13827     13828     13815     13827     13829     13815     13827     13830
     13828     13827     13829     13828     13827     13830     13829     13827     13830
     13827     13830     13831     13827     13830     13832     13827     13830     13833
     13831     13830     13832     13831     13830     13833     13832     13830     13833
     13830     13833     13834     13830     13833     13835     13830     13833     13836
     13834     13833     13835     13834     13833     13836     13835     13833     13836
     13833     13836     13837     13833     13836     13838     13833     13836     13839
     13837     13836     13838     13837     13836     13839     13838     13836     13839
     13836     13839     13840     13836     13839     13841     13836     13839     13842
     13840     13839     13841     13840     13839     13842     13841     13839     13842
     13839     13842     13843     13839     13842     13844     13839     13842     13845
     13843     13842     13844     13843     13842     13845     13844     13842     13845
     13842     13845     13846     13842     13845     13847     13846     13845     13847
     13845     13847     13848     13845     13847     13849     13848     13847     13849
     13847     13849     13850     13847     13849     13851     13847     13849     13852
     13850     13849     13851     13850     13849     13852     13851     13849     13852
     13849     13852     13853     13849     13852     13854     13849     13852     13855
     13853     13852     13854     13853     13852     13855     13854     13852     13855
     13852     13855     13856     13852     13855     13857     13852     13855     13858
     13856     13855     13857     13856     13855     13858     13857     13855     13858
     13855     13858     13859     13855     13858     13860     13855     13858     13861
     13859     13858     13860     13859     13858     13861     13860     13858     13861
     13858     13861     13862     13858     13861     13863     13858     13861     13864
     13862     13861     13863     13862     13861     13864     13863     13861     13864
     13861     13864     13865     13861     13864     13866     13861     13864     13867
     13865     13864     13866     13865     13864     13867     13866     13864     13867
     13864     13867     13868     13864     13867     13869     13864     13867     13870
     13868     13867     13869     13868     13867     13870     13869     13867     13870
     13867     13870     13871     13867     13870     13872     13867     13870     13873
     13871     13870     13872     13871     13870     13873     13872     13870     13873
     13824     13874     13875     13824     13874     13876     13824     13874     13877
     13875     13874     13876     13875     13874     13877     13876     13874     13877
     13874     13877     13878     13874     13877     13879     13874     13877     13880
     13878     13877     13879     13878     13877     13880     13879     13877     13880
     13877     13880     13881     13877     13880     13882     13877     13880     13883
     13881     13880     13882     13881     13880     13883     13882     13880     13883
     13880     13883     13884     13880     13883     13885     13880     13883     13886
     13884     13883     13885     13884     13883     13886     13885     13883     13886
     13883     13886     13887     13883     13886     13888     13883     13886     13889
     13887     13886     13888     13887     13886     13889     13888     13886     13889
     13886     13889     13890     13886     13889     13891     13886     13889     13892
     13890     13889     13891     13890     13889     13892     13891     13889     13892
     13889     13892     13893     13889     13892     13894     13889     13892     13895
     13893     13892     13894     13893     13892     13895     13894     13892     13895
     13892     13895     13896     13892     13895     13897     13892     13895     13898
     13896     13895     13897     13896     13895     13898     13897     13895     13898
     13895     13898     13899     13895     13898     13900     13895     13898     13901
     13899     13898     13900     13899     13898     13901     13900     13898     13901
     13898     13901     13902     13898     13901     13903     13898     13901     13904
     13902     13901     13903     13902     13901     13904     13903     13901     13904
     13901     13904     13905     13901     13904     13906     13901     13904     13907
     13905     13904     13906     13905     13904     13907     13906     13904     13907
     13904     13907     13908     13904     13907     13909     13904     13907     13910
     13908     13907     13909     13908     13907     13910     13909     13907     13910
     13907     13910     13911     13907     13910     13912     13907     13910     13913
     13911     13910     13912     13911     13910     13913     13912     13910     13913
     13910     13913     13914     13910     13913     13915     13910     13913     13916
     13914     13913     13915     13914     13913     13916     13915     13913     13916
     13918     13917     13921     13918     13917     13925     13918     13917     13929
     13921     13917     13925     13921     13917     13929     13925     13917     13929
     13917     13918     13919     13917     13918     13920     13917     13918     13933
     13919     13918     13920     13919     13918     13933     13920     13918     13933
     13917     13921     13922     13917     13921     13923     13917     13921     13924
     13922     13921     13923     13922     13921     13924     13923     13921     13924
     13917     13925     13926     13917     13925     13927     13917     13925     13928
     13926     13925     13927     13926     13925     13928     13927     13925     13928
     13917     13929     13930     13917     13929     13931     13917     13929     13932
     13930     13929     13931     13930     13929     13932     13931     13929     13932
     13918     13933     13934     13918     13933     13935     13918     13933     13939
     13934     13933     13935     13934     13933     13939     13935     13933     13939
     13937     13936     13938     13937     13936     13939     13937     13936     13940
     13938     13936     13939     13938     13936     13940     13939     13936     13940
     13933     13939     13936     13936     13940     13941     13940     13941     13942
     13940     13941     13943     13940     13941     13944     13942     13941     13943
     13942     13941     13944     13943     13941     13944     13941     13944     13945
     13941     13944     13946     13941     13944     13952     13945     13944     13946
     13945     13944     13952     13946     13944     13952     13944     13946     13947
     13946     13947     13948     13946     13947     13949     13948     13947     13949
     13947     13949     13950     13947     13949     13951     13947     13949     13961
     13950     13949     13951     13950     13949     13961     13951     13949     13961
     13944     13952     13953     13944     13952     13954     13944     13952     13955
     13953     13952     13954     13953     13952     13955     13954     13952     13955
     13952     13955     13956     13955     13956     13957     13955     13956     13958
     13957     13956     13958     13956     13958     13959     13956     13958     13960
     13956     13958     14008     13959     13958     13960     13959     13958     14008
     13960     13958     14008     13949     13961     13962     13949     13961     13963
     13949     13961     13964     13962     13961     13963     13962     13961     13964
     13963     13961     13964     13961     13964     13965     13961     13964     13966
     13961     13964     13967     13965     13964     13966     13965     13964     13967
     13966     13964     13967     13964     13967     13968     13964     13967     13969
     13964     13967     13970     13968     13967     13969     13968     13967     13970
     13969     13967     13970     13967     13970     13971     13967     13970     13972
     13967     13970     13973     13971     13970     13972     13971     13970     13973
     13972     13970     13973     13970     13973     13974     13970     13973     13975
     13970     13973     13976     13974     13973     13975     13974     13973     13976
     13975     13973     13976     13973     13976     13977     13973     13976     13978
     13973     13976     13979     13977     13976     13978     13977     13976     13979
     13978     13976     13979     13976     13979     13980     13976     13979     13981
     13980     13979     13981     13979     13981     13982     13979     13981     13983
     13982     13981     13983     13981     13983     13984     13981     13983     13985
     13981     13983     13986     13984     13983     13985     13984     13983     13986
     13985     13983     13986     13983     13986     13987     13983     13986     13988
     13983     13986     13989     13987     13986     13988     13987     13986     13989
     13988     13986     13989     13986     13989     13990     13986     13989     13991
     13986     13989     13992     13990     13989     13991     13990     13989     13992
     13991     13989     13992     13989     13992     13993     13989     13992     13994
     13989     13992     13995     13993     13992     13994     13993     13992     13995
     13994     13992     13995     13992     13995     13996     13992     13995     13997
     13992     13995     13998     13996     13995     13997     13996     13995     13998
     13997     13995     13998     13995     13998     13999     13995     13998     14000
     13995     13998     14001     13999     13998     14000     13999     13998     14001
     14000     13998     14001     13998     14001     14002     13998     14001     14003
     13998     14001     14004     14002     14001     14003     14002     14001     14004
     14003     14001     14004     14001     14004     14005     14001     14004     14006
     14001     14004     14007     14005     14004     14006     14005     14004     14007
     14006     14004     14007     13958     14008     14009     13958     14008     14010
     13958     14008     14011     14009     14008     14010     14009     14008     14011
     14010     14008     14011     14008     14011     14012     14008     14011     14013
     14008     14011     14014     14012     14011     14013     14012     14011     14014
     14013     14011     14014     14011     14014     14015     14011     14014     14016
     14011     14014     14017     14015     14014     14016     14015     14014     14017
     14016     14014     14017     14014     14017     14018     14014     14017     14019
     14014     14017     14020     14018     14017     14019     14018     14017     14020
     14019     14017     14020     14017     14020     14021     14017     14020     14022
     14017     14020     14023     14021     14020     14022     14021     14020     14023
     14022     14020     14023     14020     14023     14024     14020     14023     14025
     14020     14023     14026     14024     14023     14025     14024     14023     14026
     14025     14023     14026     14023     14026     14027     14023     14026     14028
     14023     14026     14029     14027     14026     14028     14027     14026     14029
     14028     14026     14029     14026     14029     14030     14026     14029     14031
     14026     14029     14032     14030     14029     14031     14030     14029     14032
     14031     14029     14032     14029     14032     14033     14029     14032     14034
     14029     14032     14035     14033     14032     14034     14033     14032     14035
     14034     14032     14035     14032     14035     14036     14032     14035     14037
     14032     14035     14038     14036     14035     14037     14036     14035     14038
     14037     14035     14038     14035     14038     14039     14035     14038     14040
     14035     14038     14041     14039     14038     14040     14039     14038     14041
     14040     14038     14041     14038     14041     14042     14038     14041     14043
     14038     14041     14044     14042     14041     14043     14042     14041     14044
     14043     14041     14044     14041     14044     14045     14041     14044     14046
     14041     14044     14047     14045     14044     14046     14045     14044     14047
     14046     14044     14047     14044     14047     14048     14044     14047     14049
     14044     14047     14050     14048     14047     14049     14048     14047     14050
     14049     14047     14050     14052     14051     14055     14052     14051     14059
     14052     14051     14063     14055     14051     14059     14055     14051     14063
     14059     14051     14063     14051     14052     14053     14051     14052     14054
     14051     14052     14067     14053     14052     14054     14053     14052     14067
     14054     14052     14067     14051     14055     14056     14051     14055     14057
     14051     14055     14058     14056     14055     14057     14056     14055     14058
     14057     14055     14058     14051     14059     14060     14051     14059     14061
     14051     14059     14062     14060     14059     14061     14060     14059     14062
     14061     14059     14062     14051     14063     14064     14051     14063     14065
     14051     14063     14066     14064     14063     14065     14064     14063     14066
     14065     14063     14066     14052     14067     14068     14052     14067     14069
     14052     14067     14073     14068     14067     14069     14068     14067     14073
     14069     14067     14073     14071     14070     14072     14071     14070     14073
     14071     14070     14074     14072     14070     14073     14072     14070     14074
     14073     14070     14074     14067     14073     14070     14070     14074     14075
     14074     14075     14076     14074     14075     14077     14074     14075     14078
     14076     14075     14077     14076     14075     14078     14077     14075     14078
     14075     14078     14079     14075     14078     14080     14075     14078     14086
     14079     14078     14080     14079     14078     14086     14080     14078     14086
     14078     14080     14081     14080     14081     14082     14080     14081     14083
     14082     14081     14083     14081     14083     14084     14081     14083     14085
     14081     14083     14095     14084     14083     14085     14084     14083     14095
     14085     14083     14095     14078     14086     14087     14078     14086     14088
     14078     14086     14089     14087     14086     14088     14087     14086     14089
     14088     14086     14089     14086     14089     14090     14089     14090     14091
     14089     14090     14092     14091     14090     14092     14090     14092     14093
     14090     14092     14094     14090     14092     14142     14093     14092     14094
     14093     14092     14142     14094     14092     14142     14083     14095     14096
     14083     14095     14097     14083     14095     14098     14096     14095     14097
     14096     14095     14098     14097     14095     14098     14095     14098     14099
     14095     14098     14100     14095     14098     14101     14099     14098     14100
     14099     14098     14101     14100     14098     14101     14098     14101     14102
     14098     14101     14103     14098     14101     14104     14102     14101     14103
     14102     14101     14104     14103     14101     14104     14101     14104     14105
     14101     14104     14106     14101     14104     14107     14105     14104     14106
     14105     14104     14107     14106     14104     14107     14104     14107     14108
     14104     14107     14109     14104     14107     14110     14108     14107     14109
     14108     14107     14110     14109     14107     14110     14107     14110     14111
     14107     14110     14112     14107     14110     14113     14111     14110     14112
     14111     14110     14113     14112     14110     14113     14110     14113     14114
     14110     14113     14115     14114     14113     14115     14113     14115     14116
     14113     14115     14117     14116     14115     14117     14115     14117     14118
     14115     14117     14119     14115     14117     14120     14118     14117     14119
     14118     14117     14120     14119     14117     14120     14117     14120     14121
     14117     14120     14122     14117     14120     14123     14121     14120     14122
     14121     14120     14123     14122     14120     14123     14120     14123     14124
     14120     14123     14125     14120     14123     14126     14124     14123     14125
     14124     14123     14126     14125     14123     14126     14123     14126     14127
     14123     14126     14128     14123     14126     14129     14127     14126     14128
     14127     14126     14129     14128     14126     14129     14126     14129     14130
     14126     14129     14131     14126     14129     14132     14130     14129     14131
     14130     14129     14132     14131     14129     14132     14129     14132     14133
     14129     14132     14134     14129     14132     14135     14133     14132     14134
     14133     14132     14135     14134     14132     14135     14132     14135     14136
     14132     14135     14137     14132     14135     14138     14136     14135     14137
     14136     14135     14138     14137     14135     14138     14135     14138     14139
     14135     14138     14140     14135     14138     14141     14139     14138     14140
     14139     14138     14141     14140     14138     14141     14092     14142     14143
     14092     14142     14144     14092     14142     14145     14143     14142     14144
     14143     14142     14145     14144     14142     14145     14142     14145     14146
     14142     14145     14147     14142     14145     14148     14146     14145     14147
     14146     14145     14148     14147     14145     14148     14145     14148     14149
     14145     14148     14150     14145     14148     14151     14149     14148     14150
     14149     14148     14151     14150     14148     14151     14148     14151     14152
     14148     14151     14153     14148     14151     14154     14152     14151     14153
     14152     14151     14154     14153     14151     14154     14151     14154     14155
     14151     14154     14156     14151     14154     14157     14155     14154     14156
     14155     14154     14157     14156     14154     14157     14154     14157     14158
     14154     14157     14159     14154     14157     14160     14158     14157     14159
     14158     14157     14160     14159     14157     14160     14157     14160     14161
     14157     14160     14162     14157     14160     14163     14161     14160     14162
     14161     14160     14163     14162     14160     14163     14160     14163     14164
     14160     14163     14165     14160     14163     14166     14164     14163     14165
     14164     14163     14166     14165     14163     14166     14163     14166     14167
     14163     14166     14168     14163     14166     14169     14167     14166     14168
     14167     14166     14169     14168     14166     14169     14166     14169     14170
     14166     14169     14171     14166     14169     14172     14170     14169     14171
     14170     14169     14172     14171     14169     14172     14169     14172     14173
     14169     14172     14174     14169     14172     14175     14173     14172     14174
     14173     14172     14175     14174     14172     14175     14172     14175     14176
     14172     14175     14177     14172     14175     14178     14176     14175     14177
     14176     14175     14178     14177     14175     14178     14175     14178     14179
     14175     14178     14180     14175     14178     14181     14179     14178     14180
     14179     14178     14181     14180     14178     14181     14178     14181     14182
     14178     14181     14183     14178     14181     14184     14182     14181     14183
     14182     14181     14184     14183     14181     14184     14186     14185     14189
     14186     14185     14193     14186     14185     14197     14189     14185     14193
     14189     14185     14197     14193     14185     14197     14185     14186     14187
     14185     14186     14188     14185     14186     14201     14187     14186     14188
     14187     14186     14201     14188     14186     14201     14185     14189     14190
     14185     14189     14191     14185     14189     14192     14190     14189     14191
     14190     14189     14192     14191     14189     14192     14185     14193     14194
     14185     14193     14195     14185     14193     14196     14194     14193     14195
     14194     14193     14196     14195     14193     14196     14185     14197     14198
     14185     14197     14199     14185     14197     14200     14198     14197     14199
     14198     14197     14200     14199     14197     14200     14186     14201     14202
     14186     14201     14203     14186     14201     14207     14202     14201     14203
     14202     14201     14207     14203     14201     14207     14205     14204     14206
     14205     14204     14207     14205     14204     14208     14206     14204     14207
     14206     14204     14208     14207     14204     14208     14201     14207     14204
     14204     14208     14209     14208     14209     14210     14208     14209     14211
     14208     14209     14212     14210     14209     14211     14210     14209     14212
     14211     14209     14212     14209     14212     14213     14209     14212     14214
     14209     14212     14220     14213     14212     14214     14213     14212     14220
     14214     14212     14220     14212     14214     14215     14214     14215     14216
     14214     14215     14217     14216     14215     14217     14215     14217     14218
     14215     14217     14219     14215     14217     14229     14218     14217     14219
     14218     14217     14229     14219     14217     14229     14212     14220     14221
     14212     14220     14222     14212     14220     14223     14221     14220     14222
     14221     14220     14223     14222     14220     14223     14220     14223     14224
     14223     14224     14225     14223     14224     14226     14225     14224     14226
     14224     14226     14227     14224     14226     14228     14224     14226     14276
     14227     14226     14228     14227     14226     14276     14228     14226     14276
     14217     14229     14230     14217     14229     14231     14217     14229     14232
     14230     14229     14231     14230     14229     14232     14231     14229     14232
     14229     14232     14233     14229     14232     14234     14229     14232     14235
     14233     14232     14234     14233     14232     14235     14234     14232     14235
     14232     14235     14236     14232     14235     14237     14232     14235     14238
     14236     14235     14237     14236     14235     14238     14237     14235     14238
     14235     14238     14239     14235     14238     14240     14235     14238     14241
     14239     14238     14240     14239     14238     14241     14240     14238     14241
     14238     14241     14242     14238     14241     14243     14238     14241     14244
     14242     14241     14243     14242     14241     14244     14243     14241     14244
     14241     14244     14245     14241     14244     14246     14241     14244     14247
     14245     14244     14246     14245     14244     14247     14246     14244     14247
     14244     14247     14248     14244     14247     14249     14248     14247     14249
     14247     14249     14250     14247     14249     14251     14250     14249     14251
     14249     14251     14252     14249     14251     14253     14249     14251     14254
     14252     14251     14253     14252     14251     14254     14253     14251     14254
     14251     14254     14255     14251     14254     14256     14251     14254     14257
     14255     14254     14256     14255     14254     14257     14256     14254     14257
     14254     14257     14258     14254     14257     14259     14254     14257     14260
     14258     14257     14259     14258     14257     14260     14259     14257     14260
     14257     14260     14261     14257     14260     14262     14257     14260     14263
     14261     14260     14262     14261     14260     14263     14262     14260     14263
     14260     14263     14264     14260     14263     14265     14260     14263     14266
     14264     14263     14265     14264     14263     14266     14265     14263     14266
     14263     14266     14267     14263     14266     14268     14263     14266     14269
     14267     14266     14268     14267     14266     14269     14268     14266     14269
     14266     14269     14270     14266     14269     14271     14266     14269     14272
     14270     14269     14271     14270     14269     14272     14271     14269     14272
     14269     14272     14273     14269     14272     14274     14269     14272     14275
     14273     14272     14274     14273     14272     14275     14274     14272     14275
     14226     14276     14277     14226     14276     14278     14226     14276     14279
     14277     14276     14278     14277     14276     14279     14278     14276     14279
     14276     14279     14280     14276     14279     14281     14276     14279     14282
     14280     14279     14281     14280     14279     14282     14281     14279     14282
     14279     14282     14283     14279     14282     14284     14279     14282     14285
     14283     14282     14284     14283     14282     14285     14284     14282     14285
     14282     14285     14286     14282     14285     14287     14282     14285     14288
     14286     14285     14287     14286     14285     14288     14287     14285     14288
     14285     14288     14289     14285     14288     14290     14285     14288     14291
     14289     14288     14290     14289     14288     14291     14290     14288     14291
     14288     14291     14292     14288     14291     14293     14288     14291     14294
     14292     14291     14293     14292     14291     14294     14293     14291     14294
     14291     14294     14295     14291     14294     14296     14291     14294     14297
     14295     14294     14296     14295     14294     14297     14296     14294     14297
     14294     14297     14298     14294     14297     14299     14294     14297     14300
     14298     14297     14299     14298     14297     14300     14299     14297     14300
     14297     14300     14301     14297     14300     14302     14297     14300     14303
     14301     14300     14302     14301     14300     14303     14302     14300     14303
     14300     14303     14304     14300     14303     14305     14300     14303     14306
     14304     14303     14305     14304     14303     14306     14305     14303     14306
     14303     14306     14307     14303     14306     14308     14303     14306     14309
     14307     14306     14308     14307     14306     14309     14308     14306     14309
     14306     14309     14310     14306     14309     14311     14306     14309     14312
     14310     14309     14311     14310     14309     14312     14311     14309     14312
     14309     14312     14313     14309     14312     14314     14309     14312     14315
     14313     14312     14314     14313     14312     14315     14314     14312     14315
     14312     14315     14316     14312     14315     14317     14312     14315     14318
     14316     14315     14317     14316     14315     14318     14317     14315     14318
     14320     14319     14323     14320     14319     14327     14320     14319     14331
     14323     14319     14327     14323     14319     14331     14327     14319     14331
     14319     14320     14321     14319     14320     14322     14319     14320     14335
     14321     14320     14322     14321     14320     14335     14322     14320     14335
     14319     14323     14324     14319     14323     14325     14319     14323     14326
     14324     14323     14325     14324     14323     14326     14325     14323     14326
     14319     14327     14328     14319     14327     14329     14319     14327     14330
     14328     14327     14329     14328     14327     14330     14329     14327     14330
     14319     14331     14332     14319     14331     14333     14319     14331     14334
     14332     14331     14333     14332     14331     14334     14333     14331     14334
     14320     14335     14336     14320     14335     14337     14320     14335     14341
     14336     14335     14337     14336     14335     14341     14337     14335     14341
     14339     14338     14340     14339     14338     14341     14339     14338     14342
     14340     14338     14341     14340     14338     14342     14341     14338     14342
     14335     14341     14338     14338     14342     14343     14342     14343     14344
     14342     14343     14345     14342     14343     14346     14344     14343     14345
     14344     14343     14346     14345     14343     14346     14343     14346     14347
     14343     14346     14348     14343     14346     14354     14347     14346     14348
     14347     14346     14354     14348     14346     14354     14346     14348     14349
     14348     14349     14350     14348     14349     14351     14350     14349     14351
     14349     14351     14352     14349     14351     14353     14349     14351     14363
     14352     14351     14353     14352     14351     14363     14353     14351     14363
     14346     14354     14355     14346     14354     14356     14346     14354     14357
     14355     14354     14356     14355     14354     14357     14356     14354     14357
     14354     14357     14358     14357     14358     14359     14357     14358     14360
     14359     14358     14360     14358     14360     14361     14358     14360     14362
     14358     14360     14410     14361     14360     14362     14361     14360     14410
     14362     14360     14410     14351     14363     14364     14351     14363     14365
     14351     14363     14366     14364     14363     14365     14364     14363     14366
     14365     14363     14366     14363     14366     14367     14363     14366     14368
     14363     14366     14369     14367     14366     14368     14367     14366     14369
     14368     14366     14369     14366     14369     14370     14366     14369     14371
     14366     14369     14372     14370     14369     14371     14370     14369     14372
     14371     14369     14372     14369     14372     14373     14369     14372     14374
     14369     14372     14375     14373     14372     14374     14373     14372     14375
     14374     14372     14375     14372     14375     14376     14372     14375     14377
     14372     14375     14378     14376     14375     14377     14376     14375     14378
     14377     14375     14378     14375     14378     14379     14375     14378     14380
     14375     14378     14381     14379     14378     14380     14379     14378     14381
     14380     14378     14381     14378     14381     14382     14378     14381     14383
     14382     14381     14383     14381     14383     14384     14381     14383     14385
     14384     14383     14385     14383     14385     14386     14383     14385     14387
     14383     14385     14388     14386     14385     14387     14386     14385     14388
     14387     14385     14388     14385     14388     14389     14385     14388     14390
     14385     14388     14391     14389     14388     14390     14389     14388     14391
     14390     14388     14391     14388     14391     14392     14388     14391     14393
     14388     14391     14394     14392     14391     14393     14392     14391     14394
     14393     14391     14394     14391     14394     14395     14391     14394     14396
     14391     14394     14397     14395     14394     14396     14395     14394     14397
     14396     14394     14397     14394     14397     14398     14394     14397     14399
     14394     14397     14400     14398     14397     14399     14398     14397     14400
     14399     14397     14400     14397     14400     14401     14397     14400     14402
     14397     14400     14403     14401     14400     14402     14401     14400     14403
     14402     14400     14403     14400     14403     14404     14400     14403     14405
     14400     14403     14406     14404     14403     14405     14404     14403     14406
     14405     14403     14406     14403     14406     14407     14403     14406     14408
     14403     14406     14409     14407     14406     14408     14407     14406     14409
     14408     14406     14409     14360     14410     14411     14360     14410     14412
     14360     14410     14413     14411     14410     14412     14411     14410     14413
     14412     14410     14413     14410     14413     14414     14410     14413     14415
     14410     14413     14416     14414     14413     14415     14414     14413     14416
     14415     14413     14416     14413     14416     14417     14413     14416     14418
     14413     14416     14419     14417     14416     14418     14417     14416     14419
     14418     14416     14419     14416     14419     14420     14416     14419     14421
     14416     14419     14422     14420     14419     14421     14420     14419     14422
     14421     14419     14422     14419     14422     14423     14419     14422     14424
     14419     14422     14425     14423     14422     14424     14423     14422     14425
     14424     14422     14425     14422     14425     14426     14422     14425     14427
     14422     14425     14428     14426     14425     14427     14426     14425     14428
     14427     14425     14428     14425     14428     14429     14425     14428     14430
     14425     14428     14431     14429     14428     14430     14429     14428     14431
     14430     14428     14431     14428     14431     14432     14428     14431     14433
     14428     14431     14434     14432     14431     14433     14432     14431     14434
     14433     14431     14434     14431     14434     14435     14431     14434     14436
     14431     14434     14437     14435     14434     14436     14435     14434     14437
     14436     14434     14437     14434     14437     14438     14434     14437     14439
     14434     14437     14440     14438     14437     14439     14438     14437     14440
     14439     14437     14440     14437     14440     14441     14437     14440     14442
     14437     14440     14443     14441     14440     14442     14441     14440     14443
     14442     14440     14443     14440     14443     14444     14440     14443     14445
     14440     14443     14446     14444     14443     14445     14444     14443     14446
     14445     14443     14446     14443     14446     14447     14443     14446     14448
     14443     14446     14449     14447     14446     14448     14447     14446     14449
     14448     14446     14449     14446     14449     14450     14446     14449     14451
     14446     14449     14452     14450     14449     14451     14450     14449     14452
     14451     14449     14452     14454     14453     14457     14454     14453     14461
     14454     14453     14465     14457     14453     14461     14457     14453     14465
     14461     14453     14465     14453     14454     14455     14453     14454     14456
     14453     14454     14469     14455     14454     14456     14455     14454     14469
     14456     14454     14469     14453     14457     14458     14453     14457     14459
     14453     14457     14460     14458     14457     14459     14458     14457     14460
     14459     14457     14460     14453     14461     14462     14453     14461     14463
     14453     14461     14464     14462     14461     14463     14462     14461     14464
     14463     14461     14464     14453     14465     14466     14453     14465     14467
     14453     14465     14468     14466     14465     14467     14466     14465     14468
     14467     14465     14468     14454     14469     14470     14454     14469     14471
     14454     14469     14475     14470     14469     14471     14470     14469     14475
     14471     14469     14475     14473     14472     14474     14473     14472     14475
     14473     14472     14476     14474     14472     14475     14474     14472     14476
     14475     14472     14476     14469     14475     14472     14472     14476     14477
     14476     14477     14478     14476     14477     14479     14476     14477     14480
     14478     14477     14479     14478     14477     14480     14479     14477     14480
     14477     14480     14481     14477     14480     14482     14477     14480     14488
     14481     14480     14482     14481     14480     14488     14482     14480     14488
     14480     14482     14483     14482     14483     14484     14482     14483     14485
     14484     14483     14485     14483     14485     14486     14483     14485     14487
     14483     14485     14497     14486     14485     14487     14486     14485     14497
     14487     14485     14497     14480     14488     14489     14480     14488     14490
     14480     14488     14491     14489     14488     14490     14489     14488     14491
     14490     14488     14491     14488     14491     14492     14491     14492     14493
     14491     14492     14494     14493     14492     14494     14492     14494     14495
     14492     14494     14496     14492     14494     14544     14495     14494     14496
     14495     14494     14544     14496     14494     14544     14485     14497     14498
     14485     14497     14499     14485     14497     14500     14498     14497     14499
     14498     14497     14500     14499     14497     14500     14497     14500     14501
     14497     14500     14502     14497     14500     14503     14501     14500     14502
     14501     14500     14503     14502     14500     14503     14500     14503     14504
     14500     14503     14505     14500     14503     14506     14504     14503     14505
     14504     14503     14506     14505     14503     14506     14503     14506     14507
     14503     14506     14508     14503     14506     14509     14507     14506     14508
     14507     14506     14509     14508     14506     14509     14506     14509     14510
     14506     14509     14511     14506     14509     14512     14510     14509     14511
     14510     14509     14512     14511     14509     14512     14509     14512     14513
     14509     14512     14514     14509     14512     14515     14513     14512     14514
     14513     14512     14515     14514     14512     14515     14512     14515     14516
     14512     14515     14517     14516     14515     14517     14515     14517     14518
     14515     14517     14519     14518     14517     14519     14517     14519     14520
     14517     14519     14521     14517     14519     14522     14520     14519     14521
     14520     14519     14522     14521     14519     14522     14519     14522     14523
     14519     14522     14524     14519     14522     14525     14523     14522     14524
     14523     14522     14525     14524     14522     14525     14522     14525     14526
     14522     14525     14527     14522     14525     14528     14526     14525     14527
     14526     14525     14528     14527     14525     14528     14525     14528     14529
     14525     14528     14530     14525     14528     14531     14529     14528     14530
     14529     14528     14531     14530     14528     14531     14528     14531     14532
     14528     14531     14533     14528     14531     14534     14532     14531     14533
     14532     14531     14534     14533     14531     14534     14531     14534     14535
     14531     14534     14536     14531     14534     14537     14535     14534     14536
     14535     14534     14537     14536     14534     14537     14534     14537     14538
     14534     14537     14539     14534     14537     14540     14538     14537     14539
     14538     14537     14540     14539     14537     14540     14537     14540     14541
     14537     14540     14542     14537     14540     14543     14541     14540     14542
     14541     14540     14543     14542     14540     14543     14494     14544     14545
     14494     14544     14546     14494     14544     14547     14545     14544     14546
     14545     14544     14547     14546     14544     14547     14544     14547     14548
     14544     14547     14549     14544     14547     14550     14548     14547     14549
     14548     14547     14550     14549     14547     14550     14547     14550     14551
     14547     14550     14552     14547     14550     14553     14551     14550     14552
     14551     14550     14553     14552     14550     14553     14550     14553     14554
     14550     14553     14555     14550     14553     14556     14554     14553     14555
     14554     14553     14556     14555     14553     14556     14553     14556     14557
     14553     14556     14558     14553     14556     14559     14557     14556     14558
     14557     14556     14559     14558     14556     14559     14556     14559     14560
     14556     14559     14561     14556     14559     14562     14560     14559     14561
     14560     14559     14562     14561     14559     14562     14559     14562     14563
     14559     14562     14564     14559     14562     14565     14563     14562     14564
     14563     14562     14565     14564     14562     14565     14562     14565     14566
     14562     14565     14567     14562     14565     14568     14566     14565     14567
     14566     14565     14568     14567     14565     14568     14565     14568     14569
     14565     14568     14570     14565     14568     14571     14569     14568     14570
     14569     14568     14571     14570     14568     14571     14568     14571     14572
     14568     14571     14573     14568     14571     14574     14572     14571     14573
     14572     14571     14574     14573     14571     14574     14571     14574     14575
     14571     14574     14576     14571     14574     14577     14575     14574     14576
     14575     14574     14577     14576     14574     14577     14574     14577     14578
     14574     14577     14579     14574     14577     14580     14578     14577     14579
     14578     14577     14580     14579     14577     14580     14577     14580     14581
     14577     14580     14582     14577     14580     14583     14581     14580     14582
     14581     14580     14583     14582     14580     14583     14580     14583     14584
     14580     14583     14585     14580     14583     14586     14584     14583     14585
     14584     14583     14586     14585     14583     14586     14588     14587     14591
     14588     14587     14595     14588     14587     14599     14591     14587     14595
     14591     14587     14599     14595     14587     14599     14587     14588     14589
     14587     14588     14590     14587     14588     14603     14589     14588     14590
     14589     14588     14603     14590     14588     14603     14587     14591     14592
     14587     14591     14593     14587     14591     14594     14592     14591     14593
     14592     14591     14594     14593     14591     14594     14587     14595     14596
     14587     14595     14597     14587     14595     14598     14596     14595     14597
     14596     14595     14598     14597     14595     14598     14587     14599     14600
     14587     14599     14601     14587     14599     14602     14600     14599     14601
     14600     14599     14602     14601     14599     14602     14588     14603     14604
     14588     14603     14605     14588     14603     14609     14604     14603     14605
     14604     14603     14609     14605     14603     14609     14607     14606     14608
     14607     14606     14609     14607     14606     14610     14608     14606     14609
     14608     14606     14610     14609     14606     14610     14603     14609     14606
     14606     14610     14611     14610     14611     14612     14610     14611     14613
     14610     14611     14614     14612     14611     14613     14612     14611     14614
     14613     14611     14614     14611     14614     14615     14611     14614     14616
     14611     14614     14622     14615     14614     14616     14615     14614     14622
     14616     14614     14622     14614     14616     14617     14616     14617     14618
     14616     14617     14619     14618     14617     14619     14617     14619     14620
     14617     14619     14621     14617     14619     14631     14620     14619     14621
     14620     14619     14631     14621     14619     14631     14614     14622     14623
     14614     14622     14624     14614     14622     14625     14623     14622     14624
     14623     14622     14625     14624     14622     14625     14622     14625     14626
     14625     14626     14627     14625     14626     14628     14627     14626     14628
     14626     14628     14629     14626     14628     14630     14626     14628     14678
     14629     14628     14630     14629     14628     14678     14630     14628     14678
     14619     14631     14632     14619     14631     14633     14619     14631     14634
     14632     14631     14633     14632     14631     14634     14633     14631     14634
     14631     14634     14635     14631     14634     14636     14631     14634     14637
     14635     14634     14636     14635     14634     14637     14636     14634     14637
     14634     14637     14638     14634     14637     14639     14634     14637     14640
     14638     14637     14639     14638     14637     14640     14639     14637     14640
     14637     14640     14641     14637     14640     14642     14637     14640     14643
     14641     14640     14642     14641     14640     14643     14642     14640     14643
     14640     14643     14644     14640     14643     14645     14640     14643     14646
     14644     14643     14645     14644     14643     14646     14645     14643     14646
     14643     14646     14647     14643     14646     14648     14643     14646     14649
     14647     14646     14648     14647     14646     14649     14648     14646     14649
     14646     14649     14650     14646     14649     14651     14650     14649     14651
     14649     14651     14652     14649     14651     14653     14652     14651     14653
     14651     14653     14654     14651     14653     14655     14651     14653     14656
     14654     14653     14655     14654     14653     14656     14655     14653     14656
     14653     14656     14657     14653     14656     14658     14653     14656     14659
     14657     14656     14658     14657     14656     14659     14658     14656     14659
     14656     14659     14660     14656     14659     14661     14656     14659     14662
     14660     14659     14661     14660     14659     14662     14661     14659     14662
     14659     14662     14663     14659     14662     14664     14659     14662     14665
     14663     14662     14664     14663     14662     14665     14664     14662     14665
     14662     14665     14666     14662     14665     14667     14662     14665     14668
     14666     14665     14667     14666     14665     14668     14667     14665     14668
     14665     14668     14669     14665     14668     14670     14665     14668     14671
     14669     14668     14670     14669     14668     14671     14670     14668     14671
     14668     14671     14672     14668     14671     14673     14668     14671     14674
     14672     14671     14673     14672     14671     14674     14673     14671     14674
     14671     14674     14675     14671     14674     14676     14671     14674     14677
     14675     14674     14676     14675     14674     14677     14676     14674     14677
     14628     14678     14679     14628     14678     14680     14628     14678     14681
     14679     14678     14680     14679     14678     14681     14680     14678     14681
     14678     14681     14682     14678     14681     14683     14678     14681     14684
     14682     14681     14683     14682     14681     14684     14683     14681     14684
     14681     14684     14685     14681     14684     14686     14681     14684     14687
     14685     14684     14686     14685     14684     14687     14686     14684     14687
     14684     14687     14688     14684     14687     14689     14684     14687     14690
     14688     14687     14689     14688     14687     14690     14689     14687     14690
     14687     14690     14691     14687     14690     14692     14687     14690     14693
     14691     14690     14692     14691     14690     14693     14692     14690     14693
     14690     14693     14694     14690     14693     14695     14690     14693     14696
     14694     14693     14695     14694     14693     14696     14695     14693     14696
     14693     14696     14697     14693     14696     14698     14693     14696     14699
     14697     14696     14698     14697     14696     14699     14698     14696     14699
     14696     14699     14700     14696     14699     14701     14696     14699     14702
     14700     14699     14701     14700     14699     14702     14701     14699     14702
     14699     14702     14703     14699     14702     14704     14699     14702     14705
     14703     14702     14704     14703     14702     14705     14704     14702     14705
     14702     14705     14706     14702     14705     14707     14702     14705     14708
     14706     14705     14707     14706     14705     14708     14707     14705     14708
     14705     14708     14709     14705     14708     14710     14705     14708     14711
     14709     14708     14710     14709     14708     14711     14710     14708     14711
     14708     14711     14712     14708     14711     14713     14708     14711     14714
     14712     14711     14713     14712     14711     14714     14713     14711     14714
     14711     14714     14715     14711     14714     14716     14711     14714     14717
     14715     14714     14716     14715     14714     14717     14716     14714     14717
     14714     14717     14718     14714     14717     14719     14714     14717     14720
     14718     14717     14719     14718     14717     14720     14719     14717     14720
     14722     14721     14725     14722     14721     14729     14722     14721     14733
     14725     14721     14729     14725     14721     14733     14729     14721     14733
     14721     14722     14723     14721     14722     14724     14721     14722     14737
     14723     14722     14724     14723     14722     14737     14724     14722     14737
     14721     14725     14726     14721     14725     14727     14721     14725     14728
     14726     14725     14727     14726     14725     14728     14727     14725     14728
     14721     14729     14730     14721     14729     14731     14721     14729     14732
     14730     14729     14731     14730     14729     14732     14731     14729     14732
     14721     14733     14734     14721     14733     14735     14721     14733     14736
     14734     14733     14735     14734     14733     14736     14735     14733     14736
     14722     14737     14738     14722     14737     14739     14722     14737     14743
     14738     14737     14739     14738     14737     14743     14739     14737     14743
     14741     14740     14742     14741     14740     14743     14741     14740     14744
     14742     14740     14743     14742     14740     14744     14743     14740     14744
     14737     14743     14740     14740     14744     14745     14744     14745     14746
     14744     14745     14747     14744     14745     14748     14746     14745     14747
     14746     14745     14748     14747     14745     14748     14745     14748     14749
     14745     14748     14750     14745     14748     14756     14749     14748     14750
     14749     14748     14756     14750     14748     14756     14748     14750     14751
     14750     14751     14752     14750     14751     14753     14752     14751     14753
     14751     14753     14754     14751     14753     14755     14751     14753     14765
     14754     14753     14755     14754     14753     14765     14755     14753     14765
     14748     14756     14757     14748     14756     14758     14748     14756     14759
     14757     14756     14758     14757     14756     14759     14758     14756     14759
     14756     14759     14760     14759     14760     14761     14759     14760     14762
     14761     14760     14762     14760     14762     14763     14760     14762     14764
     14760     14762     14812     14763     14762     14764     14763     14762     14812
     14764     14762     14812     14753     14765     14766     14753     14765     14767
     14753     14765     14768     14766     14765     14767     14766     14765     14768
     14767     14765     14768     14765     14768     14769     14765     14768     14770
     14765     14768     14771     14769     14768     14770     14769     14768     14771
     14770     14768     14771     14768     14771     14772     14768     14771     14773
     14768     14771     14774     14772     14771     14773     14772     14771     14774
     14773     14771     14774     14771     14774     14775     14771     14774     14776
     14771     14774     14777     14775     14774     14776     14775     14774     14777
     14776     14774     14777     14774     14777     14778     14774     14777     14779
     14774     14777     14780     14778     14777     14779     14778     14777     14780
     14779     14777     14780     14777     14780     14781     14777     14780     14782
     14777     14780     14783     14781     14780     14782     14781     14780     14783
     14782     14780     14783     14780     14783     14784     14780     14783     14785
     14784     14783     14785     14783     14785     14786     14783     14785     14787
     14786     14785     14787     14785     14787     14788     14785     14787     14789
     14785     14787     14790     14788     14787     14789     14788     14787     14790
     14789     14787     14790     14787     14790     14791     14787     14790     14792
     14787     14790     14793     14791     14790     14792     14791     14790     14793
     14792     14790     14793     14790     14793     14794     14790     14793     14795
     14790     14793     14796     14794     14793     14795     14794     14793     14796
     14795     14793     14796     14793     14796     14797     14793     14796     14798
     14793     14796     14799     14797     14796     14798     14797     14796     14799
     14798     14796     14799     14796     14799     14800     14796     14799     14801
     14796     14799     14802     14800     14799     14801     14800     14799     14802
     14801     14799     14802     14799     14802     14803     14799     14802     14804
     14799     14802     14805     14803     14802     14804     14803     14802     14805
     14804     14802     14805     14802     14805     14806     14802     14805     14807
     14802     14805     14808     14806     14805     14807     14806     14805     14808
     14807     14805     14808     14805     14808     14809     14805     14808     14810
     14805     14808     14811     14809     14808     14810     14809     14808     14811
     14810     14808     14811     14762     14812     14813     14762     14812     14814
     14762     14812     14815     14813     14812     14814     14813     14812     14815
     14814     14812     14815     14812     14815     14816     14812     14815     14817
     14812     14815     14818     14816     14815     14817     14816     14815     14818
     14817     14815     14818     14815     14818     14819     14815     14818     14820
     14815     14818     14821     14819     14818     14820     14819     14818     14821
     14820     14818     14821     14818     14821     14822     14818     14821     14823
     14818     14821     14824     14822     14821     14823     14822     14821     14824
     14823     14821     14824     14821     14824     14825     14821     14824     14826
     14821     14824     14827     14825     14824     14826     14825     14824     14827
     14826     14824     14827     14824     14827     14828     14824     14827     14829
     14824     14827     14830     14828     14827     14829     14828     14827     14830
     14829     14827     14830     14827     14830     14831     14827     14830     14832
     14827     14830     14833     14831     14830     14832     14831     14830     14833
     14832     14830     14833     14830     14833     14834     14830     14833     14835
     14830     14833     14836     14834     14833     14835     14834     14833     14836
     14835     14833     14836     14833     14836     14837     14833     14836     14838
     14833     14836     14839     14837     14836     14838     14837     14836     14839
     14838     14836     14839     14836     14839     14840     14836     14839     14841
     14836     14839     14842     14840     14839     14841     14840     14839     14842
     14841     14839     14842     14839     14842     14843     14839     14842     14844
     14839     14842     14845     14843     14842     14844     14843     14842     14845
     14844     14842     14845     14842     14845     14846     14842     14845     14847
     14842     14845     14848     14846     14845     14847     14846     14845     14848
     14847     14845     14848     14845     14848     14849     14845     14848     14850
     14845     14848     14851     14849     14848     14850     14849     14848     14851
     14850     14848     14851     14848     14851     14852     14848     14851     14853
     14848     14851     14854     14852     14851     14853     14852     14851     14854
     14853     14851     14854     14856     14855     14859     14856     14855     14863
     14856     14855     14867     14859     14855     14863     14859     14855     14867
     14863     14855     14867     14855     14856     14857     14855     14856     14858
     14855     14856     14871     14857     14856     14858     14857     14856     14871
     14858     14856     14871     14855     14859     14860     14855     14859     14861
     14855     14859     14862     14860     14859     14861     14860     14859     14862
     14861     14859     14862     14855     14863     14864     14855     14863     14865
     14855     14863     14866     14864     14863     14865     14864     14863     14866
     14865     14863     14866     14855     14867     14868     14855     14867     14869
     14855     14867     14870     14868     14867     14869     14868     14867     14870
     14869     14867     14870     14856     14871     14872     14856     14871     14873
     14856     14871     14877     14872     14871     14873     14872     14871     14877
     14873     14871     14877     14875     14874     14876     14875     14874     14877
     14875     14874     14878     14876     14874     14877     14876     14874     14878
     14877     14874     14878     14871     14877     14874     14874     14878     14879
     14878     14879     14880     14878     14879     14881     14878     14879     14882
     14880     14879     14881     14880     14879     14882     14881     14879     14882
     14879     14882     14883     14879     14882     14884     14879     14882     14890
     14883     14882     14884     14883     14882     14890     14884     14882     14890
     14882     14884     14885     14884     14885     14886     14884     14885     14887
     14886     14885     14887     14885     14887     14888     14885     14887     14889
     14885     14887     14899     14888     14887     14889     14888     14887     14899
     14889     14887     14899     14882     14890     14891     14882     14890     14892
     14882     14890     14893     14891     14890     14892     14891     14890     14893
     14892     14890     14893     14890     14893     14894     14893     14894     14895
     14893     14894     14896     14895     14894     14896     14894     14896     14897
     14894     14896     14898     14894     14896     14946     14897     14896     14898
     14897     14896     14946     14898     14896     14946     14887     14899     14900
     14887     14899     14901     14887     14899     14902     14900     14899     14901
     14900     14899     14902     14901     14899     14902     14899     14902     14903
     14899     14902     14904     14899     14902     14905     14903     14902     14904
     14903     14902     14905     14904     14902     14905     14902     14905     14906
     14902     14905     14907     14902     14905     14908     14906     14905     14907
     14906     14905     14908     14907     14905     14908     14905     14908     14909
     14905     14908     14910     14905     14908     14911     14909     14908     14910
     14909     14908     14911     14910     14908     14911     14908     14911     14912
     14908     14911     14913     14908     14911     14914     14912     14911     14913
     14912     14911     14914     14913     14911     14914     14911     14914     14915
     14911     14914     14916     14911     14914     14917     14915     14914     14916
     14915     14914     14917     14916     14914     14917     14914     14917     14918
     14914     14917     14919     14918     14917     14919     14917     14919     14920
     14917     14919     14921     14920     14919     14921     14919     14921     14922
     14919     14921     14923     14919     14921     14924     14922     14921     14923
     14922     14921     14924     14923     14921     14924     14921     14924     14925
     14921     14924     14926     14921     14924     14927     14925     14924     14926
     14925     14924     14927     14926     14924     14927     14924     14927     14928
     14924     14927     14929     14924     14927     14930     14928     14927     14929
     14928     14927     14930     14929     14927     14930     14927     14930     14931
     14927     14930     14932     14927     14930     14933     14931     14930     14932
     14931     14930     14933     14932     14930     14933     14930     14933     14934
     14930     14933     14935     14930     14933     14936     14934     14933     14935
     14934     14933     14936     14935     14933     14936     14933     14936     14937
     14933     14936     14938     14933     14936     14939     14937     14936     14938
     14937     14936     14939     14938     14936     14939     14936     14939     14940
     14936     14939     14941     14936     14939     14942     14940     14939     14941
     14940     14939     14942     14941     14939     14942     14939     14942     14943
     14939     14942     14944     14939     14942     14945     14943     14942     14944
     14943     14942     14945     14944     14942     14945     14896     14946     14947
     14896     14946     14948     14896     14946     14949     14947     14946     14948
     14947     14946     14949     14948     14946     14949     14946     14949     14950
     14946     14949     14951     14946     14949     14952     14950     14949     14951
     14950     14949     14952     14951     14949     14952     14949     14952     14953
     14949     14952     14954     14949     14952     14955     14953     14952     14954
     14953     14952     14955     14954     14952     14955     14952     14955     14956
     14952     14955     14957     14952     14955     14958     14956     14955     14957
     14956     14955     14958     14957     14955     14958     14955     14958     14959
     14955     14958     14960     14955     14958     14961     14959     14958     14960
     14959     14958     14961     14960     14958     14961     14958     14961     14962
     14958     14961     14963     14958     14961     14964     14962     14961     14963
     14962     14961     14964     14963     14961     14964     14961     14964     14965
     14961     14964     14966     14961     14964     14967     14965     14964     14966
     14965     14964     14967     14966     14964     14967     14964     14967     14968
     14964     14967     14969     14964     14967     14970     14968     14967     14969
     14968     14967     14970     14969     14967     14970     14967     14970     14971
     14967     14970     14972     14967     14970     14973     14971     14970     14972
     14971     14970     14973     14972     14970     14973     14970     14973     14974
     14970     14973     14975     14970     14973     14976     14974     14973     14975
     14974     14973     14976     14975     14973     14976     14973     14976     14977
     14973     14976     14978     14973     14976     14979     14977     14976     14978
     14977     14976     14979     14978     14976     14979     14976     14979     14980
     14976     14979     14981     14976     14979     14982     14980     14979     14981
     14980     14979     14982     14981     14979     14982     14979     14982     14983
     14979     14982     14984     14979     14982     14985     14983     14982     14984
     14983     14982     14985     14984     14982     14985     14982     14985     14986
     14982     14985     14987     14982     14985     14988     14986     14985     14987
     14986     14985     14988     14987     14985     14988     14990     14989     14991
     14990     14989     14992     14990     14989     14993     14991     14989     14992
     14991     14989     14993     14992     14989     14993     14989     14993     14994
     14989     14993     14995     14989     14993     14998     14994     14993     14995
     14994     14993     14998     14995     14993     14998     14993     14995     14996
     14993     14995     14997     14996     14995     14997     14993     14998     14999
     14993     14998     15000     14993     14998     15004     14999     14998     15000
     14999     14998     15004     15000     14998     15004     15002     15001     15003
     15002     15001     15004     15002     15001     15005     15003     15001     15004
     15003     15001     15005     15004     15001     15005     14998     15004     15001
     15001     15005     15006     15005     15006     15007     15005     15006     15008
     15005     15006     15009     15007     15006     15008     15007     15006     15009
     15008     15006     15009     15006     15009     15010     15006     15009     15011
     15006     15009     15017     15010     15009     15011     15010     15009     15017
     15011     15009     15017     15009     15011     15012     15011     15012     15013
     15011     15012     15014     15013     15012     15014     15012     15014     15015
     15012     15014     15016     15012     15014     15026     15015     15014     15016
     15015     15014     15026     15016     15014     15026     15009     15017     15018
     15009     15017     15019     15009     15017     15020     15018     15017     15019
     15018     15017     15020     15019     15017     15020     15017     15020     15021
     15020     15021     15022     15020     15021     15023     15022     15021     15023
     15021     15023     15024     15021     15023     15025     15021     15023     15073
     15024     15023     15025     15024     15023     15073     15025     15023     15073
     15014     15026     15027     15014     15026     15028     15014     15026     15029
     15027     15026     15028     15027     15026     15029     15028     15026     15029
     15026     15029     15030     15026     15029     15031     15026     15029     15032
     15030     15029     15031     15030     15029     15032     15031     15029     15032
     15029     15032     15033     15029     15032     15034     15029     15032     15035
     15033     15032     15034     15033     15032     15035     15034     15032     15035
     15032     15035     15036     15032     15035     15037     15032     15035     15038
     15036     15035     15037     15036     15035     15038     15037     15035     15038
     15035     15038     15039     15035     15038     15040     15035     15038     15041
     15039     15038     15040     15039     15038     15041     15040     15038     15041
     15038     15041     15042     15038     15041     15043     15038     15041     15044
     15042     15041     15043     15042     15041     15044     15043     15041     15044
     15041     15044     15045     15041     15044     15046     15045     15044     15046
     15044     15046     15047     15044     15046     15048     15047     15046     15048
     15046     15048     15049     15046     15048     15050     15046     15048     15051
     15049     15048     15050     15049     15048     15051     15050     15048     15051
     15048     15051     15052     15048     15051     15053     15048     15051     15054
     15052     15051     15053     15052     15051     15054     15053     15051     15054
     15051     15054     15055     15051     15054     15056     15051     15054     15057
     15055     15054     15056     15055     15054     15057     15056     15054     15057
     15054     15057     15058     15054     15057     15059     15054     15057     15060
     15058     15057     15059     15058     15057     15060     15059     15057     15060
     15057     15060     15061     15057     15060     15062     15057     15060     15063
     15061     15060     15062     15061     15060     15063     15062     15060     15063
     15060     15063     15064     15060     15063     15065     15060     15063     15066
     15064     15063     15065     15064     15063     15066     15065     15063     15066
     15063     15066     15067     15063     15066     15068     15063     15066     15069
     15067     15066     15068     15067     15066     15069     15068     15066     15069
     15066     15069     15070     15066     15069     15071     15066     15069     15072
     15070     15069     15071     15070     15069     15072     15071     15069     15072
     15023     15073     15074     15023     15073     15075     15023     15073     15076
     15074     15073     15075     15074     15073     15076     15075     15073     15076
     15073     15076     15077     15073     15076     15078     15073     15076     15079
     15077     15076     15078     15077     15076     15079     15078     15076     15079
     15076     15079     15080     15076     15079     15081     15076     15079     15082
     15080     15079     15081     15080     15079     15082     15081     15079     15082
     15079     15082     15083     15079     15082     15084     15079     15082     15085
     15083     15082     15084     15083     15082     15085     15084     15082     15085
     15082     15085     15086     15082     15085     15087     15082     15085     15088
     15086     15085     15087     15086     15085     15088     15087     15085     15088
     15085     15088     15089     15085     15088     15090     15085     15088     15091
     15089     15088     15090     15089     15088     15091     15090     15088     15091
     15088     15091     15092     15088     15091     15093     15088     15091     15094
     15092     15091     15093     15092     15091     15094     15093     15091     15094
     15091     15094     15095     15091     15094     15096     15091     15094     15097
     15095     15094     15096     15095     15094     15097     15096     15094     15097
     15094     15097     15098     15094     15097     15099     15094     15097     15100
     15098     15097     15099     15098     15097     15100     15099     15097     15100
     15097     15100     15101     15097     15100     15102     15097     15100     15103
     15101     15100     15102     15101     15100     15103     15102     15100     15103
     15100     15103     15104     15100     15103     15105     15100     15103     15106
     15104     15103     15105     15104     15103     15106     15105     15103     15106
     15103     15106     15107     15103     15106     15108     15103     15106     15109
     15107     15106     15108     15107     15106     15109     15108     15106     15109
     15106     15109     15110     15106     15109     15111     15106     15109     15112
     15110     15109     15111     15110     15109     15112     15111     15109     15112
     15109     15112     15113     15109     15112     15114     15109     15112     15115
     15113     15112     15114     15113     15112     15115     15114     15112     15115
     15117     15116     15120     15117     15116     15124     15117     15116     15128
     15120     15116     15124     15120     15116     15128     15124     15116     15128
     15116     15117     15118     15116     15117     15119     15116     15117     15132
     15118     15117     15119     15118     15117     15132     15119     15117     15132
     15116     15120     15121     15116     15120     15122     15116     15120     15123
     15121     15120     15122     15121     15120     15123     15122     15120     15123
     15116     15124     15125     15116     15124     15126     15116     15124     15127
     15125     15124     15126     15125     15124     15127     15126     15124     15127
     15116     15128     15129     15116     15128     15130     15116     15128     15131
     15129     15128     15130     15129     15128     15131     15130     15128     15131
     15117     15132     15133     15117     15132     15134     15117     15132     15138
     15133     15132     15134     15133     15132     15138     15134     15132     15138
     15136     15135     15137     15136     15135     15138     15136     15135     15139
     15137     15135     15138     15137     15135     15139     15138     15135     15139
     15132     15138     15135     15135     15139     15140     15139     15140     15141
     15139     15140     15142     15139     15140     15143     15141     15140     15142
     15141     15140     15143     15142     15140     15143     15140     15143     15144
     15140     15143     15145     15140     15143     15151     15144     15143     15145
     15144     15143     15151     15145     15143     15151     15143     15145     15146
     15145     15146     15147     15145     15146     15148     15147     15146     15148
     15146     15148     15149     15146     15148     15150     15146     15148     15160
     15149     15148     15150     15149     15148     15160     15150     15148     15160
     15143     15151     15152     15143     15151     15153     15143     15151     15154
     15152     15151     15153     15152     15151     15154     15153     15151     15154
     15151     15154     15155     15154     15155     15156     15154     15155     15157
     15156     15155     15157     15155     15157     15158     15155     15157     15159
     15155     15157     15207     15158     15157     15159     15158     15157     15207
     15159     15157     15207     15148     15160     15161     15148     15160     15162
     15148     15160     15163     15161     15160     15162     15161     15160     15163
     15162     15160     15163     15160     15163     15164     15160     15163     15165
     15160     15163     15166     15164     15163     15165     15164     15163     15166
     15165     15163     15166     15163     15166     15167     15163     15166     15168
     15163     15166     15169     15167     15166     15168     15167     15166     15169
     15168     15166     15169     15166     15169     15170     15166     15169     15171
     15166     15169     15172     15170     15169     15171     15170     15169     15172
     15171     15169     15172     15169     15172     15173     15169     15172     15174
     15169     15172     15175     15173     15172     15174     15173     15172     15175
     15174     15172     15175     15172     15175     15176     15172     15175     15177
     15172     15175     15178     15176     15175     15177     15176     15175     15178
     15177     15175     15178     15175     15178     15179     15175     15178     15180
     15179     15178     15180     15178     15180     15181     15178     15180     15182
     15181     15180     15182     15180     15182     15183     15180     15182     15184
     15180     15182     15185     15183     15182     15184     15183     15182     15185
     15184     15182     15185     15182     15185     15186     15182     15185     15187
     15182     15185     15188     15186     15185     15187     15186     15185     15188
     15187     15185     15188     15185     15188     15189     15185     15188     15190
     15185     15188     15191     15189     15188     15190     15189     15188     15191
     15190     15188     15191     15188     15191     15192     15188     15191     15193
     15188     15191     15194     15192     15191     15193     15192     15191     15194
     15193     15191     15194     15191     15194     15195     15191     15194     15196
     15191     15194     15197     15195     15194     15196     15195     15194     15197
     15196     15194     15197     15194     15197     15198     15194     15197     15199
     15194     15197     15200     15198     15197     15199     15198     15197     15200
     15199     15197     15200     15197     15200     15201     15197     15200     15202
     15197     15200     15203     15201     15200     15202     15201     15200     15203
     15202     15200     15203     15200     15203     15204     15200     15203     15205
     15200     15203     15206     15204     15203     15205     15204     15203     15206
     15205     15203     15206     15157     15207     15208     15157     15207     15209
     15157     15207     15210     15208     15207     15209     15208     15207     15210
     15209     15207     15210     15207     15210     15211     15207     15210     15212
     15207     15210     15213     15211     15210     15212     15211     15210     15213
     15212     15210     15213     15210     15213     15214     15210     15213     15215
     15210     15213     15216     15214     15213     15215     15214     15213     15216
     15215     15213     15216     15213     15216     15217     15213     15216     15218
     15213     15216     15219     15217     15216     15218     15217     15216     15219
     15218     15216     15219     15216     15219     15220     15216     15219     15221
     15216     15219     15222     15220     15219     15221     15220     15219     15222
     15221     15219     15222     15219     15222     15223     15219     15222     15224
     15219     15222     15225     15223     15222     15224     15223     15222     15225
     15224     15222     15225     15222     15225     15226     15222     15225     15227
     15222     15225     15228     15226     15225     15227     15226     15225     15228
     15227     15225     15228     15225     15228     15229     15225     15228     15230
     15225     15228     15231     15229     15228     15230     15229     15228     15231
     15230     15228     15231     15228     15231     15232     15228     15231     15233
     15228     15231     15234     15232     15231     15233     15232     15231     15234
     15233     15231     15234     15231     15234     15235     15231     15234     15236
     15231     15234     15237     15235     15234     15236     15235     15234     15237
     15236     15234     15237     15234     15237     15238     15234     15237     15239
     15234     15237     15240     15238     15237     15239     15238     15237     15240
     15239     15237     15240     15237     15240     15241     15237     15240     15242
     15237     15240     15243     15241     15240     15242     15241     15240     15243
     15242     15240     15243     15240     15243     15244     15240     15243     15245
     15240     15243     15246     15244     15243     15245     15244     15243     15246
     15245     15243     15246     15243     15246     15247     15243     15246     15248
     15243     15246     15249     15247     15246     15248     15247     15246     15249
     15248     15246     15249     15251     15250     15252     15251     15250     15253
     15251     15250     15254     15252     15250     15253     15252     15250     15254
     15253     15250     15254     15250     15254     15255     15250     15254     15256
     15250     15254     15259     15255     15254     15256     15255     15254     15259
     15256     15254     15259     15254     15256     15257     15254     15256     15258
     15257     15256     15258     15254     15259     15260     15254     15259     15261
     15254     15259     15265     15260     15259     15261     15260     15259     15265
     15261     15259     15265     15263     15262     15264     15263     15262     15265
     15263     15262     15266     15264     15262     15265     15264     15262     15266
     15265     15262     15266     15259     15265     15262     15262     15266     15267
     15266     15267     15268     15266     15267     15269     15266     15267     15270
     15268     15267     15269     15268     15267     15270     15269     15267     15270
     15267     15270     15271     15267     15270     15272     15267     15270     15278
     15271     15270     15272     15271     15270     15278     15272     15270     15278
     15270     15272     15273     15272     15273     15274     15272     15273     15275
     15274     15273     15275     15273     15275     15276     15273     15275     15277
     15273     15275     15287     15276     15275     15277     15276     15275     15287
     15277     15275     15287     15270     15278     15279     15270     15278     15280
     15270     15278     15281     15279     15278     15280     15279     15278     15281
     15280     15278     15281     15278     15281     15282     15281     15282     15283
     15281     15282     15284     15283     15282     15284     15282     15284     15285
     15282     15284     15286     15282     15284     15334     15285     15284     15286
     15285     15284     15334     15286     15284     15334     15275     15287     15288
     15275     15287     15289     15275     15287     15290     15288     15287     15289
     15288     15287     15290     15289     15287     15290     15287     15290     15291
     15287     15290     15292     15287     15290     15293     15291     15290     15292
     15291     15290     15293     15292     15290     15293     15290     15293     15294
     15290     15293     15295     15290     15293     15296     15294     15293     15295
     15294     15293     15296     15295     15293     15296     15293     15296     15297
     15293     15296     15298     15293     15296     15299     15297     15296     15298
     15297     15296     15299     15298     15296     15299     15296     15299     15300
     15296     15299     15301     15296     15299     15302     15300     15299     15301
     15300     15299     15302     15301     15299     15302     15299     15302     15303
     15299     15302     15304     15299     15302     15305     15303     15302     15304
     15303     15302     15305     15304     15302     15305     15302     15305     15306
     15302     15305     15307     15306     15305     15307     15305     15307     15308
     15305     15307     15309     15308     15307     15309     15307     15309     15310
     15307     15309     15311     15307     15309     15312     15310     15309     15311
     15310     15309     15312     15311     15309     15312     15309     15312     15313
     15309     15312     15314     15309     15312     15315     15313     15312     15314
     15313     15312     15315     15314     15312     15315     15312     15315     15316
     15312     15315     15317     15312     15315     15318     15316     15315     15317
     15316     15315     15318     15317     15315     15318     15315     15318     15319
     15315     15318     15320     15315     15318     15321     15319     15318     15320
     15319     15318     15321     15320     15318     15321     15318     15321     15322
     15318     15321     15323     15318     15321     15324     15322     15321     15323
     15322     15321     15324     15323     15321     15324     15321     15324     15325
     15321     15324     15326     15321     15324     15327     15325     15324     15326
     15325     15324     15327     15326     15324     15327     15324     15327     15328
     15324     15327     15329     15324     15327     15330     15328     15327     15329
     15328     15327     15330     15329     15327     15330     15327     15330     15331
     15327     15330     15332     15327     15330     15333     15331     15330     15332
     15331     15330     15333     15332     15330     15333     15284     15334     15335
     15284     15334     15336     15284     15334     15337     15335     15334     15336
     15335     15334     15337     15336     15334     15337     15334     15337     15338
     15334     15337     15339     15334     15337     15340     15338     15337     15339
     15338     15337     15340     15339     15337     15340     15337     15340     15341
     15337     15340     15342     15337     15340     15343     15341     15340     15342
     15341     15340     15343     15342     15340     15343     15340     15343     15344
     15340     15343     15345     15340     15343     15346     15344     15343     15345
     15344     15343     15346     15345     15343     15346     15343     15346     15347
     15343     15346     15348     15343     15346     15349     15347     15346     15348
     15347     15346     15349     15348     15346     15349     15346     15349     15350
     15346     15349     15351     15346     15349     15352     15350     15349     15351
     15350     15349     15352     15351     15349     15352     15349     15352     15353
     15349     15352     15354     15349     15352     15355     15353     15352     15354
     15353     15352     15355     15354     15352     15355     15352     15355     15356
     15352     15355     15357     15352     15355     15358     15356     15355     15357
     15356     15355     15358     15357     15355     15358     15355     15358     15359
     15355     15358     15360     15355     15358     15361     15359     15358     15360
     15359     15358     15361     15360     15358     15361     15358     15361     15362
     15358     15361     15363     15358     15361     15364     15362     15361     15363
     15362     15361     15364     15363     15361     15364     15361     15364     15365
     15361     15364     15366     15361     15364     15367     15365     15364     15366
     15365     15364     15367     15366     15364     15367     15364     15367     15368
     15364     15367     15369     15364     15367     15370     15368     15367     15369
     15368     15367     15370     15369     15367     15370     15367     15370     15371
     15367     15370     15372     15367     15370     15373     15371     15370     15372
     15371     15370     15373     15372     15370     15373     15370     15373     15374
     15370     15373     15375     15370     15373     15376     15374     15373     15375
     15374     15373     15376     15375     15373     15376     15378     15377     15381
     15378     15377     15385     15378     15377     15389     15381     15377     15385
     15381     15377     15389     15385     15377     15389     15377     15378     15379
     15377     15378     15380     15377     15378     15393     15379     15378     15380
     15379     15378     15393     15380     15378     15393     15377     15381     15382
     15377     15381     15383     15377     15381     15384     15382     15381     15383
     15382     15381     15384     15383     15381     15384     15377     15385     15386
     15377     15385     15387     15377     15385     15388     15386     15385     15387
     15386     15385     15388     15387     15385     15388     15377     15389     15390
     15377     15389     15391     15377     15389     15392     15390     15389     15391
     15390     15389     15392     15391     15389     15392     15378     15393     15394
     15378     15393     15395     15378     15393     15399     15394     15393     15395
     15394     15393     15399     15395     15393     15399     15397     15396     15398
     15397     15396     15399     15397     15396     15400     15398     15396     15399
     15398     15396     15400     15399     15396     15400     15393     15399     15396
     15396     15400     15401     15400     15401     15402     15400     15401     15403
     15400     15401     15404     15402     15401     15403     15402     15401     15404
     15403     15401     15404     15401     15404     15405     15401     15404     15406
     15401     15404     15412     15405     15404     15406     15405     15404     15412
     15406     15404     15412     15404     15406     15407     15406     15407     15408
     15406     15407     15409     15408     15407     15409     15407     15409     15410
     15407     15409     15411     15407     15409     15421     15410     15409     15411
     15410     15409     15421     15411     15409     15421     15404     15412     15413
     15404     15412     15414     15404     15412     15415     15413     15412     15414
     15413     15412     15415     15414     15412     15415     15412     15415     15416
     15415     15416     15417     15415     15416     15418     15417     15416     15418
     15416     15418     15419     15416     15418     15420     15416     15418     15468
     15419     15418     15420     15419     15418     15468     15420     15418     15468
     15409     15421     15422     15409     15421     15423     15409     15421     15424
     15422     15421     15423     15422     15421     15424     15423     15421     15424
     15421     15424     15425     15421     15424     15426     15421     15424     15427
     15425     15424     15426     15425     15424     15427     15426     15424     15427
     15424     15427     15428     15424     15427     15429     15424     15427     15430
     15428     15427     15429     15428     15427     15430     15429     15427     15430
     15427     15430     15431     15427     15430     15432     15427     15430     15433
     15431     15430     15432     15431     15430     15433     15432     15430     15433
     15430     15433     15434     15430     15433     15435     15430     15433     15436
     15434     15433     15435     15434     15433     15436     15435     15433     15436
     15433     15436     15437     15433     15436     15438     15433     15436     15439
     15437     15436     15438     15437     15436     15439     15438     15436     15439
     15436     15439     15440     15436     15439     15441     15440     15439     15441
     15439     15441     15442     15439     15441     15443     15442     15441     15443
     15441     15443     15444     15441     15443     15445     15441     15443     15446
     15444     15443     15445     15444     15443     15446     15445     15443     15446
     15443     15446     15447     15443     15446     15448     15443     15446     15449
     15447     15446     15448     15447     15446     15449     15448     15446     15449
     15446     15449     15450     15446     15449     15451     15446     15449     15452
     15450     15449     15451     15450     15449     15452     15451     15449     15452
     15449     15452     15453     15449     15452     15454     15449     15452     15455
     15453     15452     15454     15453     15452     15455     15454     15452     15455
     15452     15455     15456     15452     15455     15457     15452     15455     15458
     15456     15455     15457     15456     15455     15458     15457     15455     15458
     15455     15458     15459     15455     15458     15460     15455     15458     15461
     15459     15458     15460     15459     15458     15461     15460     15458     15461
     15458     15461     15462     15458     15461     15463     15458     15461     15464
     15462     15461     15463     15462     15461     15464     15463     15461     15464
     15461     15464     15465     15461     15464     15466     15461     15464     15467
     15465     15464     15466     15465     15464     15467     15466     15464     15467
     15418     15468     15469     15418     15468     15470     15418     15468     15471
     15469     15468     15470     15469     15468     15471     15470     15468     15471
     15468     15471     15472     15468     15471     15473     15468     15471     15474
     15472     15471     15473     15472     15471     15474     15473     15471     15474
     15471     15474     15475     15471     15474     15476     15471     15474     15477
     15475     15474     15476     15475     15474     15477     15476     15474     15477
     15474     15477     15478     15474     15477     15479     15474     15477     15480
     15478     15477     15479     15478     15477     15480     15479     15477     15480
     15477     15480     15481     15477     15480     15482     15477     15480     15483
     15481     15480     15482     15481     15480     15483     15482     15480     15483
     15480     15483     15484     15480     15483     15485     15480     15483     15486
     15484     15483     15485     15484     15483     15486     15485     15483     15486
     15483     15486     15487     15483     15486     15488     15483     15486     15489
     15487     15486     15488     15487     15486     15489     15488     15486     15489
     15486     15489     15490     15486     15489     15491     15486     15489     15492
     15490     15489     15491     15490     15489     15492     15491     15489     15492
     15489     15492     15493     15489     15492     15494     15489     15492     15495
     15493     15492     15494     15493     15492     15495     15494     15492     15495
     15492     15495     15496     15492     15495     15497     15492     15495     15498
     15496     15495     15497     15496     15495     15498     15497     15495     15498
     15495     15498     15499     15495     15498     15500     15495     15498     15501
     15499     15498     15500     15499     15498     15501     15500     15498     15501
     15498     15501     15502     15498     15501     15503     15498     15501     15504
     15502     15501     15503     15502     15501     15504     15503     15501     15504
     15501     15504     15505     15501     15504     15506     15501     15504     15507
     15505     15504     15506     15505     15504     15507     15506     15504     15507
     15504     15507     15508     15504     15507     15509     15504     15507     15510
     15508     15507     15509     15508     15507     15510     15509     15507     15510
     15512     15511     15515     15512     15511     15519     15512     15511     15523
     15515     15511     15519     15515     15511     15523     15519     15511     15523
     15511     15512     15513     15511     15512     15514     15511     15512     15527
     15513     15512     15514     15513     15512     15527     15514     15512     15527
     15511     15515     15516     15511     15515     15517     15511     15515     15518
     15516     15515     15517     15516     15515     15518     15517     15515     15518
     15511     15519     15520     15511     15519     15521     15511     15519     15522
     15520     15519     15521     15520     15519     15522     15521     15519     15522
     15511     15523     15524     15511     15523     15525     15511     15523     15526
     15524     15523     15525     15524     15523     15526     15525     15523     15526
     15512     15527     15528     15512     15527     15529     15512     15527     15533
     15528     15527     15529     15528     15527     15533     15529     15527     15533
     15531     15530     15532     15531     15530     15533     15531     15530     15534
     15532     15530     15533     15532     15530     15534     15533     15530     15534
     15527     15533     15530     15530     15534     15535     15534     15535     15536
     15534     15535     15537     15534     15535     15538     15536     15535     15537
     15536     15535     15538     15537     15535     15538     15535     15538     15539
     15535     15538     15540     15535     15538     15546     15539     15538     15540
     15539     15538     15546     15540     15538     15546     15538     15540     15541
     15540     15541     15542     15540     15541     15543     15542     15541     15543
     15541     15543     15544     15541     15543     15545     15541     15543     15555
     15544     15543     15545     15544     15543     15555     15545     15543     15555
     15538     15546     15547     15538     15546     15548     15538     15546     15549
     15547     15546     15548     15547     15546     15549     15548     15546     15549
     15546     15549     15550     15549     15550     15551     15549     15550     15552
     15551     15550     15552     15550     15552     15553     15550     15552     15554
     15550     15552     15602     15553     15552     15554     15553     15552     15602
     15554     15552     15602     15543     15555     15556     15543     15555     15557
     15543     15555     15558     15556     15555     15557     15556     15555     15558
     15557     15555     15558     15555     15558     15559     15555     15558     15560
     15555     15558     15561     15559     15558     15560     15559     15558     15561
     15560     15558     15561     15558     15561     15562     15558     15561     15563
     15558     15561     15564     15562     15561     15563     15562     15561     15564
     15563     15561     15564     15561     15564     15565     15561     15564     15566
     15561     15564     15567     15565     15564     15566     15565     15564     15567
     15566     15564     15567     15564     15567     15568     15564     15567     15569
     15564     15567     15570     15568     15567     15569     15568     15567     15570
     15569     15567     15570     15567     15570     15571     15567     15570     15572
     15567     15570     15573     15571     15570     15572     15571     15570     15573
     15572     15570     15573     15570     15573     15574     15570     15573     15575
     15574     15573     15575     15573     15575     15576     15573     15575     15577
     15576     15575     15577     15575     15577     15578     15575     15577     15579
     15575     15577     15580     15578     15577     15579     15578     15577     15580
     15579     15577     15580     15577     15580     15581     15577     15580     15582
     15577     15580     15583     15581     15580     15582     15581     15580     15583
     15582     15580     15583     15580     15583     15584     15580     15583     15585
     15580     15583     15586     15584     15583     15585     15584     15583     15586
     15585     15583     15586     15583     15586     15587     15583     15586     15588
     15583     15586     15589     15587     15586     15588     15587     15586     15589
     15588     15586     15589     15586     15589     15590     15586     15589     15591
     15586     15589     15592     15590     15589     15591     15590     15589     15592
     15591     15589     15592     15589     15592     15593     15589     15592     15594
     15589     15592     15595     15593     15592     15594     15593     15592     15595
     15594     15592     15595     15592     15595     15596     15592     15595     15597
     15592     15595     15598     15596     15595     15597     15596     15595     15598
     15597     15595     15598     15595     15598     15599     15595     15598     15600
     15595     15598     15601     15599     15598     15600     15599     15598     15601
     15600     15598     15601     15552     15602     15603     15552     15602     15604
     15552     15602     15605     15603     15602     15604     15603     15602     15605
     15604     15602     15605     15602     15605     15606     15602     15605     15607
     15602     15605     15608     15606     15605     15607     15606     15605     15608
     15607     15605     15608     15605     15608     15609     15605     15608     15610
     15605     15608     15611     15609     15608     15610     15609     15608     15611
     15610     15608     15611     15608     15611     15612     15608     15611     15613
     15608     15611     15614     15612     15611     15613     15612     15611     15614
     15613     15611     15614     15611     15614     15615     15611     15614     15616
     15611     15614     15617     15615     15614     15616     15615     15614     15617
     15616     15614     15617     15614     15617     15618     15614     15617     15619
     15614     15617     15620     15618     15617     15619     15618     15617     15620
     15619     15617     15620     15617     15620     15621     15617     15620     15622
     15617     15620     15623     15621     15620     15622     15621     15620     15623
     15622     15620     15623     15620     15623     15624     15620     15623     15625
     15620     15623     15626     15624     15623     15625     15624     15623     15626
     15625     15623     15626     15623     15626     15627     15623     15626     15628
     15623     15626     15629     15627     15626     15628     15627     15626     15629
     15628     15626     15629     15626     15629     15630     15626     15629     15631
     15626     15629     15632     15630     15629     15631     15630     15629     15632
     15631     15629     15632     15629     15632     15633     15629     15632     15634
     15629     15632     15635     15633     15632     15634     15633     15632     15635
     15634     15632     15635     15632     15635     15636     15632     15635     15637
     15632     15635     15638     15636     15635     15637     15636     15635     15638
     15637     15635     15638     15635     15638     15639     15635     15638     15640
     15635     15638     15641     15639     15638     15640     15639     15638     15641
     15640     15638     15641     15638     15641     15642     15638     15641     15643
     15638     15641     15644     15642     15641     15643     15642     15641     15644
     15643     15641     15644     15646     15645     15647     15646     15645     15648
     15646     15645     15649     15647     15645     15648     15647     15645     15649
     15648     15645     15649     15645     15649     15650     15645     15649     15651
     15645     15649     15654     15650     15649     15651     15650     15649     15654
     15651     15649     15654     15649     15651     15652     15649     15651     15653
     15652     15651     15653     15649     15654     15655     15649     15654     15656
     15649     15654     15660     15655     15654     15656     15655     15654     15660
     15656     15654     15660     15658     15657     15659     15658     15657     15660
     15658     15657     15661     15659     15657     15660     15659     15657     15661
     15660     15657     15661     15654     15660     15657     15657     15661     15662
     15661     15662     15663     15661     15662     15664     15661     15662     15665
     15663     15662     15664     15663     15662     15665     15664     15662     15665
     15662     15665     15666     15662     15665     15667     15662     15665     15673
     15666     15665     15667     15666     15665     15673     15667     15665     15673
     15665     15667     15668     15667     15668     15669     15667     15668     15670
     15669     15668     15670     15668     15670     15671     15668     15670     15672
     15668     15670     15682     15671     15670     15672     15671     15670     15682
     15672     15670     15682     15665     15673     15674     15665     15673     15675
     15665     15673     15676     15674     15673     15675     15674     15673     15676
     15675     15673     15676     15673     15676     15677     15676     15677     15678
     15676     15677     15679     15678     15677     15679     15677     15679     15680
     15677     15679     15681     15677     15679     15729     15680     15679     15681
     15680     15679     15729     15681     15679     15729     15670     15682     15683
     15670     15682     15684     15670     15682     15685     15683     15682     15684
     15683     15682     15685     15684     15682     15685     15682     15685     15686
     15682     15685     15687     15682     15685     15688     15686     15685     15687
     15686     15685     15688     15687     15685     15688     15685     15688     15689
     15685     15688     15690     15685     15688     15691     15689     15688     15690
     15689     15688     15691     15690     15688     15691     15688     15691     15692
     15688     15691     15693     15688     15691     15694     15692     15691     15693
     15692     15691     15694     15693     15691     15694     15691     15694     15695
     15691     15694     15696     15691     15694     15697     15695     15694     15696
     15695     15694     15697     15696     15694     15697     15694     15697     15698
     15694     15697     15699     15694     15697     15700     15698     15697     15699
     15698     15697     15700     15699     15697     15700     15697     15700     15701
     15697     15700     15702     15701     15700     15702     15700     15702     15703
     15700     15702     15704     15703     15702     15704     15702     15704     15705
     15702     15704     15706     15702     15704     15707     15705     15704     15706
     15705     15704     15707     15706     15704     15707     15704     15707     15708
     15704     15707     15709     15704     15707     15710     15708     15707     15709
     15708     15707     15710     15709     15707     15710     15707     15710     15711
     15707     15710     15712     15707     15710     15713     15711     15710     15712
     15711     15710     15713     15712     15710     15713     15710     15713     15714
     15710     15713     15715     15710     15713     15716     15714     15713     15715
     15714     15713     15716     15715     15713     15716     15713     15716     15717
     15713     15716     15718     15713     15716     15719     15717     15716     15718
     15717     15716     15719     15718     15716     15719     15716     15719     15720
     15716     15719     15721     15716     15719     15722     15720     15719     15721
     15720     15719     15722     15721     15719     15722     15719     15722     15723
     15719     15722     15724     15719     15722     15725     15723     15722     15724
     15723     15722     15725     15724     15722     15725     15722     15725     15726
     15722     15725     15727     15722     15725     15728     15726     15725     15727
     15726     15725     15728     15727     15725     15728     15679     15729     15730
     15679     15729     15731     15679     15729     15732     15730     15729     15731
     15730     15729     15732     15731     15729     15732     15729     15732     15733
     15729     15732     15734     15729     15732     15735     15733     15732     15734
     15733     15732     15735     15734     15732     15735     15732     15735     15736
     15732     15735     15737     15732     15735     15738     15736     15735     15737
     15736     15735     15738     15737     15735     15738     15735     15738     15739
     15735     15738     15740     15735     15738     15741     15739     15738     15740
     15739     15738     15741     15740     15738     15741     15738     15741     15742
     15738     15741     15743     15738     15741     15744     15742     15741     15743
     15742     15741     15744     15743     15741     15744     15741     15744     15745
     15741     15744     15746     15741     15744     15747     15745     15744     15746
     15745     15744     15747     15746     15744     15747     15744     15747     15748
     15744     15747     15749     15744     15747     15750     15748     15747     15749
     15748     15747     15750     15749     15747     15750     15747     15750     15751
     15747     15750     15752     15747     15750     15753     15751     15750     15752
     15751     15750     15753     15752     15750     15753     15750     15753     15754
     15750     15753     15755     15750     15753     15756     15754     15753     15755
     15754     15753     15756     15755     15753     15756     15753     15756     15757
     15753     15756     15758     15753     15756     15759     15757     15756     15758
     15757     15756     15759     15758     15756     15759     15756     15759     15760
     15756     15759     15761     15756     15759     15762     15760     15759     15761
     15760     15759     15762     15761     15759     15762     15759     15762     15763
     15759     15762     15764     15759     15762     15765     15763     15762     15764
     15763     15762     15765     15764     15762     15765     15762     15765     15766
     15762     15765     15767     15762     15765     15768     15766     15765     15767
     15766     15765     15768     15767     15765     15768     15765     15768     15769
     15765     15768     15770     15765     15768     15771     15769     15768     15770
     15769     15768     15771     15770     15768     15771     15773     15772     15776
     15773     15772     15780     15773     15772     15784     15776     15772     15780
     15776     15772     15784     15780     15772     15784     15772     15773     15774
     15772     15773     15775     15772     15773     15788     15774     15773     15775
     15774     15773     15788     15775     15773     15788     15772     15776     15777
     15772     15776     15778     15772     15776     15779     15777     15776     15778
     15777     15776     15779     15778     15776     15779     15772     15780     15781
     15772     15780     15782     15772     15780     15783     15781     15780     15782
     15781     15780     15783     15782     15780     15783     15772     15784     15785
     15772     15784     15786     15772     15784     15787     15785     15784     15786
     15785     15784     15787     15786     15784     15787     15773     15788     15789
     15773     15788     15790     15773     15788     15794     15789     15788     15790
     15789     15788     15794     15790     15788     15794     15792     15791     15793
     15792     15791     15794     15792     15791     15795     15793     15791     15794
     15793     15791     15795     15794     15791     15795     15788     15794     15791
     15791     15795     15796     15795     15796     15797     15795     15796     15798
     15795     15796     15799     15797     15796     15798     15797     15796     15799
     15798     15796     15799     15796     15799     15800     15796     15799     15801
     15796     15799     15807     15800     15799     15801     15800     15799     15807
     15801     15799     15807     15799     15801     15802     15801     15802     15803
     15801     15802     15804     15803     15802     15804     15802     15804     15805
     15802     15804     15806     15802     15804     15816     15805     15804     15806
     15805     15804     15816     15806     15804     15816     15799     15807     15808
     15799     15807     15809     15799     15807     15810     15808     15807     15809
     15808     15807     15810     15809     15807     15810     15807     15810     15811
     15810     15811     15812     15810     15811     15813     15812     15811     15813
     15811     15813     15814     15811     15813     15815     15811     15813     15863
     15814     15813     15815     15814     15813     15863     15815     15813     15863
     15804     15816     15817     15804     15816     15818     15804     15816     15819
     15817     15816     15818     15817     15816     15819     15818     15816     15819
     15816     15819     15820     15816     15819     15821     15816     15819     15822
     15820     15819     15821     15820     15819     15822     15821     15819     15822
     15819     15822     15823     15819     15822     15824     15819     15822     15825
     15823     15822     15824     15823     15822     15825     15824     15822     15825
     15822     15825     15826     15822     15825     15827     15822     15825     15828
     15826     15825     15827     15826     15825     15828     15827     15825     15828
     15825     15828     15829     15825     15828     15830     15825     15828     15831
     15829     15828     15830     15829     15828     15831     15830     15828     15831
     15828     15831     15832     15828     15831     15833     15828     15831     15834
     15832     15831     15833     15832     15831     15834     15833     15831     15834
     15831     15834     15835     15831     15834     15836     15835     15834     15836
     15834     15836     15837     15834     15836     15838     15837     15836     15838
     15836     15838     15839     15836     15838     15840     15836     15838     15841
     15839     15838     15840     15839     15838     15841     15840     15838     15841
     15838     15841     15842     15838     15841     15843     15838     15841     15844
     15842     15841     15843     15842     15841     15844     15843     15841     15844
     15841     15844     15845     15841     15844     15846     15841     15844     15847
     15845     15844     15846     15845     15844     15847     15846     15844     15847
     15844     15847     15848     15844     15847     15849     15844     15847     15850
     15848     15847     15849     15848     15847     15850     15849     15847     15850
     15847     15850     15851     15847     15850     15852     15847     15850     15853
     15851     15850     15852     15851     15850     15853     15852     15850     15853
     15850     15853     15854     15850     15853     15855     15850     15853     15856
     15854     15853     15855     15854     15853     15856     15855     15853     15856
     15853     15856     15857     15853     15856     15858     15853     15856     15859
     15857     15856     15858     15857     15856     15859     15858     15856     15859
     15856     15859     15860     15856     15859     15861     15856     15859     15862
     15860     15859     15861     15860     15859     15862     15861     15859     15862
     15813     15863     15864     15813     15863     15865     15813     15863     15866
     15864     15863     15865     15864     15863     15866     15865     15863     15866
     15863     15866     15867     15863     15866     15868     15863     15866     15869
     15867     15866     15868     15867     15866     15869     15868     15866     15869
     15866     15869     15870     15866     15869     15871     15866     15869     15872
     15870     15869     15871     15870     15869     15872     15871     15869     15872
     15869     15872     15873     15869     15872     15874     15869     15872     15875
     15873     15872     15874     15873     15872     15875     15874     15872     15875
     15872     15875     15876     15872     15875     15877     15872     15875     15878
     15876     15875     15877     15876     15875     15878     15877     15875     15878
     15875     15878     15879     15875     15878     15880     15875     15878     15881
     15879     15878     15880     15879     15878     15881     15880     15878     15881
     15878     15881     15882     15878     15881     15883     15878     15881     15884
     15882     15881     15883     15882     15881     15884     15883     15881     15884
     15881     15884     15885     15881     15884     15886     15881     15884     15887
     15885     15884     15886     15885     15884     15887     15886     15884     15887
     15884     15887     15888     15884     15887     15889     15884     15887     15890
     15888     15887     15889     15888     15887     15890     15889     15887     15890
     15887     15890     15891     15887     15890     15892     15887     15890     15893
     15891     15890     15892     15891     15890     15893     15892     15890     15893
     15890     15893     15894     15890     15893     15895     15890     15893     15896
     15894     15893     15895     15894     15893     15896     15895     15893     15896
     15893     15896     15897     15893     15896     15898     15893     15896     15899
     15897     15896     15898     15897     15896     15899     15898     15896     15899
     15896     15899     15900     15896     15899     15901     15896     15899     15902
     15900     15899     15901     15900     15899     15902     15901     15899     15902
     15899     15902     15903     15899     15902     15904     15899     15902     15905
     15903     15902     15904     15903     15902     15905     15904     15902     15905
     15907     15906     15910     15907     15906     15914     15907     15906     15918
     15910     15906     15914     15910     15906     15918     15914     15906     15918
     15906     15907     15908     15906     15907     15909     15906     15907     15922
     15908     15907     15909     15908     15907     15922     15909     15907     15922
     15906     15910     15911     15906     15910     15912     15906     15910     15913
     15911     15910     15912     15911     15910     15913     15912     15910     15913
     15906     15914     15915     15906     15914     15916     15906     15914     15917
     15915     15914     15916     15915     15914     15917     15916     15914     15917
     15906     15918     15919     15906     15918     15920     15906     15918     15921
     15919     15918     15920     15919     15918     15921     15920     15918     15921
     15907     15922     15923     15907     15922     15924     15907     15922     15928
     15923     15922     15924     15923     15922     15928     15924     15922     15928
     15926     15925     15927     15926     15925     15928     15926     15925     15929
     15927     15925     15928     15927     15925     15929     15928     15925     15929
     15922     15928     15925     15925     15929     15930     15929     15930     15931
     15929     15930     15932     15929     15930     15933     15931     15930     15932
     15931     15930     15933     15932     15930     15933     15930     15933     15934
     15930     15933     15935     15930     15933     15941     15934     15933     15935
     15934     15933     15941     15935     15933     15941     15933     15935     15936
     15935     15936     15937     15935     15936     15938     15937     15936     15938
     15936     15938     15939     15936     15938     15940     15936     15938     15950
     15939     15938     15940     15939     15938     15950     15940     15938     15950
     15933     15941     15942     15933     15941     15943     15933     15941     15944
     15942     15941     15943     15942     15941     15944     15943     15941     15944
     15941     15944     15945     15944     15945     15946     15944     15945     15947
     15946     15945     15947     15945     15947     15948     15945     15947     15949
     15945     15947     15997     15948     15947     15949     15948     15947     15997
     15949     15947     15997     15938     15950     15951     15938     15950     15952
     15938     15950     15953     15951     15950     15952     15951     15950     15953
     15952     15950     15953     15950     15953     15954     15950     15953     15955
     15950     15953     15956     15954     15953     15955     15954     15953     15956
     15955     15953     15956     15953     15956     15957     15953     15956     15958
     15953     15956     15959     15957     15956     15958     15957     15956     15959
     15958     15956     15959     15956     15959     15960     15956     15959     15961
     15956     15959     15962     15960     15959     15961     15960     15959     15962
     15961     15959     15962     15959     15962     15963     15959     15962     15964
     15959     15962     15965     15963     15962     15964     15963     15962     15965
     15964     15962     15965     15962     15965     15966     15962     15965     15967
     15962     15965     15968     15966     15965     15967     15966     15965     15968
     15967     15965     15968     15965     15968     15969     15965     15968     15970
     15969     15968     15970     15968     15970     15971     15968     15970     15972
     15971     15970     15972     15970     15972     15973     15970     15972     15974
     15970     15972     15975     15973     15972     15974     15973     15972     15975
     15974     15972     15975     15972     15975     15976     15972     15975     15977
     15972     15975     15978     15976     15975     15977     15976     15975     15978
     15977     15975     15978     15975     15978     15979     15975     15978     15980
     15975     15978     15981     15979     15978     15980     15979     15978     15981
     15980     15978     15981     15978     15981     15982     15978     15981     15983
     15978     15981     15984     15982     15981     15983     15982     15981     15984
     15983     15981     15984     15981     15984     15985     15981     15984     15986
     15981     15984     15987     15985     15984     15986     15985     15984     15987
     15986     15984     15987     15984     15987     15988     15984     15987     15989
     15984     15987     15990     15988     15987     15989     15988     15987     15990
     15989     15987     15990     15987     15990     15991     15987     15990     15992
     15987     15990     15993     15991     15990     15992     15991     15990     15993
     15992     15990     15993     15990     15993     15994     15990     15993     15995
     15990     15993     15996     15994     15993     15995     15994     15993     15996
     15995     15993     15996     15947     15997     15998     15947     15997     15999
     15947     15997     16000     15998     15997     15999     15998     15997     16000
     15999     15997     16000     15997     16000     16001     15997     16000     16002
     15997     16000     16003     16001     16000     16002     16001     16000     16003
     16002     16000     16003     16000     16003     16004     16000     16003     16005
     16000     16003     16006     16004     16003     16005     16004     16003     16006
     16005     16003     16006     16003     16006     16007     16003     16006     16008
     16003     16006     16009     16007     16006     16008     16007     16006     16009
     16008     16006     16009     16006     16009     16010     16006     16009     16011
     16006     16009     16012     16010     16009     16011     16010     16009     16012
     16011     16009     16012     16009     16012     16013     16009     16012     16014
     16009     16012     16015     16013     16012     16014     16013     16012     16015
     16014     16012     16015     16012     16015     16016     16012     16015     16017
     16012     16015     16018     16016     16015     16017     16016     16015     16018
     16017     16015     16018     16015     16018     16019     16015     16018     16020
     16015     16018     16021     16019     16018     16020     16019     16018     16021
     16020     16018     16021     16018     16021     16022     16018     16021     16023
     16018     16021     16024     16022     16021     16023     16022     16021     16024
     16023     16021     16024     16021     16024     16025     16021     16024     16026
     16021     16024     16027     16025     16024     16026     16025     16024     16027
     16026     16024     16027     16024     16027     16028     16024     16027     16029
     16024     16027     16030     16028     16027     16029     16028     16027     16030
     16029     16027     16030     16027     16030     16031     16027     16030     16032
     16027     16030     16033     16031     16030     16032     16031     16030     16033
     16032     16030     16033     16030     16033     16034     16030     16033     16035
     16030     16033     16036     16034     16033     16035     16034     16033     16036
     16035     16033     16036     16033     16036     16037     16033     16036     16038
     16033     16036     16039     16037     16036     16038     16037     16036     16039
     16038     16036     16039     16041     16040     16044     16041     16040     16048
     16041     16040     16052     16044     16040     16048     16044     16040     16052
     16048     16040     16052     16040     16041     16042     16040     16041     16043
     16040     16041     16056     16042     16041     16043     16042     16041     16056
     16043     16041     16056     16040     16044     16045     16040     16044     16046
     16040     16044     16047     16045     16044     16046     16045     16044     16047
     16046     16044     16047     16040     16048     16049     16040     16048     16050
     16040     16048     16051     16049     16048     16050     16049     16048     16051
     16050     16048     16051     16040     16052     16053     16040     16052     16054
     16040     16052     16055     16053     16052     16054     16053     16052     16055
     16054     16052     16055     16041     16056     16057     16041     16056     16058
     16041     16056     16062     16057     16056     16058     16057     16056     16062
     16058     16056     16062     16060     16059     16061     16060     16059     16062
     16060     16059     16063     16061     16059     16062     16061     16059     16063
     16062     16059     16063     16056     16062     16059     16059     16063     16064
     16063     16064     16065     16063     16064     16066     16063     16064     16067
     16065     16064     16066     16065     16064     16067     16066     16064     16067
     16064     16067     16068     16064     16067     16069     16064     16067     16075
     16068     16067     16069     16068     16067     16075     16069     16067     16075
     16067     16069     16070     16069     16070     16071     16069     16070     16072
     16071     16070     16072     16070     16072     16073     16070     16072     16074
     16070     16072     16084     16073     16072     16074     16073     16072     16084
     16074     16072     16084     16067     16075     16076     16067     16075     16077
     16067     16075     16078     16076     16075     16077     16076     16075     16078
     16077     16075     16078     16075     16078     16079     16078     16079     16080
     16078     16079     16081     16080     16079     16081     16079     16081     16082
     16079     16081     16083     16079     16081     16131     16082     16081     16083
     16082     16081     16131     16083     16081     16131     16072     16084     16085
     16072     16084     16086     16072     16084     16087     16085     16084     16086
     16085     16084     16087     16086     16084     16087     16084     16087     16088
     16084     16087     16089     16084     16087     16090     16088     16087     16089
     16088     16087     16090     16089     16087     16090     16087     16090     16091
     16087     16090     16092     16087     16090     16093     16091     16090     16092
     16091     16090     16093     16092     16090     16093     16090     16093     16094
     16090     16093     16095     16090     16093     16096     16094     16093     16095
     16094     16093     16096     16095     16093     16096     16093     16096     16097
     16093     16096     16098     16093     16096     16099     16097     16096     16098
     16097     16096     16099     16098     16096     16099     16096     16099     16100
     16096     16099     16101     16096     16099     16102     16100     16099     16101
     16100     16099     16102     16101     16099     16102     16099     16102     16103
     16099     16102     16104     16103     16102     16104     16102     16104     16105
     16102     16104     16106     16105     16104     16106     16104     16106     16107
     16104     16106     16108     16104     16106     16109     16107     16106     16108
     16107     16106     16109     16108     16106     16109     16106     16109     16110
     16106     16109     16111     16106     16109     16112     16110     16109     16111
     16110     16109     16112     16111     16109     16112     16109     16112     16113
     16109     16112     16114     16109     16112     16115     16113     16112     16114
     16113     16112     16115     16114     16112     16115     16112     16115     16116
     16112     16115     16117     16112     16115     16118     16116     16115     16117
     16116     16115     16118     16117     16115     16118     16115     16118     16119
     16115     16118     16120     16115     16118     16121     16119     16118     16120
     16119     16118     16121     16120     16118     16121     16118     16121     16122
     16118     16121     16123     16118     16121     16124     16122     16121     16123
     16122     16121     16124     16123     16121     16124     16121     16124     16125
     16121     16124     16126     16121     16124     16127     16125     16124     16126
     16125     16124     16127     16126     16124     16127     16124     16127     16128
     16124     16127     16129     16124     16127     16130     16128     16127     16129
     16128     16127     16130     16129     16127     16130     16081     16131     16132
     16081     16131     16133     16081     16131     16134     16132     16131     16133
     16132     16131     16134     16133     16131     16134     16131     16134     16135
     16131     16134     16136     16131     16134     16137     16135     16134     16136
     16135     16134     16137     16136     16134     16137     16134     16137     16138
     16134     16137     16139     16134     16137     16140     16138     16137     16139
     16138     16137     16140     16139     16137     16140     16137     16140     16141
     16137     16140     16142     16137     16140     16143     16141     16140     16142
     16141     16140     16143     16142     16140     16143     16140     16143     16144
     16140     16143     16145     16140     16143     16146     16144     16143     16145
     16144     16143     16146     16145     16143     16146     16143     16146     16147
     16143     16146     16148     16143     16146     16149     16147     16146     16148
     16147     16146     16149     16148     16146     16149     16146     16149     16150
     16146     16149     16151     16146     16149     16152     16150     16149     16151
     16150     16149     16152     16151     16149     16152     16149     16152     16153
     16149     16152     16154     16149     16152     16155     16153     16152     16154
     16153     16152     16155     16154     16152     16155     16152     16155     16156
     16152     16155     16157     16152     16155     16158     16156     16155     16157
     16156     16155     16158     16157     16155     16158     16155     16158     16159
     16155     16158     16160     16155     16158     16161     16159     16158     16160
     16159     16158     16161     16160     16158     16161     16158     16161     16162
     16158     16161     16163     16158     16161     16164     16162     16161     16163
     16162     16161     16164     16163     16161     16164     16161     16164     16165
     16161     16164     16166     16161     16164     16167     16165     16164     16166
     16165     16164     16167     16166     16164     16167     16164     16167     16168
     16164     16167     16169     16164     16167     16170     16168     16167     16169
     16168     16167     16170     16169     16167     16170     16167     16170     16171
     16167     16170     16172     16167     16170     16173     16171     16170     16172
     16171     16170     16173     16172     16170     16173     16175     16174     16178
     16175     16174     16182     16175     16174     16186     16178     16174     16182
     16178     16174     16186     16182     16174     16186     16174     16175     16176
     16174     16175     16177     16174     16175     16190     16176     16175     16177
     16176     16175     16190     16177     16175     16190     16174     16178     16179
     16174     16178     16180     16174     16178     16181     16179     16178     16180
     16179     16178     16181     16180     16178     16181     16174     16182     16183
     16174     16182     16184     16174     16182     16185     16183     16182     16184
     16183     16182     16185     16184     16182     16185     16174     16186     16187
     16174     16186     16188     16174     16186     16189     16187     16186     16188
     16187     16186     16189     16188     16186     16189     16175     16190     16191
     16175     16190     16192     16175     16190     16196     16191     16190     16192
     16191     16190     16196     16192     16190     16196     16194     16193     16195
     16194     16193     16196     16194     16193     16197     16195     16193     16196
     16195     16193     16197     16196     16193     16197     16190     16196     16193
     16193     16197     16198     16197     16198     16199     16197     16198     16200
     16197     16198     16201     16199     16198     16200     16199     16198     16201
     16200     16198     16201     16198     16201     16202     16198     16201     16203
     16198     16201     16209     16202     16201     16203     16202     16201     16209
     16203     16201     16209     16201     16203     16204     16203     16204     16205
     16203     16204     16206     16205     16204     16206     16204     16206     16207
     16204     16206     16208     16204     16206     16218     16207     16206     16208
     16207     16206     16218     16208     16206     16218     16201     16209     16210
     16201     16209     16211     16201     16209     16212     16210     16209     16211
     16210     16209     16212     16211     16209     16212     16209     16212     16213
     16212     16213     16214     16212     16213     16215     16214     16213     16215
     16213     16215     16216     16213     16215     16217     16213     16215     16265
     16216     16215     16217     16216     16215     16265     16217     16215     16265
     16206     16218     16219     16206     16218     16220     16206     16218     16221
     16219     16218     16220     16219     16218     16221     16220     16218     16221
     16218     16221     16222     16218     16221     16223     16218     16221     16224
     16222     16221     16223     16222     16221     16224     16223     16221     16224
     16221     16224     16225     16221     16224     16226     16221     16224     16227
     16225     16224     16226     16225     16224     16227     16226     16224     16227
     16224     16227     16228     16224     16227     16229     16224     16227     16230
     16228     16227     16229     16228     16227     16230     16229     16227     16230
     16227     16230     16231     16227     16230     16232     16227     16230     16233
     16231     16230     16232     16231     16230     16233     16232     16230     16233
     16230     16233     16234     16230     16233     16235     16230     16233     16236
     16234     16233     16235     16234     16233     16236     16235     16233     16236
     16233     16236     16237     16233     16236     16238     16237     16236     16238
     16236     16238     16239     16236     16238     16240     16239     16238     16240
     16238     16240     16241     16238     16240     16242     16238     16240     16243
     16241     16240     16242     16241     16240     16243     16242     16240     16243
     16240     16243     16244     16240     16243     16245     16240     16243     16246
     16244     16243     16245     16244     16243     16246     16245     16243     16246
     16243     16246     16247     16243     16246     16248     16243     16246     16249
     16247     16246     16248     16247     16246     16249     16248     16246     16249
     16246     16249     16250     16246     16249     16251     16246     16249     16252
     16250     16249     16251     16250     16249     16252     16251     16249     16252
     16249     16252     16253     16249     16252     16254     16249     16252     16255
     16253     16252     16254     16253     16252     16255     16254     16252     16255
     16252     16255     16256     16252     16255     16257     16252     16255     16258
     16256     16255     16257     16256     16255     16258     16257     16255     16258
     16255     16258     16259     16255     16258     16260     16255     16258     16261
     16259     16258     16260     16259     16258     16261     16260     16258     16261
     16258     16261     16262     16258     16261     16263     16258     16261     16264
     16262     16261     16263     16262     16261     16264     16263     16261     16264
     16215     16265     16266     16215     16265     16267     16215     16265     16268
     16266     16265     16267     16266     16265     16268     16267     16265     16268
     16265     16268     16269     16265     16268     16270     16265     16268     16271
     16269     16268     16270     16269     16268     16271     16270     16268     16271
     16268     16271     16272     16268     16271     16273     16268     16271     16274
     16272     16271     16273     16272     16271     16274     16273     16271     16274
     16271     16274     16275     16271     16274     16276     16271     16274     16277
     16275     16274     16276     16275     16274     16277     16276     16274     16277
     16274     16277     16278     16274     16277     16279     16274     16277     16280
     16278     16277     16279     16278     16277     16280     16279     16277     16280
     16277     16280     16281     16277     16280     16282     16277     16280     16283
     16281     16280     16282     16281     16280     16283     16282     16280     16283
     16280     16283     16284     16280     16283     16285     16280     16283     16286
     16284     16283     16285     16284     16283     16286     16285     16283     16286
     16283     16286     16287     16283     16286     16288     16283     16286     16289
     16287     16286     16288     16287     16286     16289     16288     16286     16289
     16286     16289     16290     16286     16289     16291     16286     16289     16292
     16290     16289     16291     16290     16289     16292     16291     16289     16292
     16289     16292     16293     16289     16292     16294     16289     16292     16295
     16293     16292     16294     16293     16292     16295     16294     16292     16295
     16292     16295     16296     16292     16295     16297     16292     16295     16298
     16296     16295     16297     16296     16295     16298     16297     16295     16298
     16295     16298     16299     16295     16298     16300     16295     16298     16301
     16299     16298     16300     16299     16298     16301     16300     16298     16301
     16298     16301     16302     16298     16301     16303     16298     16301     16304
     16302     16301     16303     16302     16301     16304     16303     16301     16304
     16301     16304     16305     16301     16304     16306     16301     16304     16307
     16305     16304     16306     16305     16304     16307     16306     16304     16307
     16309     16308     16310     16309     16308     16311     16309     16308     16312
     16310     16308     16311     16310     16308     16312     16311     16308     16312
     16308     16312     16313     16308     16312     16314     16308     16312     16317
     16313     16312     16314     16313     16312     16317     16314     16312     16317
     16312     16314     16315     16312     16314     16316     16315     16314     16316
     16312     16317     16318     16312     16317     16319     16312     16317     16323
     16318     16317     16319     16318     16317     16323     16319     16317     16323
     16321     16320     16322     16321     16320     16323     16321     16320     16324
     16322     16320     16323     16322     16320     16324     16323     16320     16324
     16317     16323     16320     16320     16324     16325     16324     16325     16326
     16324     16325     16327     16324     16325     16328     16326     16325     16327
     16326     16325     16328     16327     16325     16328     16325     16328     16329
     16325     16328     16330     16325     16328     16336     16329     16328     16330
     16329     16328     16336     16330     16328     16336     16328     16330     16331
     16330     16331     16332     16330     16331     16333     16332     16331     16333
     16331     16333     16334     16331     16333     16335     16331     16333     16345
     16334     16333     16335     16334     16333     16345     16335     16333     16345
     16328     16336     16337     16328     16336     16338     16328     16336     16339
     16337     16336     16338     16337     16336     16339     16338     16336     16339
     16336     16339     16340     16339     16340     16341     16339     16340     16342
     16341     16340     16342     16340     16342     16343     16340     16342     16344
     16340     16342     16392     16343     16342     16344     16343     16342     16392
     16344     16342     16392     16333     16345     16346     16333     16345     16347
     16333     16345     16348     16346     16345     16347     16346     16345     16348
     16347     16345     16348     16345     16348     16349     16345     16348     16350
     16345     16348     16351     16349     16348     16350     16349     16348     16351
     16350     16348     16351     16348     16351     16352     16348     16351     16353
     16348     16351     16354     16352     16351     16353     16352     16351     16354
     16353     16351     16354     16351     16354     16355     16351     16354     16356
     16351     16354     16357     16355     16354     16356     16355     16354     16357
     16356     16354     16357     16354     16357     16358     16354     16357     16359
     16354     16357     16360     16358     16357     16359     16358     16357     16360
     16359     16357     16360     16357     16360     16361     16357     16360     16362
     16357     16360     16363     16361     16360     16362     16361     16360     16363
     16362     16360     16363     16360     16363     16364     16360     16363     16365
     16364     16363     16365     16363     16365     16366     16363     16365     16367
     16366     16365     16367     16365     16367     16368     16365     16367     16369
     16365     16367     16370     16368     16367     16369     16368     16367     16370
     16369     16367     16370     16367     16370     16371     16367     16370     16372
     16367     16370     16373     16371     16370     16372     16371     16370     16373
     16372     16370     16373     16370     16373     16374     16370     16373     16375
     16370     16373     16376     16374     16373     16375     16374     16373     16376
     16375     16373     16376     16373     16376     16377     16373     16376     16378
     16373     16376     16379     16377     16376     16378     16377     16376     16379
     16378     16376     16379     16376     16379     16380     16376     16379     16381
     16376     16379     16382     16380     16379     16381     16380     16379     16382
     16381     16379     16382     16379     16382     16383     16379     16382     16384
     16379     16382     16385     16383     16382     16384     16383     16382     16385
     16384     16382     16385     16382     16385     16386     16382     16385     16387
     16382     16385     16388     16386     16385     16387     16386     16385     16388
     16387     16385     16388     16385     16388     16389     16385     16388     16390
     16385     16388     16391     16389     16388     16390     16389     16388     16391
     16390     16388     16391     16342     16392     16393     16342     16392     16394
     16342     16392     16395     16393     16392     16394     16393     16392     16395
     16394     16392     16395     16392     16395     16396     16392     16395     16397
     16392     16395     16398     16396     16395     16397     16396     16395     16398
     16397     16395     16398     16395     16398     16399     16395     16398     16400
     16395     16398     16401     16399     16398     16400     16399     16398     16401
     16400     16398     16401     16398     16401     16402     16398     16401     16403
     16398     16401     16404     16402     16401     16403     16402     16401     16404
     16403     16401     16404     16401     16404     16405     16401     16404     16406
     16401     16404     16407     16405     16404     16406     16405     16404     16407
     16406     16404     16407     16404     16407     16408     16404     16407     16409
     16404     16407     16410     16408     16407     16409     16408     16407     16410
     16409     16407     16410     16407     16410     16411     16407     16410     16412
     16407     16410     16413     16411     16410     16412     16411     16410     16413
     16412     16410     16413     16410     16413     16414     16410     16413     16415
     16410     16413     16416     16414     16413     16415     16414     16413     16416
     16415     16413     16416     16413     16416     16417     16413     16416     16418
     16413     16416     16419     16417     16416     16418     16417     16416     16419
     16418     16416     16419     16416     16419     16420     16416     16419     16421
     16416     16419     16422     16420     16419     16421     16420     16419     16422
     16421     16419     16422     16419     16422     16423     16419     16422     16424
     16419     16422     16425     16423     16422     16424     16423     16422     16425
     16424     16422     16425     16422     16425     16426     16422     16425     16427
     16422     16425     16428     16426     16425     16427     16426     16425     16428
     16427     16425     16428     16425     16428     16429     16425     16428     16430
     16425     16428     16431     16429     16428     16430     16429     16428     16431
     16430     16428     16431     16428     16431     16432     16428     16431     16433
     16428     16431     16434     16432     16431     16433     16432     16431     16434
     16433     16431     16434     16436     16435     16439     16436     16435     16443
     16436     16435     16447     16439     16435     16443     16439     16435     16447
     16443     16435     16447     16435     16436     16437     16435     16436     16438
     16435     16436     16451     16437     16436     16438     16437     16436     16451
     16438     16436     16451     16435     16439     16440     16435     16439     16441
     16435     16439     16442     16440     16439     16441     16440     16439     16442
     16441     16439     16442     16435     16443     16444     16435     16443     16445
     16435     16443     16446     16444     16443     16445     16444     16443     16446
     16445     16443     16446     16435     16447     16448     16435     16447     16449
     16435     16447     16450     16448     16447     16449     16448     16447     16450
     16449     16447     16450     16436     16451     16452     16436     16451     16453
     16436     16451     16457     16452     16451     16453     16452     16451     16457
     16453     16451     16457     16455     16454     16456     16455     16454     16457
     16455     16454     16458     16456     16454     16457     16456     16454     16458
     16457     16454     16458     16451     16457     16454     16454     16458     16459
     16458     16459     16460     16458     16459     16461     16458     16459     16462
     16460     16459     16461     16460     16459     16462     16461     16459     16462
     16459     16462     16463     16459     16462     16464     16459     16462     16470
     16463     16462     16464     16463     16462     16470     16464     16462     16470
     16462     16464     16465     16464     16465     16466     16464     16465     16467
     16466     16465     16467     16465     16467     16468     16465     16467     16469
     16465     16467     16479     16468     16467     16469     16468     16467     16479
     16469     16467     16479     16462     16470     16471     16462     16470     16472
     16462     16470     16473     16471     16470     16472     16471     16470     16473
     16472     16470     16473     16470     16473     16474     16473     16474     16475
     16473     16474     16476     16475     16474     16476     16474     16476     16477
     16474     16476     16478     16474     16476     16526     16477     16476     16478
     16477     16476     16526     16478     16476     16526     16467     16479     16480
     16467     16479     16481     16467     16479     16482     16480     16479     16481
     16480     16479     16482     16481     16479     16482     16479     16482     16483
     16479     16482     16484     16479     16482     16485     16483     16482     16484
     16483     16482     16485     16484     16482     16485     16482     16485     16486
     16482     16485     16487     16482     16485     16488     16486     16485     16487
     16486     16485     16488     16487     16485     16488     16485     16488     16489
     16485     16488     16490     16485     16488     16491     16489     16488     16490
     16489     16488     16491     16490     16488     16491     16488     16491     16492
     16488     16491     16493     16488     16491     16494     16492     16491     16493
     16492     16491     16494     16493     16491     16494     16491     16494     16495
     16491     16494     16496     16491     16494     16497     16495     16494     16496
     16495     16494     16497     16496     16494     16497     16494     16497     16498
     16494     16497     16499     16498     16497     16499     16497     16499     16500
     16497     16499     16501     16500     16499     16501     16499     16501     16502
     16499     16501     16503     16499     16501     16504     16502     16501     16503
     16502     16501     16504     16503     16501     16504     16501     16504     16505
     16501     16504     16506     16501     16504     16507     16505     16504     16506
     16505     16504     16507     16506     16504     16507     16504     16507     16508
     16504     16507     16509     16504     16507     16510     16508     16507     16509
     16508     16507     16510     16509     16507     16510     16507     16510     16511
     16507     16510     16512     16507     16510     16513     16511     16510     16512
     16511     16510     16513     16512     16510     16513     16510     16513     16514
     16510     16513     16515     16510     16513     16516     16514     16513     16515
     16514     16513     16516     16515     16513     16516     16513     16516     16517
     16513     16516     16518     16513     16516     16519     16517     16516     16518
     16517     16516     16519     16518     16516     16519     16516     16519     16520
     16516     16519     16521     16516     16519     16522     16520     16519     16521
     16520     16519     16522     16521     16519     16522     16519     16522     16523
     16519     16522     16524     16519     16522     16525     16523     16522     16524
     16523     16522     16525     16524     16522     16525     16476     16526     16527
     16476     16526     16528     16476     16526     16529     16527     16526     16528
     16527     16526     16529     16528     16526     16529     16526     16529     16530
     16526     16529     16531     16526     16529     16532     16530     16529     16531
     16530     16529     16532     16531     16529     16532     16529     16532     16533
     16529     16532     16534     16529     16532     16535     16533     16532     16534
     16533     16532     16535     16534     16532     16535     16532     16535     16536
     16532     16535     16537     16532     16535     16538     16536     16535     16537
     16536     16535     16538     16537     16535     16538     16535     16538     16539
     16535     16538     16540     16535     16538     16541     16539     16538     16540
     16539     16538     16541     16540     16538     16541     16538     16541     16542
     16538     16541     16543     16538     16541     16544     16542     16541     16543
     16542     16541     16544     16543     16541     16544     16541     16544     16545
     16541     16544     16546     16541     16544     16547     16545     16544     16546
     16545     16544     16547     16546     16544     16547     16544     16547     16548
     16544     16547     16549     16544     16547     16550     16548     16547     16549
     16548     16547     16550     16549     16547     16550     16547     16550     16551
     16547     16550     16552     16547     16550     16553     16551     16550     16552
     16551     16550     16553     16552     16550     16553     16550     16553     16554
     16550     16553     16555     16550     16553     16556     16554     16553     16555
     16554     16553     16556     16555     16553     16556     16553     16556     16557
     16553     16556     16558     16553     16556     16559     16557     16556     16558
     16557     16556     16559     16558     16556     16559     16556     16559     16560
     16556     16559     16561     16556     16559     16562     16560     16559     16561
     16560     16559     16562     16561     16559     16562     16559     16562     16563
     16559     16562     16564     16559     16562     16565     16563     16562     16564
     16563     16562     16565     16564     16562     16565     16562     16565     16566
     16562     16565     16567     16562     16565     16568     16566     16565     16567
     16566     16565     16568     16567     16565     16568     16570     16569     16573
     16570     16569     16577     16570     16569     16581     16573     16569     16577
     16573     16569     16581     16577     16569     16581     16569     16570     16571
     16569     16570     16572     16569     16570     16585     16571     16570     16572
     16571     16570     16585     16572     16570     16585     16569     16573     16574
     16569     16573     16575     16569     16573     16576     16574     16573     16575
     16574     16573     16576     16575     16573     16576     16569     16577     16578
     16569     16577     16579     16569     16577     16580     16578     16577     16579
     16578     16577     16580     16579     16577     16580     16569     16581     16582
     16569     16581     16583     16569     16581     16584     16582     16581     16583
     16582     16581     16584     16583     16581     16584     16570     16585     16586
     16570     16585     16587     16570     16585     16591     16586     16585     16587
     16586     16585     16591     16587     16585     16591     16589     16588     16590
     16589     16588     16591     16589     16588     16592     16590     16588     16591
     16590     16588     16592     16591     16588     16592     16585     16591     16588
     16588     16592     16593     16592     16593     16594     16592     16593     16595
     16592     16593     16596     16594     16593     16595     16594     16593     16596
     16595     16593     16596     16593     16596     16597     16593     16596     16598
     16593     16596     16604     16597     16596     16598     16597     16596     16604
     16598     16596     16604     16596     16598     16599     16598     16599     16600
     16598     16599     16601     16600     16599     16601     16599     16601     16602
     16599     16601     16603     16599     16601     16613     16602     16601     16603
     16602     16601     16613     16603     16601     16613     16596     16604     16605
     16596     16604     16606     16596     16604     16607     16605     16604     16606
     16605     16604     16607     16606     16604     16607     16604     16607     16608
     16607     16608     16609     16607     16608     16610     16609     16608     16610
     16608     16610     16611     16608     16610     16612     16608     16610     16660
     16611     16610     16612     16611     16610     16660     16612     16610     16660
     16601     16613     16614     16601     16613     16615     16601     16613     16616
     16614     16613     16615     16614     16613     16616     16615     16613     16616
     16613     16616     16617     16613     16616     16618     16613     16616     16619
     16617     16616     16618     16617     16616     16619     16618     16616     16619
     16616     16619     16620     16616     16619     16621     16616     16619     16622
     16620     16619     16621     16620     16619     16622     16621     16619     16622
     16619     16622     16623     16619     16622     16624     16619     16622     16625
     16623     16622     16624     16623     16622     16625     16624     16622     16625
     16622     16625     16626     16622     16625     16627     16622     16625     16628
     16626     16625     16627     16626     16625     16628     16627     16625     16628
     16625     16628     16629     16625     16628     16630     16625     16628     16631
     16629     16628     16630     16629     16628     16631     16630     16628     16631
     16628     16631     16632     16628     16631     16633     16632     16631     16633
     16631     16633     16634     16631     16633     16635     16634     16633     16635
     16633     16635     16636     16633     16635     16637     16633     16635     16638
     16636     16635     16637     16636     16635     16638     16637     16635     16638
     16635     16638     16639     16635     16638     16640     16635     16638     16641
     16639     16638     16640     16639     16638     16641     16640     16638     16641
     16638     16641     16642     16638     16641     16643     16638     16641     16644
     16642     16641     16643     16642     16641     16644     16643     16641     16644
     16641     16644     16645     16641     16644     16646     16641     16644     16647
     16645     16644     16646     16645     16644     16647     16646     16644     16647
     16644     16647     16648     16644     16647     16649     16644     16647     16650
     16648     16647     16649     16648     16647     16650     16649     16647     16650
     16647     16650     16651     16647     16650     16652     16647     16650     16653
     16651     16650     16652     16651     16650     16653     16652     16650     16653
     16650     16653     16654     16650     16653     16655     16650     16653     16656
     16654     16653     16655     16654     16653     16656     16655     16653     16656
     16653     16656     16657     16653     16656     16658     16653     16656     16659
     16657     16656     16658     16657     16656     16659     16658     16656     16659
     16610     16660     16661     16610     16660     16662     16610     16660     16663
     16661     16660     16662     16661     16660     16663     16662     16660     16663
     16660     16663     16664     16660     16663     16665     16660     16663     16666
     16664     16663     16665     16664     16663     16666     16665     16663     16666
     16663     16666     16667     16663     16666     16668     16663     16666     16669
     16667     16666     16668     16667     16666     16669     16668     16666     16669
     16666     16669     16670     16666     16669     16671     16666     16669     16672
     16670     16669     16671     16670     16669     16672     16671     16669     16672
     16669     16672     16673     16669     16672     16674     16669     16672     16675
     16673     16672     16674     16673     16672     16675     16674     16672     16675
     16672     16675     16676     16672     16675     16677     16672     16675     16678
     16676     16675     16677     16676     16675     16678     16677     16675     16678
     16675     16678     16679     16675     16678     16680     16675     16678     16681
     16679     16678     16680     16679     16678     16681     16680     16678     16681
     16678     16681     16682     16678     16681     16683     16678     16681     16684
     16682     16681     16683     16682     16681     16684     16683     16681     16684
     16681     16684     16685     16681     16684     16686     16681     16684     16687
     16685     16684     16686     16685     16684     16687     16686     16684     16687
     16684     16687     16688     16684     16687     16689     16684     16687     16690
     16688     16687     16689     16688     16687     16690     16689     16687     16690
     16687     16690     16691     16687     16690     16692     16687     16690     16693
     16691     16690     16692     16691     16690     16693     16692     16690     16693
     16690     16693     16694     16690     16693     16695     16690     16693     16696
     16694     16693     16695     16694     16693     16696     16695     16693     16696
     16693     16696     16697     16693     16696     16698     16693     16696     16699
     16697     16696     16698     16697     16696     16699     16698     16696     16699
     16696     16699     16700     16696     16699     16701     16696     16699     16702
     16700     16699     16701     16700     16699     16702     16701     16699     16702
     16704     16703     16705     16704     16703     16706     16704     16703     16707
     16705     16703     16706     16705     16703     16707     16706     16703     16707
     16703     16707     16708     16703     16707     16709     16703     16707     16712
     16708     16707     16709     16708     16707     16712     16709     16707     16712
     16707     16709     16710     16707     16709     16711     16710     16709     16711
     16707     16712     16713     16707     16712     16714     16707     16712     16718
     16713     16712     16714     16713     16712     16718     16714     16712     16718
     16716     16715     16717     16716     16715     16718     16716     16715     16719
     16717     16715     16718     16717     16715     16719     16718     16715     16719
     16712     16718     16715     16715     16719     16720     16719     16720     16721
     16719     16720     16722     16719     16720     16723     16721     16720     16722
     16721     16720     16723     16722     16720     16723     16720     16723     16724
     16720     16723     16725     16720     16723     16731     16724     16723     16725
     16724     16723     16731     16725     16723     16731     16723     16725     16726
     16725     16726     16727     16725     16726     16728     16727     16726     16728
     16726     16728     16729     16726     16728     16730     16726     16728     16740
     16729     16728     16730     16729     16728     16740     16730     16728     16740
     16723     16731     16732     16723     16731     16733     16723     16731     16734
     16732     16731     16733     16732     16731     16734     16733     16731     16734
     16731     16734     16735     16734     16735     16736     16734     16735     16737
     16736     16735     16737     16735     16737     16738     16735     16737     16739
     16735     16737     16787     16738     16737     16739     16738     16737     16787
     16739     16737     16787     16728     16740     16741     16728     16740     16742
     16728     16740     16743     16741     16740     16742     16741     16740     16743
     16742     16740     16743     16740     16743     16744     16740     16743     16745
     16740     16743     16746     16744     16743     16745     16744     16743     16746
     16745     16743     16746     16743     16746     16747     16743     16746     16748
     16743     16746     16749     16747     16746     16748     16747     16746     16749
     16748     16746     16749     16746     16749     16750     16746     16749     16751
     16746     16749     16752     16750     16749     16751     16750     16749     16752
     16751     16749     16752     16749     16752     16753     16749     16752     16754
     16749     16752     16755     16753     16752     16754     16753     16752     16755
     16754     16752     16755     16752     16755     16756     16752     16755     16757
     16752     16755     16758     16756     16755     16757     16756     16755     16758
     16757     16755     16758     16755     16758     16759     16755     16758     16760
     16759     16758     16760     16758     16760     16761     16758     16760     16762
     16761     16760     16762     16760     16762     16763     16760     16762     16764
     16760     16762     16765     16763     16762     16764     16763     16762     16765
     16764     16762     16765     16762     16765     16766     16762     16765     16767
     16762     16765     16768     16766     16765     16767     16766     16765     16768
     16767     16765     16768     16765     16768     16769     16765     16768     16770
     16765     16768     16771     16769     16768     16770     16769     16768     16771
     16770     16768     16771     16768     16771     16772     16768     16771     16773
     16768     16771     16774     16772     16771     16773     16772     16771     16774
     16773     16771     16774     16771     16774     16775     16771     16774     16776
     16771     16774     16777     16775     16774     16776     16775     16774     16777
     16776     16774     16777     16774     16777     16778     16774     16777     16779
     16774     16777     16780     16778     16777     16779     16778     16777     16780
     16779     16777     16780     16777     16780     16781     16777     16780     16782
     16777     16780     16783     16781     16780     16782     16781     16780     16783
     16782     16780     16783     16780     16783     16784     16780     16783     16785
     16780     16783     16786     16784     16783     16785     16784     16783     16786
     16785     16783     16786     16737     16787     16788     16737     16787     16789
     16737     16787     16790     16788     16787     16789     16788     16787     16790
     16789     16787     16790     16787     16790     16791     16787     16790     16792
     16787     16790     16793     16791     16790     16792     16791     16790     16793
     16792     16790     16793     16790     16793     16794     16790     16793     16795
     16790     16793     16796     16794     16793     16795     16794     16793     16796
     16795     16793     16796     16793     16796     16797     16793     16796     16798
     16793     16796     16799     16797     16796     16798     16797     16796     16799
     16798     16796     16799     16796     16799     16800     16796     16799     16801
     16796     16799     16802     16800     16799     16801     16800     16799     16802
     16801     16799     16802     16799     16802     16803     16799     16802     16804
     16799     16802     16805     16803     16802     16804     16803     16802     16805
     16804     16802     16805     16802     16805     16806     16802     16805     16807
     16802     16805     16808     16806     16805     16807     16806     16805     16808
     16807     16805     16808     16805     16808     16809     16805     16808     16810
     16805     16808     16811     16809     16808     16810     16809     16808     16811
     16810     16808     16811     16808     16811     16812     16808     16811     16813
     16808     16811     16814     16812     16811     16813     16812     16811     16814
     16813     16811     16814     16811     16814     16815     16811     16814     16816
     16811     16814     16817     16815     16814     16816     16815     16814     16817
     16816     16814     16817     16814     16817     16818     16814     16817     16819
     16814     16817     16820     16818     16817     16819     16818     16817     16820
     16819     16817     16820     16817     16820     16821     16817     16820     16822
     16817     16820     16823     16821     16820     16822     16821     16820     16823
     16822     16820     16823     16820     16823     16824     16820     16823     16825
     16820     16823     16826     16824     16823     16825     16824     16823     16826
     16825     16823     16826     16823     16826     16827     16823     16826     16828
     16823     16826     16829     16827     16826     16828     16827     16826     16829
     16828     16826     16829     16831     16830     16834     16831     16830     16838
     16831     16830     16842     16834     16830     16838     16834     16830     16842
     16838     16830     16842     16830     16831     16832     16830     16831     16833
     16830     16831     16846     16832     16831     16833     16832     16831     16846
     16833     16831     16846     16830     16834     16835     16830     16834     16836
     16830     16834     16837     16835     16834     16836     16835     16834     16837
     16836     16834     16837     16830     16838     16839     16830     16838     16840
     16830     16838     16841     16839     16838     16840     16839     16838     16841
     16840     16838     16841     16830     16842     16843     16830     16842     16844
     16830     16842     16845     16843     16842     16844     16843     16842     16845
     16844     16842     16845     16831     16846     16847     16831     16846     16848
     16831     16846     16852     16847     16846     16848     16847     16846     16852
     16848     16846     16852     16850     16849     16851     16850     16849     16852
     16850     16849     16853     16851     16849     16852     16851     16849     16853
     16852     16849     16853     16846     16852     16849     16849     16853     16854
     16853     16854     16855     16853     16854     16856     16853     16854     16857
     16855     16854     16856     16855     16854     16857     16856     16854     16857
     16854     16857     16858     16854     16857     16859     16854     16857     16865
     16858     16857     16859     16858     16857     16865     16859     16857     16865
     16857     16859     16860     16859     16860     16861     16859     16860     16862
     16861     16860     16862     16860     16862     16863     16860     16862     16864
     16860     16862     16874     16863     16862     16864     16863     16862     16874
     16864     16862     16874     16857     16865     16866     16857     16865     16867
     16857     16865     16868     16866     16865     16867     16866     16865     16868
     16867     16865     16868     16865     16868     16869     16868     16869     16870
     16868     16869     16871     16870     16869     16871     16869     16871     16872
     16869     16871     16873     16869     16871     16921     16872     16871     16873
     16872     16871     16921     16873     16871     16921     16862     16874     16875
     16862     16874     16876     16862     16874     16877     16875     16874     16876
     16875     16874     16877     16876     16874     16877     16874     16877     16878
     16874     16877     16879     16874     16877     16880     16878     16877     16879
     16878     16877     16880     16879     16877     16880     16877     16880     16881
     16877     16880     16882     16877     16880     16883     16881     16880     16882
     16881     16880     16883     16882     16880     16883     16880     16883     16884
     16880     16883     16885     16880     16883     16886     16884     16883     16885
     16884     16883     16886     16885     16883     16886     16883     16886     16887
     16883     16886     16888     16883     16886     16889     16887     16886     16888
     16887     16886     16889     16888     16886     16889     16886     16889     16890
     16886     16889     16891     16886     16889     16892     16890     16889     16891
     16890     16889     16892     16891     16889     16892     16889     16892     16893
     16889     16892     16894     16893     16892     16894     16892     16894     16895
     16892     16894     16896     16895     16894     16896     16894     16896     16897
     16894     16896     16898     16894     16896     16899     16897     16896     16898
     16897     16896     16899     16898     16896     16899     16896     16899     16900
     16896     16899     16901     16896     16899     16902     16900     16899     16901
     16900     16899     16902     16901     16899     16902     16899     16902     16903
     16899     16902     16904     16899     16902     16905     16903     16902     16904
     16903     16902     16905     16904     16902     16905     16902     16905     16906
     16902     16905     16907     16902     16905     16908     16906     16905     16907
     16906     16905     16908     16907     16905     16908     16905     16908     16909
     16905     16908     16910     16905     16908     16911     16909     16908     16910
     16909     16908     16911     16910     16908     16911     16908     16911     16912
     16908     16911     16913     16908     16911     16914     16912     16911     16913
     16912     16911     16914     16913     16911     16914     16911     16914     16915
     16911     16914     16916     16911     16914     16917     16915     16914     16916
     16915     16914     16917     16916     16914     16917     16914     16917     16918
     16914     16917     16919     16914     16917     16920     16918     16917     16919
     16918     16917     16920     16919     16917     16920     16871     16921     16922
     16871     16921     16923     16871     16921     16924     16922     16921     16923
     16922     16921     16924     16923     16921     16924     16921     16924     16925
     16921     16924     16926     16921     16924     16927     16925     16924     16926
     16925     16924     16927     16926     16924     16927     16924     16927     16928
     16924     16927     16929     16924     16927     16930     16928     16927     16929
     16928     16927     16930     16929     16927     16930     16927     16930     16931
     16927     16930     16932     16927     16930     16933     16931     16930     16932
     16931     16930     16933     16932     16930     16933     16930     16933     16934
     16930     16933     16935     16930     16933     16936     16934     16933     16935
     16934     16933     16936     16935     16933     16936     16933     16936     16937
     16933     16936     16938     16933     16936     16939     16937     16936     16938
     16937     16936     16939     16938     16936     16939     16936     16939     16940
     16936     16939     16941     16936     16939     16942     16940     16939     16941
     16940     16939     16942     16941     16939     16942     16939     16942     16943
     16939     16942     16944     16939     16942     16945     16943     16942     16944
     16943     16942     16945     16944     16942     16945     16942     16945     16946
     16942     16945     16947     16942     16945     16948     16946     16945     16947
     16946     16945     16948     16947     16945     16948     16945     16948     16949
     16945     16948     16950     16945     16948     16951     16949     16948     16950
     16949     16948     16951     16950     16948     16951     16948     16951     16952
     16948     16951     16953     16948     16951     16954     16952     16951     16953
     16952     16951     16954     16953     16951     16954     16951     16954     16955
     16951     16954     16956     16951     16954     16957     16955     16954     16956
     16955     16954     16957     16956     16954     16957     16954     16957     16958
     16954     16957     16959     16954     16957     16960     16958     16957     16959
     16958     16957     16960     16959     16957     16960     16957     16960     16961
     16957     16960     16962     16957     16960     16963     16961     16960     16962
     16961     16960     16963     16962     16960     16963     16965     16964     16968
     16965     16964     16972     16965     16964     16976     16968     16964     16972
     16968     16964     16976     16972     16964     16976     16964     16965     16966
     16964     16965     16967     16964     16965     16980     16966     16965     16967
     16966     16965     16980     16967     16965     16980     16964     16968     16969
     16964     16968     16970     16964     16968     16971     16969     16968     16970
     16969     16968     16971     16970     16968     16971     16964     16972     16973
     16964     16972     16974     16964     16972     16975     16973     16972     16974
     16973     16972     16975     16974     16972     16975     16964     16976     16977
     16964     16976     16978     16964     16976     16979     16977     16976     16978
     16977     16976     16979     16978     16976     16979     16965     16980     16981
     16965     16980     16982     16965     16980     16986     16981     16980     16982
     16981     16980     16986     16982     16980     16986     16984     16983     16985
     16984     16983     16986     16984     16983     16987     16985     16983     16986
     16985     16983     16987     16986     16983     16987     16980     16986     16983
     16983     16987     16988     16987     16988     16989     16987     16988     16990
     16987     16988     16991     16989     16988     16990     16989     16988     16991
     16990     16988     16991     16988     16991     16992     16988     16991     16993
     16988     16991     16999     16992     16991     16993     16992     16991     16999
     16993     16991     16999     16991     16993     16994     16993     16994     16995
     16993     16994     16996     16995     16994     16996     16994     16996     16997
     16994     16996     16998     16994     16996     17008     16997     16996     16998
     16997     16996     17008     16998     16996     17008     16991     16999     17000
     16991     16999     17001     16991     16999     17002     17000     16999     17001
     17000     16999     17002     17001     16999     17002     16999     17002     17003
     17002     17003     17004     17002     17003     17005     17004     17003     17005
     17003     17005     17006     17003     17005     17007     17003     17005     17055
     17006     17005     17007     17006     17005     17055     17007     17005     17055
     16996     17008     17009     16996     17008     17010     16996     17008     17011
     17009     17008     17010     17009     17008     17011     17010     17008     17011
     17008     17011     17012     17008     17011     17013     17008     17011     17014
     17012     17011     17013     17012     17011     17014     17013     17011     17014
     17011     17014     17015     17011     17014     17016     17011     17014     17017
     17015     17014     17016     17015     17014     17017     17016     17014     17017
     17014     17017     17018     17014     17017     17019     17014     17017     17020
     17018     17017     17019     17018     17017     17020     17019     17017     17020
     17017     17020     17021     17017     17020     17022     17017     17020     17023
     17021     17020     17022     17021     17020     17023     17022     17020     17023
     17020     17023     17024     17020     17023     17025     17020     17023     17026
     17024     17023     17025     17024     17023     17026     17025     17023     17026
     17023     17026     17027     17023     17026     17028     17027     17026     17028
     17026     17028     17029     17026     17028     17030     17029     17028     17030
     17028     17030     17031     17028     17030     17032     17028     17030     17033
     17031     17030     17032     17031     17030     17033     17032     17030     17033
     17030     17033     17034     17030     17033     17035     17030     17033     17036
     17034     17033     17035     17034     17033     17036     17035     17033     17036
     17033     17036     17037     17033     17036     17038     17033     17036     17039
     17037     17036     17038     17037     17036     17039     17038     17036     17039
     17036     17039     17040     17036     17039     17041     17036     17039     17042
     17040     17039     17041     17040     17039     17042     17041     17039     17042
     17039     17042     17043     17039     17042     17044     17039     17042     17045
     17043     17042     17044     17043     17042     17045     17044     17042     17045
     17042     17045     17046     17042     17045     17047     17042     17045     17048
     17046     17045     17047     17046     17045     17048     17047     17045     17048
     17045     17048     17049     17045     17048     17050     17045     17048     17051
     17049     17048     17050     17049     17048     17051     17050     17048     17051
     17048     17051     17052     17048     17051     17053     17048     17051     17054
     17052     17051     17053     17052     17051     17054     17053     17051     17054
     17005     17055     17056     17005     17055     17057     17005     17055     17058
     17056     17055     17057     17056     17055     17058     17057     17055     17058
     17055     17058     17059     17055     17058     17060     17055     17058     17061
     17059     17058     17060     17059     17058     17061     17060     17058     17061
     17058     17061     17062     17058     17061     17063     17058     17061     17064
     17062     17061     17063     17062     17061     17064     17063     17061     17064
     17061     17064     17065     17061     17064     17066     17061     17064     17067
     17065     17064     17066     17065     17064     17067     17066     17064     17067
     17064     17067     17068     17064     17067     17069     17064     17067     17070
     17068     17067     17069     17068     17067     17070     17069     17067     17070
     17067     17070     17071     17067     17070     17072     17067     17070     17073
     17071     17070     17072     17071     17070     17073     17072     17070     17073
     17070     17073     17074     17070     17073     17075     17070     17073     17076
     17074     17073     17075     17074     17073     17076     17075     17073     17076
     17073     17076     17077     17073     17076     17078     17073     17076     17079
     17077     17076     17078     17077     17076     17079     17078     17076     17079
     17076     17079     17080     17076     17079     17081     17076     17079     17082
     17080     17079     17081     17080     17079     17082     17081     17079     17082
     17079     17082     17083     17079     17082     17084     17079     17082     17085
     17083     17082     17084     17083     17082     17085     17084     17082     17085
     17082     17085     17086     17082     17085     17087     17082     17085     17088
     17086     17085     17087     17086     17085     17088     17087     17085     17088
     17085     17088     17089     17085     17088     17090     17085     17088     17091
     17089     17088     17090     17089     17088     17091     17090     17088     17091
     17088     17091     17092     17088     17091     17093     17088     17091     17094
     17092     17091     17093     17092     17091     17094     17093     17091     17094
     17091     17094     17095     17091     17094     17096     17091     17094     17097
     17095     17094     17096     17095     17094     17097     17096     17094     17097
     17099     17098     17102     17099     17098     17106     17099     17098     17110
     17102     17098     17106     17102     17098     17110     17106     17098     17110
     17098     17099     17100     17098     17099     17101     17098     17099     17114
     17100     17099     17101     17100     17099     17114     17101     17099     17114
     17098     17102     17103     17098     17102     17104     17098     17102     17105
     17103     17102     17104     17103     17102     17105     17104     17102     17105
     17098     17106     17107     17098     17106     17108     17098     17106     17109
     17107     17106     17108     17107     17106     17109     17108     17106     17109
     17098     17110     17111     17098     17110     17112     17098     17110     17113
     17111     17110     17112     17111     17110     17113     17112     17110     17113
     17099     17114     17115     17099     17114     17116     17099     17114     17120
     17115     17114     17116     17115     17114     17120     17116     17114     17120
     17118     17117     17119     17118     17117     17120     17118     17117     17121
     17119     17117     17120     17119     17117     17121     17120     17117     17121
     17114     17120     17117     17117     17121     17122     17121     17122     17123
     17121     17122     17124     17121     17122     17125     17123     17122     17124
     17123     17122     17125     17124     17122     17125     17122     17125     17126
     17122     17125     17127     17122     17125     17133     17126     17125     17127
     17126     17125     17133     17127     17125     17133     17125     17127     17128
     17127     17128     17129     17127     17128     17130     17129     17128     17130
     17128     17130     17131     17128     17130     17132     17128     17130     17142
     17131     17130     17132     17131     17130     17142     17132     17130     17142
     17125     17133     17134     17125     17133     17135     17125     17133     17136
     17134     17133     17135     17134     17133     17136     17135     17133     17136
     17133     17136     17137     17136     17137     17138     17136     17137     17139
     17138     17137     17139     17137     17139     17140     17137     17139     17141
     17137     17139     17189     17140     17139     17141     17140     17139     17189
     17141     17139     17189     17130     17142     17143     17130     17142     17144
     17130     17142     17145     17143     17142     17144     17143     17142     17145
     17144     17142     17145     17142     17145     17146     17142     17145     17147
     17142     17145     17148     17146     17145     17147     17146     17145     17148
     17147     17145     17148     17145     17148     17149     17145     17148     17150
     17145     17148     17151     17149     17148     17150     17149     17148     17151
     17150     17148     17151     17148     17151     17152     17148     17151     17153
     17148     17151     17154     17152     17151     17153     17152     17151     17154
     17153     17151     17154     17151     17154     17155     17151     17154     17156
     17151     17154     17157     17155     17154     17156     17155     17154     17157
     17156     17154     17157     17154     17157     17158     17154     17157     17159
     17154     17157     17160     17158     17157     17159     17158     17157     17160
     17159     17157     17160     17157     17160     17161     17157     17160     17162
     17161     17160     17162     17160     17162     17163     17160     17162     17164
     17163     17162     17164     17162     17164     17165     17162     17164     17166
     17162     17164     17167     17165     17164     17166     17165     17164     17167
     17166     17164     17167     17164     17167     17168     17164     17167     17169
     17164     17167     17170     17168     17167     17169     17168     17167     17170
     17169     17167     17170     17167     17170     17171     17167     17170     17172
     17167     17170     17173     17171     17170     17172     17171     17170     17173
     17172     17170     17173     17170     17173     17174     17170     17173     17175
     17170     17173     17176     17174     17173     17175     17174     17173     17176
     17175     17173     17176     17173     17176     17177     17173     17176     17178
     17173     17176     17179     17177     17176     17178     17177     17176     17179
     17178     17176     17179     17176     17179     17180     17176     17179     17181
     17176     17179     17182     17180     17179     17181     17180     17179     17182
     17181     17179     17182     17179     17182     17183     17179     17182     17184
     17179     17182     17185     17183     17182     17184     17183     17182     17185
     17184     17182     17185     17182     17185     17186     17182     17185     17187
     17182     17185     17188     17186     17185     17187     17186     17185     17188
     17187     17185     17188     17139     17189     17190     17139     17189     17191
     17139     17189     17192     17190     17189     17191     17190     17189     17192
     17191     17189     17192     17189     17192     17193     17189     17192     17194
     17189     17192     17195     17193     17192     17194     17193     17192     17195
     17194     17192     17195     17192     17195     17196     17192     17195     17197
     17192     17195     17198     17196     17195     17197     17196     17195     17198
     17197     17195     17198     17195     17198     17199     17195     17198     17200
     17195     17198     17201     17199     17198     17200     17199     17198     17201
     17200     17198     17201     17198     17201     17202     17198     17201     17203
     17198     17201     17204     17202     17201     17203     17202     17201     17204
     17203     17201     17204     17201     17204     17205     17201     17204     17206
     17201     17204     17207     17205     17204     17206     17205     17204     17207
     17206     17204     17207     17204     17207     17208     17204     17207     17209
     17204     17207     17210     17208     17207     17209     17208     17207     17210
     17209     17207     17210     17207     17210     17211     17207     17210     17212
     17207     17210     17213     17211     17210     17212     17211     17210     17213
     17212     17210     17213     17210     17213     17214     17210     17213     17215
     17210     17213     17216     17214     17213     17215     17214     17213     17216
     17215     17213     17216     17213     17216     17217     17213     17216     17218
     17213     17216     17219     17217     17216     17218     17217     17216     17219
     17218     17216     17219     17216     17219     17220     17216     17219     17221
     17216     17219     17222     17220     17219     17221     17220     17219     17222
     17221     17219     17222     17219     17222     17223     17219     17222     17224
     17219     17222     17225     17223     17222     17224     17223     17222     17225
     17224     17222     17225     17222     17225     17226     17222     17225     17227
     17222     17225     17228     17226     17225     17227     17226     17225     17228
     17227     17225     17228     17225     17228     17229     17225     17228     17230
     17225     17228     17231     17229     17228     17230     17229     17228     17231
     17230     17228     17231     17233     17232     17234     17233     17232     17235
     17233     17232     17236     17234     17232     17235     17234     17232     17236
     17235     17232     17236     17232     17236     17237     17232     17236     17238
     17232     17236     17241     17237     17236     17238     17237     17236     17241
     17238     17236     17241     17236     17238     17239     17236     17238     17240
     17239     17238     17240     17236     17241     17242     17236     17241     17243
     17236     17241     17247     17242     17241     17243     17242     17241     17247
     17243     17241     17247     17245     17244     17246     17245     17244     17247
     17245     17244     17248     17246     17244     17247     17246     17244     17248
     17247     17244     17248     17241     17247     17244     17244     17248     17249
     17248     17249     17250     17248     17249     17251     17248     17249     17252
     17250     17249     17251     17250     17249     17252     17251     17249     17252
     17249     17252     17253     17249     17252     17254     17249     17252     17260
     17253     17252     17254     17253     17252     17260     17254     17252     17260
     17252     17254     17255     17254     17255     17256     17254     17255     17257
     17256     17255     17257     17255     17257     17258     17255     17257     17259
     17255     17257     17269     17258     17257     17259     17258     17257     17269
     17259     17257     17269     17252     17260     17261     17252     17260     17262
     17252     17260     17263     17261     17260     17262     17261     17260     17263
     17262     17260     17263     17260     17263     17264     17263     17264     17265
     17263     17264     17266     17265     17264     17266     17264     17266     17267
     17264     17266     17268     17264     17266     17316     17267     17266     17268
     17267     17266     17316     17268     17266     17316     17257     17269     17270
     17257     17269     17271     17257     17269     17272     17270     17269     17271
     17270     17269     17272     17271     17269     17272     17269     17272     17273
     17269     17272     17274     17269     17272     17275     17273     17272     17274
     17273     17272     17275     17274     17272     17275     17272     17275     17276
     17272     17275     17277     17272     17275     17278     17276     17275     17277
     17276     17275     17278     17277     17275     17278     17275     17278     17279
     17275     17278     17280     17275     17278     17281     17279     17278     17280
     17279     17278     17281     17280     17278     17281     17278     17281     17282
     17278     17281     17283     17278     17281     17284     17282     17281     17283
     17282     17281     17284     17283     17281     17284     17281     17284     17285
     17281     17284     17286     17281     17284     17287     17285     17284     17286
     17285     17284     17287     17286     17284     17287     17284     17287     17288
     17284     17287     17289     17288     17287     17289     17287     17289     17290
     17287     17289     17291     17290     17289     17291     17289     17291     17292
     17289     17291     17293     17289     17291     17294     17292     17291     17293
     17292     17291     17294     17293     17291     17294     17291     17294     17295
     17291     17294     17296     17291     17294     17297     17295     17294     17296
     17295     17294     17297     17296     17294     17297     17294     17297     17298
     17294     17297     17299     17294     17297     17300     17298     17297     17299
     17298     17297     17300     17299     17297     17300     17297     17300     17301
     17297     17300     17302     17297     17300     17303     17301     17300     17302
     17301     17300     17303     17302     17300     17303     17300     17303     17304
     17300     17303     17305     17300     17303     17306     17304     17303     17305
     17304     17303     17306     17305     17303     17306     17303     17306     17307
     17303     17306     17308     17303     17306     17309     17307     17306     17308
     17307     17306     17309     17308     17306     17309     17306     17309     17310
     17306     17309     17311     17306     17309     17312     17310     17309     17311
     17310     17309     17312     17311     17309     17312     17309     17312     17313
     17309     17312     17314     17309     17312     17315     17313     17312     17314
     17313     17312     17315     17314     17312     17315     17266     17316     17317
     17266     17316     17318     17266     17316     17319     17317     17316     17318
     17317     17316     17319     17318     17316     17319     17316     17319     17320
     17316     17319     17321     17316     17319     17322     17320     17319     17321
     17320     17319     17322     17321     17319     17322     17319     17322     17323
     17319     17322     17324     17319     17322     17325     17323     17322     17324
     17323     17322     17325     17324     17322     17325     17322     17325     17326
     17322     17325     17327     17322     17325     17328     17326     17325     17327
     17326     17325     17328     17327     17325     17328     17325     17328     17329
     17325     17328     17330     17325     17328     17331     17329     17328     17330
     17329     17328     17331     17330     17328     17331     17328     17331     17332
     17328     17331     17333     17328     17331     17334     17332     17331     17333
     17332     17331     17334     17333     17331     17334     17331     17334     17335
     17331     17334     17336     17331     17334     17337     17335     17334     17336
     17335     17334     17337     17336     17334     17337     17334     17337     17338
     17334     17337     17339     17334     17337     17340     17338     17337     17339
     17338     17337     17340     17339     17337     17340     17337     17340     17341
     17337     17340     17342     17337     17340     17343     17341     17340     17342
     17341     17340     17343     17342     17340     17343     17340     17343     17344
     17340     17343     17345     17340     17343     17346     17344     17343     17345
     17344     17343     17346     17345     17343     17346     17343     17346     17347
     17343     17346     17348     17343     17346     17349     17347     17346     17348
     17347     17346     17349     17348     17346     17349     17346     17349     17350
     17346     17349     17351     17346     17349     17352     17350     17349     17351
     17350     17349     17352     17351     17349     17352     17349     17352     17353
     17349     17352     17354     17349     17352     17355     17353     17352     17354
     17353     17352     17355     17354     17352     17355     17352     17355     17356
     17352     17355     17357     17352     17355     17358     17356     17355     17357
     17356     17355     17358     17357     17355     17358     17360     17359     17363
     17360     17359     17367     17360     17359     17371     17363     17359     17367
     17363     17359     17371     17367     17359     17371     17359     17360     17361
     17359     17360     17362     17359     17360     17375     17361     17360     17362
     17361     17360     17375     17362     17360     17375     17359     17363     17364
     17359     17363     17365     17359     17363     17366     17364     17363     17365
     17364     17363     17366     17365     17363     17366     17359     17367     17368
     17359     17367     17369     17359     17367     17370     17368     17367     17369
     17368     17367     17370     17369     17367     17370     17359     17371     17372
     17359     17371     17373     17359     17371     17374     17372     17371     17373
     17372     17371     17374     17373     17371     17374     17360     17375     17376
     17360     17375     17377     17360     17375     17381     17376     17375     17377
     17376     17375     17381     17377     17375     17381     17379     17378     17380
     17379     17378     17381     17379     17378     17382     17380     17378     17381
     17380     17378     17382     17381     17378     17382     17375     17381     17378
     17378     17382     17383     17382     17383     17384     17382     17383     17385
     17382     17383     17386     17384     17383     17385     17384     17383     17386
     17385     17383     17386     17383     17386     17387     17383     17386     17388
     17383     17386     17394     17387     17386     17388     17387     17386     17394
     17388     17386     17394     17386     17388     17389     17388     17389     17390
     17388     17389     17391     17390     17389     17391     17389     17391     17392
     17389     17391     17393     17389     17391     17403     17392     17391     17393
     17392     17391     17403     17393     17391     17403     17386     17394     17395
     17386     17394     17396     17386     17394     17397     17395     17394     17396
     17395     17394     17397     17396     17394     17397     17394     17397     17398
     17397     17398     17399     17397     17398     17400     17399     17398     17400
     17398     17400     17401     17398     17400     17402     17398     17400     17450
     17401     17400     17402     17401     17400     17450     17402     17400     17450
     17391     17403     17404     17391     17403     17405     17391     17403     17406
     17404     17403     17405     17404     17403     17406     17405     17403     17406
     17403     17406     17407     17403     17406     17408     17403     17406     17409
     17407     17406     17408     17407     17406     17409     17408     17406     17409
     17406     17409     17410     17406     17409     17411     17406     17409     17412
     17410     17409     17411     17410     17409     17412     17411     17409     17412
     17409     17412     17413     17409     17412     17414     17409     17412     17415
     17413     17412     17414     17413     17412     17415     17414     17412     17415
     17412     17415     17416     17412     17415     17417     17412     17415     17418
     17416     17415     17417     17416     17415     17418     17417     17415     17418
     17415     17418     17419     17415     17418     17420     17415     17418     17421
     17419     17418     17420     17419     17418     17421     17420     17418     17421
     17418     17421     17422     17418     17421     17423     17422     17421     17423
     17421     17423     17424     17421     17423     17425     17424     17423     17425
     17423     17425     17426     17423     17425     17427     17423     17425     17428
     17426     17425     17427     17426     17425     17428     17427     17425     17428
     17425     17428     17429     17425     17428     17430     17425     17428     17431
     17429     17428     17430     17429     17428     17431     17430     17428     17431
     17428     17431     17432     17428     17431     17433     17428     17431     17434
     17432     17431     17433     17432     17431     17434     17433     17431     17434
     17431     17434     17435     17431     17434     17436     17431     17434     17437
     17435     17434     17436     17435     17434     17437     17436     17434     17437
     17434     17437     17438     17434     17437     17439     17434     17437     17440
     17438     17437     17439     17438     17437     17440     17439     17437     17440
     17437     17440     17441     17437     17440     17442     17437     17440     17443
     17441     17440     17442     17441     17440     17443     17442     17440     17443
     17440     17443     17444     17440     17443     17445     17440     17443     17446
     17444     17443     17445     17444     17443     17446     17445     17443     17446
     17443     17446     17447     17443     17446     17448     17443     17446     17449
     17447     17446     17448     17447     17446     17449     17448     17446     17449
     17400     17450     17451     17400     17450     17452     17400     17450     17453
     17451     17450     17452     17451     17450     17453     17452     17450     17453
     17450     17453     17454     17450     17453     17455     17450     17453     17456
     17454     17453     17455     17454     17453     17456     17455     17453     17456
     17453     17456     17457     17453     17456     17458     17453     17456     17459
     17457     17456     17458     17457     17456     17459     17458     17456     17459
     17456     17459     17460     17456     17459     17461     17456     17459     17462
     17460     17459     17461     17460     17459     17462     17461     17459     17462
     17459     17462     17463     17459     17462     17464     17459     17462     17465
     17463     17462     17464     17463     17462     17465     17464     17462     17465
     17462     17465     17466     17462     17465     17467     17462     17465     17468
     17466     17465     17467     17466     17465     17468     17467     17465     17468
     17465     17468     17469     17465     17468     17470     17465     17468     17471
     17469     17468     17470     17469     17468     17471     17470     17468     17471
     17468     17471     17472     17468     17471     17473     17468     17471     17474
     17472     17471     17473     17472     17471     17474     17473     17471     17474
     17471     17474     17475     17471     17474     17476     17471     17474     17477
     17475     17474     17476     17475     17474     17477     17476     17474     17477
     17474     17477     17478     17474     17477     17479     17474     17477     17480
     17478     17477     17479     17478     17477     17480     17479     17477     17480
     17477     17480     17481     17477     17480     17482     17477     17480     17483
     17481     17480     17482     17481     17480     17483     17482     17480     17483
     17480     17483     17484     17480     17483     17485     17480     17483     17486
     17484     17483     17485     17484     17483     17486     17485     17483     17486
     17483     17486     17487     17483     17486     17488     17483     17486     17489
     17487     17486     17488     17487     17486     17489     17488     17486     17489
     17486     17489     17490     17486     17489     17491     17486     17489     17492
     17490     17489     17491     17490     17489     17492     17491     17489     17492
     17494     17493     17495     17494     17493     17496     17494     17493     17497
     17495     17493     17496     17495     17493     17497     17496     17493     17497
     17493     17497     17498     17493     17497     17499     17493     17497     17502
     17498     17497     17499     17498     17497     17502     17499     17497     17502
     17497     17499     17500     17497     17499     17501     17500     17499     17501
     17497     17502     17503     17497     17502     17504     17497     17502     17508
     17503     17502     17504     17503     17502     17508     17504     17502     17508
     17506     17505     17507     17506     17505     17508     17506     17505     17509
     17507     17505     17508     17507     17505     17509     17508     17505     17509
     17502     17508     17505     17505     17509     17510     17509     17510     17511
     17509     17510     17512     17509     17510     17513     17511     17510     17512
     17511     17510     17513     17512     17510     17513     17510     17513     17514
     17510     17513     17515     17510     17513     17521     17514     17513     17515
     17514     17513     17521     17515     17513     17521     17513     17515     17516
     17515     17516     17517     17515     17516     17518     17517     17516     17518
     17516     17518     17519     17516     17518     17520     17516     17518     17530
     17519     17518     17520     17519     17518     17530     17520     17518     17530
     17513     17521     17522     17513     17521     17523     17513     17521     17524
     17522     17521     17523     17522     17521     17524     17523     17521     17524
     17521     17524     17525     17524     17525     17526     17524     17525     17527
     17526     17525     17527     17525     17527     17528     17525     17527     17529
     17525     17527     17577     17528     17527     17529     17528     17527     17577
     17529     17527     17577     17518     17530     17531     17518     17530     17532
     17518     17530     17533     17531     17530     17532     17531     17530     17533
     17532     17530     17533     17530     17533     17534     17530     17533     17535
     17530     17533     17536     17534     17533     17535     17534     17533     17536
     17535     17533     17536     17533     17536     17537     17533     17536     17538
     17533     17536     17539     17537     17536     17538     17537     17536     17539
     17538     17536     17539     17536     17539     17540     17536     17539     17541
     17536     17539     17542     17540     17539     17541     17540     17539     17542
     17541     17539     17542     17539     17542     17543     17539     17542     17544
     17539     17542     17545     17543     17542     17544     17543     17542     17545
     17544     17542     17545     17542     17545     17546     17542     17545     17547
     17542     17545     17548     17546     17545     17547     17546     17545     17548
     17547     17545     17548     17545     17548     17549     17545     17548     17550
     17549     17548     17550     17548     17550     17551     17548     17550     17552
     17551     17550     17552     17550     17552     17553     17550     17552     17554
     17550     17552     17555     17553     17552     17554     17553     17552     17555
     17554     17552     17555     17552     17555     17556     17552     17555     17557
     17552     17555     17558     17556     17555     17557     17556     17555     17558
     17557     17555     17558     17555     17558     17559     17555     17558     17560
     17555     17558     17561     17559     17558     17560     17559     17558     17561
     17560     17558     17561     17558     17561     17562     17558     17561     17563
     17558     17561     17564     17562     17561     17563     17562     17561     17564
     17563     17561     17564     17561     17564     17565     17561     17564     17566
     17561     17564     17567     17565     17564     17566     17565     17564     17567
     17566     17564     17567     17564     17567     17568     17564     17567     17569
     17564     17567     17570     17568     17567     17569     17568     17567     17570
     17569     17567     17570     17567     17570     17571     17567     17570     17572
     17567     17570     17573     17571     17570     17572     17571     17570     17573
     17572     17570     17573     17570     17573     17574     17570     17573     17575
     17570     17573     17576     17574     17573     17575     17574     17573     17576
     17575     17573     17576     17527     17577     17578     17527     17577     17579
     17527     17577     17580     17578     17577     17579     17578     17577     17580
     17579     17577     17580     17577     17580     17581     17577     17580     17582
     17577     17580     17583     17581     17580     17582     17581     17580     17583
     17582     17580     17583     17580     17583     17584     17580     17583     17585
     17580     17583     17586     17584     17583     17585     17584     17583     17586
     17585     17583     17586     17583     17586     17587     17583     17586     17588
     17583     17586     17589     17587     17586     17588     17587     17586     17589
     17588     17586     17589     17586     17589     17590     17586     17589     17591
     17586     17589     17592     17590     17589     17591     17590     17589     17592
     17591     17589     17592     17589     17592     17593     17589     17592     17594
     17589     17592     17595     17593     17592     17594     17593     17592     17595
     17594     17592     17595     17592     17595     17596     17592     17595     17597
     17592     17595     17598     17596     17595     17597     17596     17595     17598
     17597     17595     17598     17595     17598     17599     17595     17598     17600
     17595     17598     17601     17599     17598     17600     17599     17598     17601
     17600     17598     17601     17598     17601     17602     17598     17601     17603
     17598     17601     17604     17602     17601     17603     17602     17601     17604
     17603     17601     17604     17601     17604     17605     17601     17604     17606
     17601     17604     17607     17605     17604     17606     17605     17604     17607
     17606     17604     17607     17604     17607     17608     17604     17607     17609
     17604     17607     17610     17608     17607     17609     17608     17607     17610
     17609     17607     17610     17607     17610     17611     17607     17610     17612
     17607     17610     17613     17611     17610     17612     17611     17610     17613
     17612     17610     17613     17610     17613     17614     17610     17613     17615
     17610     17613     17616     17614     17613     17615     17614     17613     17616
     17615     17613     17616     17613     17616     17617     17613     17616     17618
     17613     17616     17619     17617     17616     17618     17617     17616     17619
     17618     17616     17619     17621     17620     17624     17621     17620     17628
     17621     17620     17632     17624     17620     17628     17624     17620     17632
     17628     17620     17632     17620     17621     17622     17620     17621     17623
     17620     17621     17636     17622     17621     17623     17622     17621     17636
     17623     17621     17636     17620     17624     17625     17620     17624     17626
     17620     17624     17627     17625     17624     17626     17625     17624     17627
     17626     17624     17627     17620     17628     17629     17620     17628     17630
     17620     17628     17631     17629     17628     17630     17629     17628     17631
     17630     17628     17631     17620     17632     17633     17620     17632     17634
     17620     17632     17635     17633     17632     17634     17633     17632     17635
     17634     17632     17635     17621     17636     17637     17621     17636     17638
     17621     17636     17642     17637     17636     17638     17637     17636     17642
     17638     17636     17642     17640     17639     17641     17640     17639     17642
     17640     17639     17643     17641     17639     17642     17641     17639     17643
     17642     17639     17643     17636     17642     17639     17639     17643     17644
     17643     17644     17645     17643     17644     17646     17643     17644     17647
     17645     17644     17646     17645     17644     17647     17646     17644     17647
     17644     17647     17648     17644     17647     17649     17644     17647     17655
     17648     17647     17649     17648     17647     17655     17649     17647     17655
     17647     17649     17650     17649     17650     17651     17649     17650     17652
     17651     17650     17652     17650     17652     17653     17650     17652     17654
     17650     17652     17664     17653     17652     17654     17653     17652     17664
     17654     17652     17664     17647     17655     17656     17647     17655     17657
     17647     17655     17658     17656     17655     17657     17656     17655     17658
     17657     17655     17658     17655     17658     17659     17658     17659     17660
     17658     17659     17661     17660     17659     17661     17659     17661     17662
     17659     17661     17663     17659     17661     17711     17662     17661     17663
     17662     17661     17711     17663     17661     17711     17652     17664     17665
     17652     17664     17666     17652     17664     17667     17665     17664     17666
     17665     17664     17667     17666     17664     17667     17664     17667     17668
     17664     17667     17669     17664     17667     17670     17668     17667     17669
     17668     17667     17670     17669     17667     17670     17667     17670     17671
     17667     17670     17672     17667     17670     17673     17671     17670     17672
     17671     17670     17673     17672     17670     17673     17670     17673     17674
     17670     17673     17675     17670     17673     17676     17674     17673     17675
     17674     17673     17676     17675     17673     17676     17673     17676     17677
     17673     17676     17678     17673     17676     17679     17677     17676     17678
     17677     17676     17679     17678     17676     17679     17676     17679     17680
     17676     17679     17681     17676     17679     17682     17680     17679     17681
     17680     17679     17682     17681     17679     17682     17679     17682     17683
     17679     17682     17684     17683     17682     17684     17682     17684     17685
     17682     17684     17686     17685     17684     17686     17684     17686     17687
     17684     17686     17688     17684     17686     17689     17687     17686     17688
     17687     17686     17689     17688     17686     17689     17686     17689     17690
     17686     17689     17691     17686     17689     17692     17690     17689     17691
     17690     17689     17692     17691     17689     17692     17689     17692     17693
     17689     17692     17694     17689     17692     17695     17693     17692     17694
     17693     17692     17695     17694     17692     17695     17692     17695     17696
     17692     17695     17697     17692     17695     17698     17696     17695     17697
     17696     17695     17698     17697     17695     17698     17695     17698     17699
     17695     17698     17700     17695     17698     17701     17699     17698     17700
     17699     17698     17701     17700     17698     17701     17698     17701     17702
     17698     17701     17703     17698     17701     17704     17702     17701     17703
     17702     17701     17704     17703     17701     17704     17701     17704     17705
     17701     17704     17706     17701     17704     17707     17705     17704     17706
     17705     17704     17707     17706     17704     17707     17704     17707     17708
     17704     17707     17709     17704     17707     17710     17708     17707     17709
     17708     17707     17710     17709     17707     17710     17661     17711     17712
     17661     17711     17713     17661     17711     17714     17712     17711     17713
     17712     17711     17714     17713     17711     17714     17711     17714     17715
     17711     17714     17716     17711     17714     17717     17715     17714     17716
     17715     17714     17717     17716     17714     17717     17714     17717     17718
     17714     17717     17719     17714     17717     17720     17718     17717     17719
     17718     17717     17720     17719     17717     17720     17717     17720     17721
     17717     17720     17722     17717     17720     17723     17721     17720     17722
     17721     17720     17723     17722     17720     17723     17720     17723     17724
     17720     17723     17725     17720     17723     17726     17724     17723     17725
     17724     17723     17726     17725     17723     17726     17723     17726     17727
     17723     17726     17728     17723     17726     17729     17727     17726     17728
     17727     17726     17729     17728     17726     17729     17726     17729     17730
     17726     17729     17731     17726     17729     17732     17730     17729     17731
     17730     17729     17732     17731     17729     17732     17729     17732     17733
     17729     17732     17734     17729     17732     17735     17733     17732     17734
     17733     17732     17735     17734     17732     17735     17732     17735     17736
     17732     17735     17737     17732     17735     17738     17736     17735     17737
     17736     17735     17738     17737     17735     17738     17735     17738     17739
     17735     17738     17740     17735     17738     17741     17739     17738     17740
     17739     17738     17741     17740     17738     17741     17738     17741     17742
     17738     17741     17743     17738     17741     17744     17742     17741     17743
     17742     17741     17744     17743     17741     17744     17741     17744     17745
     17741     17744     17746     17741     17744     17747     17745     17744     17746
     17745     17744     17747     17746     17744     17747     17744     17747     17748
     17744     17747     17749     17744     17747     17750     17748     17747     17749
     17748     17747     17750     17749     17747     17750     17747     17750     17751
     17747     17750     17752     17747     17750     17753     17751     17750     17752
     17751     17750     17753     17752     17750     17753     17755     17754     17758
     17755     17754     17762     17755     17754     17766     17758     17754     17762
     17758     17754     17766     17762     17754     17766     17754     17755     17756
     17754     17755     17757     17754     17755     17770     17756     17755     17757
     17756     17755     17770     17757     17755     17770     17754     17758     17759
     17754     17758     17760     17754     17758     17761     17759     17758     17760
     17759     17758     17761     17760     17758     17761     17754     17762     17763
     17754     17762     17764     17754     17762     17765     17763     17762     17764
     17763     17762     17765     17764     17762     17765     17754     17766     17767
     17754     17766     17768     17754     17766     17769     17767     17766     17768
     17767     17766     17769     17768     17766     17769     17755     17770     17771
     17755     17770     17772     17755     17770     17776     17771     17770     17772
     17771     17770     17776     17772     17770     17776     17774     17773     17775
     17774     17773     17776     17774     17773     17777     17775     17773     17776
     17775     17773     17777     17776     17773     17777     17770     17776     17773
     17773     17777     17778     17777     17778     17779     17777     17778     17780
     17777     17778     17781     17779     17778     17780     17779     17778     17781
     17780     17778     17781     17778     17781     17782     17778     17781     17783
     17778     17781     17789     17782     17781     17783     17782     17781     17789
     17783     17781     17789     17781     17783     17784     17783     17784     17785
     17783     17784     17786     17785     17784     17786     17784     17786     17787
     17784     17786     17788     17784     17786     17798     17787     17786     17788
     17787     17786     17798     17788     17786     17798     17781     17789     17790
     17781     17789     17791     17781     17789     17792     17790     17789     17791
     17790     17789     17792     17791     17789     17792     17789     17792     17793
     17792     17793     17794     17792     17793     17795     17794     17793     17795
     17793     17795     17796     17793     17795     17797     17793     17795     17845
     17796     17795     17797     17796     17795     17845     17797     17795     17845
     17786     17798     17799     17786     17798     17800     17786     17798     17801
     17799     17798     17800     17799     17798     17801     17800     17798     17801
     17798     17801     17802     17798     17801     17803     17798     17801     17804
     17802     17801     17803     17802     17801     17804     17803     17801     17804
     17801     17804     17805     17801     17804     17806     17801     17804     17807
     17805     17804     17806     17805     17804     17807     17806     17804     17807
     17804     17807     17808     17804     17807     17809     17804     17807     17810
     17808     17807     17809     17808     17807     17810     17809     17807     17810
     17807     17810     17811     17807     17810     17812     17807     17810     17813
     17811     17810     17812     17811     17810     17813     17812     17810     17813
     17810     17813     17814     17810     17813     17815     17810     17813     17816
     17814     17813     17815     17814     17813     17816     17815     17813     17816
     17813     17816     17817     17813     17816     17818     17817     17816     17818
     17816     17818     17819     17816     17818     17820     17819     17818     17820
     17818     17820     17821     17818     17820     17822     17818     17820     17823
     17821     17820     17822     17821     17820     17823     17822     17820     17823
     17820     17823     17824     17820     17823     17825     17820     17823     17826
     17824     17823     17825     17824     17823     17826     17825     17823     17826
     17823     17826     17827     17823     17826     17828     17823     17826     17829
     17827     17826     17828     17827     17826     17829     17828     17826     17829
     17826     17829     17830     17826     17829     17831     17826     17829     17832
     17830     17829     17831     17830     17829     17832     17831     17829     17832
     17829     17832     17833     17829     17832     17834     17829     17832     17835
     17833     17832     17834     17833     17832     17835     17834     17832     17835
     17832     17835     17836     17832     17835     17837     17832     17835     17838
     17836     17835     17837     17836     17835     17838     17837     17835     17838
     17835     17838     17839     17835     17838     17840     17835     17838     17841
     17839     17838     17840     17839     17838     17841     17840     17838     17841
     17838     17841     17842     17838     17841     17843     17838     17841     17844
     17842     17841     17843     17842     17841     17844     17843     17841     17844
     17795     17845     17846     17795     17845     17847     17795     17845     17848
     17846     17845     17847     17846     17845     17848     17847     17845     17848
     17845     17848     17849     17845     17848     17850     17845     17848     17851
     17849     17848     17850     17849     17848     17851     17850     17848     17851
     17848     17851     17852     17848     17851     17853     17848     17851     17854
     17852     17851     17853     17852     17851     17854     17853     17851     17854
     17851     17854     17855     17851     17854     17856     17851     17854     17857
     17855     17854     17856     17855     17854     17857     17856     17854     17857
     17854     17857     17858     17854     17857     17859     17854     17857     17860
     17858     17857     17859     17858     17857     17860     17859     17857     17860
     17857     17860     17861     17857     17860     17862     17857     17860     17863
     17861     17860     17862     17861     17860     17863     17862     17860     17863
     17860     17863     17864     17860     17863     17865     17860     17863     17866
     17864     17863     17865     17864     17863     17866     17865     17863     17866
     17863     17866     17867     17863     17866     17868     17863     17866     17869
     17867     17866     17868     17867     17866     17869     17868     17866     17869
     17866     17869     17870     17866     17869     17871     17866     17869     17872
     17870     17869     17871     17870     17869     17872     17871     17869     17872
     17869     17872     17873     17869     17872     17874     17869     17872     17875
     17873     17872     17874     17873     17872     17875     17874     17872     17875
     17872     17875     17876     17872     17875     17877     17872     17875     17878
     17876     17875     17877     17876     17875     17878     17877     17875     17878
     17875     17878     17879     17875     17878     17880     17875     17878     17881
     17879     17878     17880     17879     17878     17881     17880     17878     17881
     17878     17881     17882     17878     17881     17883     17878     17881     17884
     17882     17881     17883     17882     17881     17884     17883     17881     17884
     17881     17884     17885     17881     17884     17886     17881     17884     17887
     17885     17884     17886     17885     17884     17887     17886     17884     17887
     17889     17888     17892     17889     17888     17896     17889     17888     17900
     17892     17888     17896     17892     17888     17900     17896     17888     17900
     17888     17889     17890     17888     17889     17891     17888     17889     17904
     17890     17889     17891     17890     17889     17904     17891     17889     17904
     17888     17892     17893     17888     17892     17894     17888     17892     17895
     17893     17892     17894     17893     17892     17895     17894     17892     17895
     17888     17896     17897     17888     17896     17898     17888     17896     17899
     17897     17896     17898     17897     17896     17899     17898     17896     17899
     17888     17900     17901     17888     17900     17902     17888     17900     17903
     17901     17900     17902     17901     17900     17903     17902     17900     17903
     17889     17904     17905     17889     17904     17906     17889     17904     17910
     17905     17904     17906     17905     17904     17910     17906     17904     17910
     17908     17907     17909     17908     17907     17910     17908     17907     17911
     17909     17907     17910     17909     17907     17911     17910     17907     17911
     17904     17910     17907     17907     17911     17912     17911     17912     17913
     17911     17912     17914     17911     17912     17915     17913     17912     17914
     17913     17912     17915     17914     17912     17915     17912     17915     17916
     17912     17915     17917     17912     17915     17923     17916     17915     17917
     17916     17915     17923     17917     17915     17923     17915     17917     17918
     17917     17918     17919     17917     17918     17920     17919     17918     17920
     17918     17920     17921     17918     17920     17922     17918     17920     17932
     17921     17920     17922     17921     17920     17932     17922     17920     17932
     17915     17923     17924     17915     17923     17925     17915     17923     17926
     17924     17923     17925     17924     17923     17926     17925     17923     17926
     17923     17926     17927     17926     17927     17928     17926     17927     17929
     17928     17927     17929     17927     17929     17930     17927     17929     17931
     17927     17929     17979     17930     17929     17931     17930     17929     17979
     17931     17929     17979     17920     17932     17933     17920     17932     17934
     17920     17932     17935     17933     17932     17934     17933     17932     17935
     17934     17932     17935     17932     17935     17936     17932     17935     17937
     17932     17935     17938     17936     17935     17937     17936     17935     17938
     17937     17935     17938     17935     17938     17939     17935     17938     17940
     17935     17938     17941     17939     17938     17940     17939     17938     17941
     17940     17938     17941     17938     17941     17942     17938     17941     17943
     17938     17941     17944     17942     17941     17943     17942     17941     17944
     17943     17941     17944     17941     17944     17945     17941     17944     17946
     17941     17944     17947     17945     17944     17946     17945     17944     17947
     17946     17944     17947     17944     17947     17948     17944     17947     17949
     17944     17947     17950     17948     17947     17949     17948     17947     17950
     17949     17947     17950     17947     17950     17951     17947     17950     17952
     17951     17950     17952     17950     17952     17953     17950     17952     17954
     17953     17952     17954     17952     17954     17955     17952     17954     17956
     17952     17954     17957     17955     17954     17956     17955     17954     17957
     17956     17954     17957     17954     17957     17958     17954     17957     17959
     17954     17957     17960     17958     17957     17959     17958     17957     17960
     17959     17957     17960     17957     17960     17961     17957     17960     17962
     17957     17960     17963     17961     17960     17962     17961     17960     17963
     17962     17960     17963     17960     17963     17964     17960     17963     17965
     17960     17963     17966     17964     17963     17965     17964     17963     17966
     17965     17963     17966     17963     17966     17967     17963     17966     17968
     17963     17966     17969     17967     17966     17968     17967     17966     17969
     17968     17966     17969     17966     17969     17970     17966     17969     17971
     17966     17969     17972     17970     17969     17971     17970     17969     17972
     17971     17969     17972     17969     17972     17973     17969     17972     17974
     17969     17972     17975     17973     17972     17974     17973     17972     17975
     17974     17972     17975     17972     17975     17976     17972     17975     17977
     17972     17975     17978     17976     17975     17977     17976     17975     17978
     17977     17975     17978     17929     17979     17980     17929     17979     17981
     17929     17979     17982     17980     17979     17981     17980     17979     17982
     17981     17979     17982     17979     17982     17983     17979     17982     17984
     17979     17982     17985     17983     17982     17984     17983     17982     17985
     17984     17982     17985     17982     17985     17986     17982     17985     17987
     17982     17985     17988     17986     17985     17987     17986     17985     17988
     17987     17985     17988     17985     17988     17989     17985     17988     17990
     17985     17988     17991     17989     17988     17990     17989     17988     17991
     17990     17988     17991     17988     17991     17992     17988     17991     17993
     17988     17991     17994     17992     17991     17993     17992     17991     17994
     17993     17991     17994     17991     17994     17995     17991     17994     17996
     17991     17994     17997     17995     17994     17996     17995     17994     17997
     17996     17994     17997     17994     17997     17998     17994     17997     17999
     17994     17997     18000     17998     17997     17999     17998     17997     18000
     17999     17997     18000     17997     18000     18001     17997     18000     18002
     17997     18000     18003     18001     18000     18002     18001     18000     18003
     18002     18000     18003     18000     18003     18004     18000     18003     18005
     18000     18003     18006     18004     18003     18005     18004     18003     18006
     18005     18003     18006     18003     18006     18007     18003     18006     18008
     18003     18006     18009     18007     18006     18008     18007     18006     18009
     18008     18006     18009     18006     18009     18010     18006     18009     18011
     18006     18009     18012     18010     18009     18011     18010     18009     18012
     18011     18009     18012     18009     18012     18013     18009     18012     18014
     18009     18012     18015     18013     18012     18014     18013     18012     18015
     18014     18012     18015     18012     18015     18016     18012     18015     18017
     18012     18015     18018     18016     18015     18017     18016     18015     18018
     18017     18015     18018     18015     18018     18019     18015     18018     18020
     18015     18018     18021     18019     18018     18020     18019     18018     18021
     18020     18018     18021     18023     18022     18026     18023     18022     18030
     18023     18022     18034     18026     18022     18030     18026     18022     18034
     18030     18022     18034     18022     18023     18024     18022     18023     18025
     18022     18023     18038     18024     18023     18025     18024     18023     18038
     18025     18023     18038     18022     18026     18027     18022     18026     18028
     18022     18026     18029     18027     18026     18028     18027     18026     18029
     18028     18026     18029     18022     18030     18031     18022     18030     18032
     18022     18030     18033     18031     18030     18032     18031     18030     18033
     18032     18030     18033     18022     18034     18035     18022     18034     18036
     18022     18034     18037     18035     18034     18036     18035     18034     18037
     18036     18034     18037     18023     18038     18039     18023     18038     18040
     18023     18038     18044     18039     18038     18040     18039     18038     18044
     18040     18038     18044     18042     18041     18043     18042     18041     18044
     18042     18041     18045     18043     18041     18044     18043     18041     18045
     18044     18041     18045     18038     18044     18041     18041     18045     18046
     18045     18046     18047     18045     18046     18048     18045     18046     18049
     18047     18046     18048     18047     18046     18049     18048     18046     18049
     18046     18049     18050     18046     18049     18051     18046     18049     18057
     18050     18049     18051     18050     18049     18057     18051     18049     18057
     18049     18051     18052     18051     18052     18053     18051     18052     18054
     18053     18052     18054     18052     18054     18055     18052     18054     18056
     18052     18054     18066     18055     18054     18056     18055     18054     18066
     18056     18054     18066     18049     18057     18058     18049     18057     18059
     18049     18057     18060     18058     18057     18059     18058     18057     18060
     18059     18057     18060     18057     18060     18061     18060     18061     18062
     18060     18061     18063     18062     18061     18063     18061     18063     18064
     18061     18063     18065     18061     18063     18113     18064     18063     18065
     18064     18063     18113     18065     18063     18113     18054     18066     18067
     18054     18066     18068     18054     18066     18069     18067     18066     18068
     18067     18066     18069     18068     18066     18069     18066     18069     18070
     18066     18069     18071     18066     18069     18072     18070     18069     18071
     18070     18069     18072     18071     18069     18072     18069     18072     18073
     18069     18072     18074     18069     18072     18075     18073     18072     18074
     18073     18072     18075     18074     18072     18075     18072     18075     18076
     18072     18075     18077     18072     18075     18078     18076     18075     18077
     18076     18075     18078     18077     18075     18078     18075     18078     18079
     18075     18078     18080     18075     18078     18081     18079     18078     18080
     18079     18078     18081     18080     18078     18081     18078     18081     18082
     18078     18081     18083     18078     18081     18084     18082     18081     18083
     18082     18081     18084     18083     18081     18084     18081     18084     18085
     18081     18084     18086     18085     18084     18086     18084     18086     18087
     18084     18086     18088     18087     18086     18088     18086     18088     18089
     18086     18088     18090     18086     18088     18091     18089     18088     18090
     18089     18088     18091     18090     18088     18091     18088     18091     18092
     18088     18091     18093     18088     18091     18094     18092     18091     18093
     18092     18091     18094     18093     18091     18094     18091     18094     18095
     18091     18094     18096     18091     18094     18097     18095     18094     18096
     18095     18094     18097     18096     18094     18097     18094     18097     18098
     18094     18097     18099     18094     18097     18100     18098     18097     18099
     18098     18097     18100     18099     18097     18100     18097     18100     18101
     18097     18100     18102     18097     18100     18103     18101     18100     18102
     18101     18100     18103     18102     18100     18103     18100     18103     18104
     18100     18103     18105     18100     18103     18106     18104     18103     18105
     18104     18103     18106     18105     18103     18106     18103     18106     18107
     18103     18106     18108     18103     18106     18109     18107     18106     18108
     18107     18106     18109     18108     18106     18109     18106     18109     18110
     18106     18109     18111     18106     18109     18112     18110     18109     18111
     18110     18109     18112     18111     18109     18112     18063     18113     18114
     18063     18113     18115     18063     18113     18116     18114     18113     18115
     18114     18113     18116     18115     18113     18116     18113     18116     18117
     18113     18116     18118     18113     18116     18119     18117     18116     18118
     18117     18116     18119     18118     18116     18119     18116     18119     18120
     18116     18119     18121     18116     18119     18122     18120     18119     18121
     18120     18119     18122     18121     18119     18122     18119     18122     18123
     18119     18122     18124     18119     18122     18125     18123     18122     18124
     18123     18122     18125     18124     18122     18125     18122     18125     18126
     18122     18125     18127     18122     18125     18128     18126     18125     18127
     18126     18125     18128     18127     18125     18128     18125     18128     18129
     18125     18128     18130     18125     18128     18131     18129     18128     18130
     18129     18128     18131     18130     18128     18131     18128     18131     18132
     18128     18131     18133     18128     18131     18134     18132     18131     18133
     18132     18131     18134     18133     18131     18134     18131     18134     18135
     18131     18134     18136     18131     18134     18137     18135     18134     18136
     18135     18134     18137     18136     18134     18137     18134     18137     18138
     18134     18137     18139     18134     18137     18140     18138     18137     18139
     18138     18137     18140     18139     18137     18140     18137     18140     18141
     18137     18140     18142     18137     18140     18143     18141     18140     18142
     18141     18140     18143     18142     18140     18143     18140     18143     18144
     18140     18143     18145     18140     18143     18146     18144     18143     18145
     18144     18143     18146     18145     18143     18146     18143     18146     18147
     18143     18146     18148     18143     18146     18149     18147     18146     18148
     18147     18146     18149     18148     18146     18149     18146     18149     18150
     18146     18149     18151     18146     18149     18152     18150     18149     18151
     18150     18149     18152     18151     18149     18152     18149     18152     18153
     18149     18152     18154     18149     18152     18155     18153     18152     18154
     18153     18152     18155     18154     18152     18155     18157     18156     18160
     18157     18156     18164     18157     18156     18168     18160     18156     18164
     18160     18156     18168     18164     18156     18168     18156     18157     18158
     18156     18157     18159     18156     18157     18172     18158     18157     18159
     18158     18157     18172     18159     18157     18172     18156     18160     18161
     18156     18160     18162     18156     18160     18163     18161     18160     18162
     18161     18160     18163     18162     18160     18163     18156     18164     18165
     18156     18164     18166     18156     18164     18167     18165     18164     18166
     18165     18164     18167     18166     18164     18167     18156     18168     18169
     18156     18168     18170     18156     18168     18171     18169     18168     18170
     18169     18168     18171     18170     18168     18171     18157     18172     18173
     18157     18172     18174     18157     18172     18178     18173     18172     18174
     18173     18172     18178     18174     18172     18178     18176     18175     18177
     18176     18175     18178     18176     18175     18179     18177     18175     18178
     18177     18175     18179     18178     18175     18179     18172     18178     18175
     18175     18179     18180     18179     18180     18181     18179     18180     18182
     18179     18180     18183     18181     18180     18182     18181     18180     18183
     18182     18180     18183     18180     18183     18184     18180     18183     18185
     18180     18183     18191     18184     18183     18185     18184     18183     18191
     18185     18183     18191     18183     18185     18186     18185     18186     18187
     18185     18186     18188     18187     18186     18188     18186     18188     18189
     18186     18188     18190     18186     18188     18200     18189     18188     18190
     18189     18188     18200     18190     18188     18200     18183     18191     18192
     18183     18191     18193     18183     18191     18194     18192     18191     18193
     18192     18191     18194     18193     18191     18194     18191     18194     18195
     18194     18195     18196     18194     18195     18197     18196     18195     18197
     18195     18197     18198     18195     18197     18199     18195     18197     18247
     18198     18197     18199     18198     18197     18247     18199     18197     18247
     18188     18200     18201     18188     18200     18202     18188     18200     18203
     18201     18200     18202     18201     18200     18203     18202     18200     18203
     18200     18203     18204     18200     18203     18205     18200     18203     18206
     18204     18203     18205     18204     18203     18206     18205     18203     18206
     18203     18206     18207     18203     18206     18208     18203     18206     18209
     18207     18206     18208     18207     18206     18209     18208     18206     18209
     18206     18209     18210     18206     18209     18211     18206     18209     18212
     18210     18209     18211     18210     18209     18212     18211     18209     18212
     18209     18212     18213     18209     18212     18214     18209     18212     18215
     18213     18212     18214     18213     18212     18215     18214     18212     18215
     18212     18215     18216     18212     18215     18217     18212     18215     18218
     18216     18215     18217     18216     18215     18218     18217     18215     18218
     18215     18218     18219     18215     18218     18220     18219     18218     18220
     18218     18220     18221     18218     18220     18222     18221     18220     18222
     18220     18222     18223     18220     18222     18224     18220     18222     18225
     18223     18222     18224     18223     18222     18225     18224     18222     18225
     18222     18225     18226     18222     18225     18227     18222     18225     18228
     18226     18225     18227     18226     18225     18228     18227     18225     18228
     18225     18228     18229     18225     18228     18230     18225     18228     18231
     18229     18228     18230     18229     18228     18231     18230     18228     18231
     18228     18231     18232     18228     18231     18233     18228     18231     18234
     18232     18231     18233     18232     18231     18234     18233     18231     18234
     18231     18234     18235     18231     18234     18236     18231     18234     18237
     18235     18234     18236     18235     18234     18237     18236     18234     18237
     18234     18237     18238     18234     18237     18239     18234     18237     18240
     18238     18237     18239     18238     18237     18240     18239     18237     18240
     18237     18240     18241     18237     18240     18242     18237     18240     18243
     18241     18240     18242     18241     18240     18243     18242     18240     18243
     18240     18243     18244     18240     18243     18245     18240     18243     18246
     18244     18243     18245     18244     18243     18246     18245     18243     18246
     18197     18247     18248     18197     18247     18249     18197     18247     18250
     18248     18247     18249     18248     18247     18250     18249     18247     18250
     18247     18250     18251     18247     18250     18252     18247     18250     18253
     18251     18250     18252     18251     18250     18253     18252     18250     18253
     18250     18253     18254     18250     18253     18255     18250     18253     18256
     18254     18253     18255     18254     18253     18256     18255     18253     18256
     18253     18256     18257     18253     18256     18258     18253     18256     18259
     18257     18256     18258     18257     18256     18259     18258     18256     18259
     18256     18259     18260     18256     18259     18261     18256     18259     18262
     18260     18259     18261     18260     18259     18262     18261     18259     18262
     18259     18262     18263     18259     18262     18264     18259     18262     18265
     18263     18262     18264     18263     18262     18265     18264     18262     18265
     18262     18265     18266     18262     18265     18267     18262     18265     18268
     18266     18265     18267     18266     18265     18268     18267     18265     18268
     18265     18268     18269     18265     18268     18270     18265     18268     18271
     18269     18268     18270     18269     18268     18271     18270     18268     18271
     18268     18271     18272     18268     18271     18273     18268     18271     18274
     18272     18271     18273     18272     18271     18274     18273     18271     18274
     18271     18274     18275     18271     18274     18276     18271     18274     18277
     18275     18274     18276     18275     18274     18277     18276     18274     18277
     18274     18277     18278     18274     18277     18279     18274     18277     18280
     18278     18277     18279     18278     18277     18280     18279     18277     18280
     18277     18280     18281     18277     18280     18282     18277     18280     18283
     18281     18280     18282     18281     18280     18283     18282     18280     18283
     18280     18283     18284     18280     18283     18285     18280     18283     18286
     18284     18283     18285     18284     18283     18286     18285     18283     18286
     18283     18286     18287     18283     18286     18288     18283     18286     18289
     18287     18286     18288     18287     18286     18289     18288     18286     18289
     18291     18290     18292     18291     18290     18293     18291     18290     18294
     18292     18290     18293     18292     18290     18294     18293     18290     18294
     18290     18294     18295     18290     18294     18296     18290     18294     18299
     18295     18294     18296     18295     18294     18299     18296     18294     18299
     18294     18296     18297     18294     18296     18298     18297     18296     18298
     18294     18299     18300     18294     18299     18301     18294     18299     18305
     18300     18299     18301     18300     18299     18305     18301     18299     18305
     18303     18302     18304     18303     18302     18305     18303     18302     18306
     18304     18302     18305     18304     18302     18306     18305     18302     18306
     18299     18305     18302     18302     18306     18307     18306     18307     18308
     18306     18307     18309     18306     18307     18310     18308     18307     18309
     18308     18307     18310     18309     18307     18310     18307     18310     18311
     18307     18310     18312     18307     18310     18318     18311     18310     18312
     18311     18310     18318     18312     18310     18318     18310     18312     18313
     18312     18313     18314     18312     18313     18315     18314     18313     18315
     18313     18315     18316     18313     18315     18317     18313     18315     18327
     18316     18315     18317     18316     18315     18327     18317     18315     18327
     18310     18318     18319     18310     18318     18320     18310     18318     18321
     18319     18318     18320     18319     18318     18321     18320     18318     18321
     18318     18321     18322     18321     18322     18323     18321     18322     18324
     18323     18322     18324     18322     18324     18325     18322     18324     18326
     18322     18324     18374     18325     18324     18326     18325     18324     18374
     18326     18324     18374     18315     18327     18328     18315     18327     18329
     18315     18327     18330     18328     18327     18329     18328     18327     18330
     18329     18327     18330     18327     18330     18331     18327     18330     18332
     18327     18330     18333     18331     18330     18332     18331     18330     18333
     18332     18330     18333     18330     18333     18334     18330     18333     18335
     18330     18333     18336     18334     18333     18335     18334     18333     18336
     18335     18333     18336     18333     18336     18337     18333     18336     18338
     18333     18336     18339     18337     18336     18338     18337     18336     18339
     18338     18336     18339     18336     18339     18340     18336     18339     18341
     18336     18339     18342     18340     18339     18341     18340     18339     18342
     18341     18339     18342     18339     18342     18343     18339     18342     18344
     18339     18342     18345     18343     18342     18344     18343     18342     18345
     18344     18342     18345     18342     18345     18346     18342     18345     18347
     18346     18345     18347     18345     18347     18348     18345     18347     18349
     18348     18347     18349     18347     18349     18350     18347     18349     18351
     18347     18349     18352     18350     18349     18351     18350     18349     18352
     18351     18349     18352     18349     18352     18353     18349     18352     18354
     18349     18352     18355     18353     18352     18354     18353     18352     18355
     18354     18352     18355     18352     18355     18356     18352     18355     18357
     18352     18355     18358     18356     18355     18357     18356     18355     18358
     18357     18355     18358     18355     18358     18359     18355     18358     18360
     18355     18358     18361     18359     18358     18360     18359     18358     18361
     18360     18358     18361     18358     18361     18362     18358     18361     18363
     18358     18361     18364     18362     18361     18363     18362     18361     18364
     18363     18361     18364     18361     18364     18365     18361     18364     18366
     18361     18364     18367     18365     18364     18366     18365     18364     18367
     18366     18364     18367     18364     18367     18368     18364     18367     18369
     18364     18367     18370     18368     18367     18369     18368     18367     18370
     18369     18367     18370     18367     18370     18371     18367     18370     18372
     18367     18370     18373     18371     18370     18372     18371     18370     18373
     18372     18370     18373     18324     18374     18375     18324     18374     18376
     18324     18374     18377     18375     18374     18376     18375     18374     18377
     18376     18374     18377     18374     18377     18378     18374     18377     18379
     18374     18377     18380     18378     18377     18379     18378     18377     18380
     18379     18377     18380     18377     18380     18381     18377     18380     18382
     18377     18380     18383     18381     18380     18382     18381     18380     18383
     18382     18380     18383     18380     18383     18384     18380     18383     18385
     18380     18383     18386     18384     18383     18385     18384     18383     18386
     18385     18383     18386     18383     18386     18387     18383     18386     18388
     18383     18386     18389     18387     18386     18388     18387     18386     18389
     18388     18386     18389     18386     18389     18390     18386     18389     18391
     18386     18389     18392     18390     18389     18391     18390     18389     18392
     18391     18389     18392     18389     18392     18393     18389     18392     18394
     18389     18392     18395     18393     18392     18394     18393     18392     18395
     18394     18392     18395     18392     18395     18396     18392     18395     18397
     18392     18395     18398     18396     18395     18397     18396     18395     18398
     18397     18395     18398     18395     18398     18399     18395     18398     18400
     18395     18398     18401     18399     18398     18400     18399     18398     18401
     18400     18398     18401     18398     18401     18402     18398     18401     18403
     18398     18401     18404     18402     18401     18403     18402     18401     18404
     18403     18401     18404     18401     18404     18405     18401     18404     18406
     18401     18404     18407     18405     18404     18406     18405     18404     18407
     18406     18404     18407     18404     18407     18408     18404     18407     18409
     18404     18407     18410     18408     18407     18409     18408     18407     18410
     18409     18407     18410     18407     18410     18411     18407     18410     18412
     18407     18410     18413     18411     18410     18412     18411     18410     18413
     18412     18410     18413     18410     18413     18414     18410     18413     18415
     18410     18413     18416     18414     18413     18415     18414     18413     18416
     18415     18413     18416     18418     18417     18419     18418     18417     18420
     18418     18417     18421     18419     18417     18420     18419     18417     18421
     18420     18417     18421     18417     18421     18422     18417     18421     18423
     18417     18421     18426     18422     18421     18423     18422     18421     18426
     18423     18421     18426     18421     18423     18424     18421     18423     18425
     18424     18423     18425     18421     18426     18427     18421     18426     18428
     18421     18426     18432     18427     18426     18428     18427     18426     18432
     18428     18426     18432     18430     18429     18431     18430     18429     18432
     18430     18429     18433     18431     18429     18432     18431     18429     18433
     18432     18429     18433     18426     18432     18429     18429     18433     18434
     18433     18434     18435     18433     18434     18436     18433     18434     18437
     18435     18434     18436     18435     18434     18437     18436     18434     18437
     18434     18437     18438     18434     18437     18439     18434     18437     18445
     18438     18437     18439     18438     18437     18445     18439     18437     18445
     18437     18439     18440     18439     18440     18441     18439     18440     18442
     18441     18440     18442     18440     18442     18443     18440     18442     18444
     18440     18442     18454     18443     18442     18444     18443     18442     18454
     18444     18442     18454     18437     18445     18446     18437     18445     18447
     18437     18445     18448     18446     18445     18447     18446     18445     18448
     18447     18445     18448     18445     18448     18449     18448     18449     18450
     18448     18449     18451     18450     18449     18451     18449     18451     18452
     18449     18451     18453     18449     18451     18501     18452     18451     18453
     18452     18451     18501     18453     18451     18501     18442     18454     18455
     18442     18454     18456     18442     18454     18457     18455     18454     18456
     18455     18454     18457     18456     18454     18457     18454     18457     18458
     18454     18457     18459     18454     18457     18460     18458     18457     18459
     18458     18457     18460     18459     18457     18460     18457     18460     18461
     18457     18460     18462     18457     18460     18463     18461     18460     18462
     18461     18460     18463     18462     18460     18463     18460     18463     18464
     18460     18463     18465     18460     18463     18466     18464     18463     18465
     18464     18463     18466     18465     18463     18466     18463     18466     18467
     18463     18466     18468     18463     18466     18469     18467     18466     18468
     18467     18466     18469     18468     18466     18469     18466     18469     18470
     18466     18469     18471     18466     18469     18472     18470     18469     18471
     18470     18469     18472     18471     18469     18472     18469     18472     18473
     18469     18472     18474     18473     18472     18474     18472     18474     18475
     18472     18474     18476     18475     18474     18476     18474     18476     18477
     18474     18476     18478     18474     18476     18479     18477     18476     18478
     18477     18476     18479     18478     18476     18479     18476     18479     18480
     18476     18479     18481     18476     18479     18482     18480     18479     18481
     18480     18479     18482     18481     18479     18482     18479     18482     18483
     18479     18482     18484     18479     18482     18485     18483     18482     18484
     18483     18482     18485     18484     18482     18485     18482     18485     18486
     18482     18485     18487     18482     18485     18488     18486     18485     18487
     18486     18485     18488     18487     18485     18488     18485     18488     18489
     18485     18488     18490     18485     18488     18491     18489     18488     18490
     18489     18488     18491     18490     18488     18491     18488     18491     18492
     18488     18491     18493     18488     18491     18494     18492     18491     18493
     18492     18491     18494     18493     18491     18494     18491     18494     18495
     18491     18494     18496     18491     18494     18497     18495     18494     18496
     18495     18494     18497     18496     18494     18497     18494     18497     18498
     18494     18497     18499     18494     18497     18500     18498     18497     18499
     18498     18497     18500     18499     18497     18500     18451     18501     18502
     18451     18501     18503     18451     18501     18504     18502     18501     18503
     18502     18501     18504     18503     18501     18504     18501     18504     18505
     18501     18504     18506     18501     18504     18507     18505     18504     18506
     18505     18504     18507     18506     18504     18507     18504     18507     18508
     18504     18507     18509     18504     18507     18510     18508     18507     18509
     18508     18507     18510     18509     18507     18510     18507     18510     18511
     18507     18510     18512     18507     18510     18513     18511     18510     18512
     18511     18510     18513     18512     18510     18513     18510     18513     18514
     18510     18513     18515     18510     18513     18516     18514     18513     18515
     18514     18513     18516     18515     18513     18516     18513     18516     18517
     18513     18516     18518     18513     18516     18519     18517     18516     18518
     18517     18516     18519     18518     18516     18519     18516     18519     18520
     18516     18519     18521     18516     18519     18522     18520     18519     18521
     18520     18519     18522     18521     18519     18522     18519     18522     18523
     18519     18522     18524     18519     18522     18525     18523     18522     18524
     18523     18522     18525     18524     18522     18525     18522     18525     18526
     18522     18525     18527     18522     18525     18528     18526     18525     18527
     18526     18525     18528     18527     18525     18528     18525     18528     18529
     18525     18528     18530     18525     18528     18531     18529     18528     18530
     18529     18528     18531     18530     18528     18531     18528     18531     18532
     18528     18531     18533     18528     18531     18534     18532     18531     18533
     18532     18531     18534     18533     18531     18534     18531     18534     18535
     18531     18534     18536     18531     18534     18537     18535     18534     18536
     18535     18534     18537     18536     18534     18537     18534     18537     18538
     18534     18537     18539     18534     18537     18540     18538     18537     18539
     18538     18537     18540     18539     18537     18540     18537     18540     18541
     18537     18540     18542     18537     18540     18543     18541     18540     18542
     18541     18540     18543     18542     18540     18543     18545     18544     18546
     18545     18544     18547     18545     18544     18548     18546     18544     18547
     18546     18544     18548     18547     18544     18548     18544     18548     18549
     18544     18548     18550     18544     18548     18553     18549     18548     18550
     18549     18548     18553     18550     18548     18553     18548     18550     18551
     18548     18550     18552     18551     18550     18552     18548     18553     18554
     18548     18553     18555     18548     18553     18559     18554     18553     18555
     18554     18553     18559     18555     18553     18559     18557     18556     18558
     18557     18556     18559     18557     18556     18560     18558     18556     18559
     18558     18556     18560     18559     18556     18560     18553     18559     18556
     18556     18560     18561     18560     18561     18562     18560     18561     18563
     18560     18561     18564     18562     18561     18563     18562     18561     18564
     18563     18561     18564     18561     18564     18565     18561     18564     18566
     18561     18564     18572     18565     18564     18566     18565     18564     18572
     18566     18564     18572     18564     18566     18567     18566     18567     18568
     18566     18567     18569     18568     18567     18569     18567     18569     18570
     18567     18569     18571     18567     18569     18581     18570     18569     18571
     18570     18569     18581     18571     18569     18581     18564     18572     18573
     18564     18572     18574     18564     18572     18575     18573     18572     18574
     18573     18572     18575     18574     18572     18575     18572     18575     18576
     18575     18576     18577     18575     18576     18578     18577     18576     18578
     18576     18578     18579     18576     18578     18580     18576     18578     18628
     18579     18578     18580     18579     18578     18628     18580     18578     18628
     18569     18581     18582     18569     18581     18583     18569     18581     18584
     18582     18581     18583     18582     18581     18584     18583     18581     18584
     18581     18584     18585     18581     18584     18586     18581     18584     18587
     18585     18584     18586     18585     18584     18587     18586     18584     18587
     18584     18587     18588     18584     18587     18589     18584     18587     18590
     18588     18587     18589     18588     18587     18590     18589     18587     18590
     18587     18590     18591     18587     18590     18592     18587     18590     18593
     18591     18590     18592     18591     18590     18593     18592     18590     18593
     18590     18593     18594     18590     18593     18595     18590     18593     18596
     18594     18593     18595     18594     18593     18596     18595     18593     18596
     18593     18596     18597     18593     18596     18598     18593     18596     18599
     18597     18596     18598     18597     18596     18599     18598     18596     18599
     18596     18599     18600     18596     18599     18601     18600     18599     18601
     18599     18601     18602     18599     18601     18603     18602     18601     18603
     18601     18603     18604     18601     18603     18605     18601     18603     18606
     18604     18603     18605     18604     18603     18606     18605     18603     18606
     18603     18606     18607     18603     18606     18608     18603     18606     18609
     18607     18606     18608     18607     18606     18609     18608     18606     18609
     18606     18609     18610     18606     18609     18611     18606     18609     18612
     18610     18609     18611     18610     18609     18612     18611     18609     18612
     18609     18612     18613     18609     18612     18614     18609     18612     18615
     18613     18612     18614     18613     18612     18615     18614     18612     18615
     18612     18615     18616     18612     18615     18617     18612     18615     18618
     18616     18615     18617     18616     18615     18618     18617     18615     18618
     18615     18618     18619     18615     18618     18620     18615     18618     18621
     18619     18618     18620     18619     18618     18621     18620     18618     18621
     18618     18621     18622     18618     18621     18623     18618     18621     18624
     18622     18621     18623     18622     18621     18624     18623     18621     18624
     18621     18624     18625     18621     18624     18626     18621     18624     18627
     18625     18624     18626     18625     18624     18627     18626     18624     18627
     18578     18628     18629     18578     18628     18630     18578     18628     18631
     18629     18628     18630     18629     18628     18631     18630     18628     18631
     18628     18631     18632     18628     18631     18633     18628     18631     18634
     18632     18631     18633     18632     18631     18634     18633     18631     18634
     18631     18634     18635     18631     18634     18636     18631     18634     18637
     18635     18634     18636     18635     18634     18637     18636     18634     18637
     18634     18637     18638     18634     18637     18639     18634     18637     18640
     18638     18637     18639     18638     18637     18640     18639     18637     18640
     18637     18640     18641     18637     18640     18642     18637     18640     18643
     18641     18640     18642     18641     18640     18643     18642     18640     18643
     18640     18643     18644     18640     18643     18645     18640     18643     18646
     18644     18643     18645     18644     18643     18646     18645     18643     18646
     18643     18646     18647     18643     18646     18648     18643     18646     18649
     18647     18646     18648     18647     18646     18649     18648     18646     18649
     18646     18649     18650     18646     18649     18651     18646     18649     18652
     18650     18649     18651     18650     18649     18652     18651     18649     18652
     18649     18652     18653     18649     18652     18654     18649     18652     18655
     18653     18652     18654     18653     18652     18655     18654     18652     18655
     18652     18655     18656     18652     18655     18657     18652     18655     18658
     18656     18655     18657     18656     18655     18658     18657     18655     18658
     18655     18658     18659     18655     18658     18660     18655     18658     18661
     18659     18658     18660     18659     18658     18661     18660     18658     18661
     18658     18661     18662     18658     18661     18663     18658     18661     18664
     18662     18661     18663     18662     18661     18664     18663     18661     18664
     18661     18664     18665     18661     18664     18666     18661     18664     18667
     18665     18664     18666     18665     18664     18667     18666     18664     18667
     18664     18667     18668     18664     18667     18669     18664     18667     18670
     18668     18667     18669     18668     18667     18670     18669     18667     18670
     18672     18671     18675     18672     18671     18679     18672     18671     18683
     18675     18671     18679     18675     18671     18683     18679     18671     18683
     18671     18672     18673     18671     18672     18674     18671     18672     18687
     18673     18672     18674     18673     18672     18687     18674     18672     18687
     18671     18675     18676     18671     18675     18677     18671     18675     18678
     18676     18675     18677     18676     18675     18678     18677     18675     18678
     18671     18679     18680     18671     18679     18681     18671     18679     18682
     18680     18679     18681     18680     18679     18682     18681     18679     18682
     18671     18683     18684     18671     18683     18685     18671     18683     18686
     18684     18683     18685     18684     18683     18686     18685     18683     18686
     18672     18687     18688     18672     18687     18689     18672     18687     18693
     18688     18687     18689     18688     18687     18693     18689     18687     18693
     18691     18690     18692     18691     18690     18693     18691     18690     18694
     18692     18690     18693     18692     18690     18694     18693     18690     18694
     18687     18693     18690     18690     18694     18695     18694     18695     18696
     18694     18695     18697     18694     18695     18698     18696     18695     18697
     18696     18695     18698     18697     18695     18698     18695     18698     18699
     18695     18698     18700     18695     18698     18706     18699     18698     18700
     18699     18698     18706     18700     18698     18706     18698     18700     18701
     18700     18701     18702     18700     18701     18703     18702     18701     18703
     18701     18703     18704     18701     18703     18705     18701     18703     18715
     18704     18703     18705     18704     18703     18715     18705     18703     18715
     18698     18706     18707     18698     18706     18708     18698     18706     18709
     18707     18706     18708     18707     18706     18709     18708     18706     18709
     18706     18709     18710     18709     18710     18711     18709     18710     18712
     18711     18710     18712     18710     18712     18713     18710     18712     18714
     18710     18712     18762     18713     18712     18714     18713     18712     18762
     18714     18712     18762     18703     18715     18716     18703     18715     18717
     18703     18715     18718     18716     18715     18717     18716     18715     18718
     18717     18715     18718     18715     18718     18719     18715     18718     18720
     18715     18718     18721     18719     18718     18720     18719     18718     18721
     18720     18718     18721     18718     18721     18722     18718     18721     18723
     18718     18721     18724     18722     18721     18723     18722     18721     18724
     18723     18721     18724     18721     18724     18725     18721     18724     18726
     18721     18724     18727     18725     18724     18726     18725     18724     18727
     18726     18724     18727     18724     18727     18728     18724     18727     18729
     18724     18727     18730     18728     18727     18729     18728     18727     18730
     18729     18727     18730     18727     18730     18731     18727     18730     18732
     18727     18730     18733     18731     18730     18732     18731     18730     18733
     18732     18730     18733     18730     18733     18734     18730     18733     18735
     18734     18733     18735     18733     18735     18736     18733     18735     18737
     18736     18735     18737     18735     18737     18738     18735     18737     18739
     18735     18737     18740     18738     18737     18739     18738     18737     18740
     18739     18737     18740     18737     18740     18741     18737     18740     18742
     18737     18740     18743     18741     18740     18742     18741     18740     18743
     18742     18740     18743     18740     18743     18744     18740     18743     18745
     18740     18743     18746     18744     18743     18745     18744     18743     18746
     18745     18743     18746     18743     18746     18747     18743     18746     18748
     18743     18746     18749     18747     18746     18748     18747     18746     18749
     18748     18746     18749     18746     18749     18750     18746     18749     18751
     18746     18749     18752     18750     18749     18751     18750     18749     18752
     18751     18749     18752     18749     18752     18753     18749     18752     18754
     18749     18752     18755     18753     18752     18754     18753     18752     18755
     18754     18752     18755     18752     18755     18756     18752     18755     18757
     18752     18755     18758     18756     18755     18757     18756     18755     18758
     18757     18755     18758     18755     18758     18759     18755     18758     18760
     18755     18758     18761     18759     18758     18760     18759     18758     18761
     18760     18758     18761     18712     18762     18763     18712     18762     18764
     18712     18762     18765     18763     18762     18764     18763     18762     18765
     18764     18762     18765     18762     18765     18766     18762     18765     18767
     18762     18765     18768     18766     18765     18767     18766     18765     18768
     18767     18765     18768     18765     18768     18769     18765     18768     18770
     18765     18768     18771     18769     18768     18770     18769     18768     18771
     18770     18768     18771     18768     18771     18772     18768     18771     18773
     18768     18771     18774     18772     18771     18773     18772     18771     18774
     18773     18771     18774     18771     18774     18775     18771     18774     18776
     18771     18774     18777     18775     18774     18776     18775     18774     18777
     18776     18774     18777     18774     18777     18778     18774     18777     18779
     18774     18777     18780     18778     18777     18779     18778     18777     18780
     18779     18777     18780     18777     18780     18781     18777     18780     18782
     18777     18780     18783     18781     18780     18782     18781     18780     18783
     18782     18780     18783     18780     18783     18784     18780     18783     18785
     18780     18783     18786     18784     18783     18785     18784     18783     18786
     18785     18783     18786     18783     18786     18787     18783     18786     18788
     18783     18786     18789     18787     18786     18788     18787     18786     18789
     18788     18786     18789     18786     18789     18790     18786     18789     18791
     18786     18789     18792     18790     18789     18791     18790     18789     18792
     18791     18789     18792     18789     18792     18793     18789     18792     18794
     18789     18792     18795     18793     18792     18794     18793     18792     18795
     18794     18792     18795     18792     18795     18796     18792     18795     18797
     18792     18795     18798     18796     18795     18797     18796     18795     18798
     18797     18795     18798     18795     18798     18799     18795     18798     18800
     18795     18798     18801     18799     18798     18800     18799     18798     18801
     18800     18798     18801     18798     18801     18802     18798     18801     18803
     18798     18801     18804     18802     18801     18803     18802     18801     18804
     18803     18801     18804     18806     18805     18809     18806     18805     18813
     18806     18805     18817     18809     18805     18813     18809     18805     18817
     18813     18805     18817     18805     18806     18807     18805     18806     18808
     18805     18806     18821     18807     18806     18808     18807     18806     18821
     18808     18806     18821     18805     18809     18810     18805     18809     18811
     18805     18809     18812     18810     18809     18811     18810     18809     18812
     18811     18809     18812     18805     18813     18814     18805     18813     18815
     18805     18813     18816     18814     18813     18815     18814     18813     18816
     18815     18813     18816     18805     18817     18818     18805     18817     18819
     18805     18817     18820     18818     18817     18819     18818     18817     18820
     18819     18817     18820     18806     18821     18822     18806     18821     18823
     18806     18821     18827     18822     18821     18823     18822     18821     18827
     18823     18821     18827     18825     18824     18826     18825     18824     18827
     18825     18824     18828     18826     18824     18827     18826     18824     18828
     18827     18824     18828     18821     18827     18824     18824     18828     18829
     18828     18829     18830     18828     18829     18831     18828     18829     18832
     18830     18829     18831     18830     18829     18832     18831     18829     18832
     18829     18832     18833     18829     18832     18834     18829     18832     18840
     18833     18832     18834     18833     18832     18840     18834     18832     18840
     18832     18834     18835     18834     18835     18836     18834     18835     18837
     18836     18835     18837     18835     18837     18838     18835     18837     18839
     18835     18837     18849     18838     18837     18839     18838     18837     18849
     18839     18837     18849     18832     18840     18841     18832     18840     18842
     18832     18840     18843     18841     18840     18842     18841     18840     18843
     18842     18840     18843     18840     18843     18844     18843     18844     18845
     18843     18844     18846     18845     18844     18846     18844     18846     18847
     18844     18846     18848     18844     18846     18896     18847     18846     18848
     18847     18846     18896     18848     18846     18896     18837     18849     18850
     18837     18849     18851     18837     18849     18852     18850     18849     18851
     18850     18849     18852     18851     18849     18852     18849     18852     18853
     18849     18852     18854     18849     18852     18855     18853     18852     18854
     18853     18852     18855     18854     18852     18855     18852     18855     18856
     18852     18855     18857     18852     18855     18858     18856     18855     18857
     18856     18855     18858     18857     18855     18858     18855     18858     18859
     18855     18858     18860     18855     18858     18861     18859     18858     18860
     18859     18858     18861     18860     18858     18861     18858     18861     18862
     18858     18861     18863     18858     18861     18864     18862     18861     18863
     18862     18861     18864     18863     18861     18864     18861     18864     18865
     18861     18864     18866     18861     18864     18867     18865     18864     18866
     18865     18864     18867     18866     18864     18867     18864     18867     18868
     18864     18867     18869     18868     18867     18869     18867     18869     18870
     18867     18869     18871     18870     18869     18871     18869     18871     18872
     18869     18871     18873     18869     18871     18874     18872     18871     18873
     18872     18871     18874     18873     18871     18874     18871     18874     18875
     18871     18874     18876     18871     18874     18877     18875     18874     18876
     18875     18874     18877     18876     18874     18877     18874     18877     18878
     18874     18877     18879     18874     18877     18880     18878     18877     18879
     18878     18877     18880     18879     18877     18880     18877     18880     18881
     18877     18880     18882     18877     18880     18883     18881     18880     18882
     18881     18880     18883     18882     18880     18883     18880     18883     18884
     18880     18883     18885     18880     18883     18886     18884     18883     18885
     18884     18883     18886     18885     18883     18886     18883     18886     18887
     18883     18886     18888     18883     18886     18889     18887     18886     18888
     18887     18886     18889     18888     18886     18889     18886     18889     18890
     18886     18889     18891     18886     18889     18892     18890     18889     18891
     18890     18889     18892     18891     18889     18892     18889     18892     18893
     18889     18892     18894     18889     18892     18895     18893     18892     18894
     18893     18892     18895     18894     18892     18895     18846     18896     18897
     18846     18896     18898     18846     18896     18899     18897     18896     18898
     18897     18896     18899     18898     18896     18899     18896     18899     18900
     18896     18899     18901     18896     18899     18902     18900     18899     18901
     18900     18899     18902     18901     18899     18902     18899     18902     18903
     18899     18902     18904     18899     18902     18905     18903     18902     18904
     18903     18902     18905     18904     18902     18905     18902     18905     18906
     18902     18905     18907     18902     18905     18908     18906     18905     18907
     18906     18905     18908     18907     18905     18908     18905     18908     18909
     18905     18908     18910     18905     18908     18911     18909     18908     18910
     18909     18908     18911     18910     18908     18911     18908     18911     18912
     18908     18911     18913     18908     18911     18914     18912     18911     18913
     18912     18911     18914     18913     18911     18914     18911     18914     18915
     18911     18914     18916     18911     18914     18917     18915     18914     18916
     18915     18914     18917     18916     18914     18917     18914     18917     18918
     18914     18917     18919     18914     18917     18920     18918     18917     18919
     18918     18917     18920     18919     18917     18920     18917     18920     18921
     18917     18920     18922     18917     18920     18923     18921     18920     18922
     18921     18920     18923     18922     18920     18923     18920     18923     18924
     18920     18923     18925     18920     18923     18926     18924     18923     18925
     18924     18923     18926     18925     18923     18926     18923     18926     18927
     18923     18926     18928     18923     18926     18929     18927     18926     18928
     18927     18926     18929     18928     18926     18929     18926     18929     18930
     18926     18929     18931     18926     18929     18932     18930     18929     18931
     18930     18929     18932     18931     18929     18932     18929     18932     18933
     18929     18932     18934     18929     18932     18935     18933     18932     18934
     18933     18932     18935     18934     18932     18935     18932     18935     18936
     18932     18935     18937     18932     18935     18938     18936     18935     18937
     18936     18935     18938     18937     18935     18938     18940     18939     18943
     18940     18939     18947     18940     18939     18951     18943     18939     18947
     18943     18939     18951     18947     18939     18951     18939     18940     18941
     18939     18940     18942     18939     18940     18955     18941     18940     18942
     18941     18940     18955     18942     18940     18955     18939     18943     18944
     18939     18943     18945     18939     18943     18946     18944     18943     18945
     18944     18943     18946     18945     18943     18946     18939     18947     18948
     18939     18947     18949     18939     18947     18950     18948     18947     18949
     18948     18947     18950     18949     18947     18950     18939     18951     18952
     18939     18951     18953     18939     18951     18954     18952     18951     18953
     18952     18951     18954     18953     18951     18954     18940     18955     18956
     18940     18955     18957     18940     18955     18961     18956     18955     18957
     18956     18955     18961     18957     18955     18961     18959     18958     18960
     18959     18958     18961     18959     18958     18962     18960     18958     18961
     18960     18958     18962     18961     18958     18962     18955     18961     18958
     18958     18962     18963     18962     18963     18964     18962     18963     18965
     18962     18963     18966     18964     18963     18965     18964     18963     18966
     18965     18963     18966     18963     18966     18967     18963     18966     18968
     18963     18966     18974     18967     18966     18968     18967     18966     18974
     18968     18966     18974     18966     18968     18969     18968     18969     18970
     18968     18969     18971     18970     18969     18971     18969     18971     18972
     18969     18971     18973     18969     18971     18983     18972     18971     18973
     18972     18971     18983     18973     18971     18983     18966     18974     18975
     18966     18974     18976     18966     18974     18977     18975     18974     18976
     18975     18974     18977     18976     18974     18977     18974     18977     18978
     18977     18978     18979     18977     18978     18980     18979     18978     18980
     18978     18980     18981     18978     18980     18982     18978     18980     19030
     18981     18980     18982     18981     18980     19030     18982     18980     19030
     18971     18983     18984     18971     18983     18985     18971     18983     18986
     18984     18983     18985     18984     18983     18986     18985     18983     18986
     18983     18986     18987     18983     18986     18988     18983     18986     18989
     18987     18986     18988     18987     18986     18989     18988     18986     18989
     18986     18989     18990     18986     18989     18991     18986     18989     18992
     18990     18989     18991     18990     18989     18992     18991     18989     18992
     18989     18992     18993     18989     18992     18994     18989     18992     18995
     18993     18992     18994     18993     18992     18995     18994     18992     18995
     18992     18995     18996     18992     18995     18997     18992     18995     18998
     18996     18995     18997     18996     18995     18998     18997     18995     18998
     18995     18998     18999     18995     18998     19000     18995     18998     19001
     18999     18998     19000     18999     18998     19001     19000     18998     19001
     18998     19001     19002     18998     19001     19003     19002     19001     19003
     19001     19003     19004     19001     19003     19005     19004     19003     19005
     19003     19005     19006     19003     19005     19007     19003     19005     19008
     19006     19005     19007     19006     19005     19008     19007     19005     19008
     19005     19008     19009     19005     19008     19010     19005     19008     19011
     19009     19008     19010     19009     19008     19011     19010     19008     19011
     19008     19011     19012     19008     19011     19013     19008     19011     19014
     19012     19011     19013     19012     19011     19014     19013     19011     19014
     19011     19014     19015     19011     19014     19016     19011     19014     19017
     19015     19014     19016     19015     19014     19017     19016     19014     19017
     19014     19017     19018     19014     19017     19019     19014     19017     19020
     19018     19017     19019     19018     19017     19020     19019     19017     19020
     19017     19020     19021     19017     19020     19022     19017     19020     19023
     19021     19020     19022     19021     19020     19023     19022     19020     19023
     19020     19023     19024     19020     19023     19025     19020     19023     19026
     19024     19023     19025     19024     19023     19026     19025     19023     19026
     19023     19026     19027     19023     19026     19028     19023     19026     19029
     19027     19026     19028     19027     19026     19029     19028     19026     19029
     18980     19030     19031     18980     19030     19032     18980     19030     19033
     19031     19030     19032     19031     19030     19033     19032     19030     19033
     19030     19033     19034     19030     19033     19035     19030     19033     19036
     19034     19033     19035     19034     19033     19036     19035     19033     19036
     19033     19036     19037     19033     19036     19038     19033     19036     19039
     19037     19036     19038     19037     19036     19039     19038     19036     19039
     19036     19039     19040     19036     19039     19041     19036     19039     19042
     19040     19039     19041     19040     19039     19042     19041     19039     19042
     19039     19042     19043     19039     19042     19044     19039     19042     19045
     19043     19042     19044     19043     19042     19045     19044     19042     19045
     19042     19045     19046     19042     19045     19047     19042     19045     19048
     19046     19045     19047     19046     19045     19048     19047     19045     19048
     19045     19048     19049     19045     19048     19050     19045     19048     19051
     19049     19048     19050     19049     19048     19051     19050     19048     19051
     19048     19051     19052     19048     19051     19053     19048     19051     19054
     19052     19051     19053     19052     19051     19054     19053     19051     19054
     19051     19054     19055     19051     19054     19056     19051     19054     19057
     19055     19054     19056     19055     19054     19057     19056     19054     19057
     19054     19057     19058     19054     19057     19059     19054     19057     19060
     19058     19057     19059     19058     19057     19060     19059     19057     19060
     19057     19060     19061     19057     19060     19062     19057     19060     19063
     19061     19060     19062     19061     19060     19063     19062     19060     19063
     19060     19063     19064     19060     19063     19065     19060     19063     19066
     19064     19063     19065     19064     19063     19066     19065     19063     19066
     19063     19066     19067     19063     19066     19068     19063     19066     19069
     19067     19066     19068     19067     19066     19069     19068     19066     19069
     19066     19069     19070     19066     19069     19071     19066     19069     19072
     19070     19069     19071     19070     19069     19072     19071     19069     19072
     19074     19073     19077     19074     19073     19081     19074     19073     19085
     19077     19073     19081     19077     19073     19085     19081     19073     19085
     19073     19074     19075     19073     19074     19076     19073     19074     19089
     19075     19074     19076     19075     19074     19089     19076     19074     19089
     19073     19077     19078     19073     19077     19079     19073     19077     19080
     19078     19077     19079     19078     19077     19080     19079     19077     19080
     19073     19081     19082     19073     19081     19083     19073     19081     19084
     19082     19081     19083     19082     19081     19084     19083     19081     19084
     19073     19085     19086     19073     19085     19087     19073     19085     19088
     19086     19085     19087     19086     19085     19088     19087     19085     19088
     19074     19089     19090     19074     19089     19091     19074     19089     19095
     19090     19089     19091     19090     19089     19095     19091     19089     19095
     19093     19092     19094     19093     19092     19095     19093     19092     19096
     19094     19092     19095     19094     19092     19096     19095     19092     19096
     19089     19095     19092     19092     19096     19097     19096     19097     19098
     19096     19097     19099     19096     19097     19100     19098     19097     19099
     19098     19097     19100     19099     19097     19100     19097     19100     19101
     19097     19100     19102     19097     19100     19108     19101     19100     19102
     19101     19100     19108     19102     19100     19108     19100     19102     19103
     19102     19103     19104     19102     19103     19105     19104     19103     19105
     19103     19105     19106     19103     19105     19107     19103     19105     19117
     19106     19105     19107     19106     19105     19117     19107     19105     19117
     19100     19108     19109     19100     19108     19110     19100     19108     19111
     19109     19108     19110     19109     19108     19111     19110     19108     19111
     19108     19111     19112     19111     19112     19113     19111     19112     19114
     19113     19112     19114     19112     19114     19115     19112     19114     19116
     19112     19114     19164     19115     19114     19116     19115     19114     19164
     19116     19114     19164     19105     19117     19118     19105     19117     19119
     19105     19117     19120     19118     19117     19119     19118     19117     19120
     19119     19117     19120     19117     19120     19121     19117     19120     19122
     19117     19120     19123     19121     19120     19122     19121     19120     19123
     19122     19120     19123     19120     19123     19124     19120     19123     19125
     19120     19123     19126     19124     19123     19125     19124     19123     19126
     19125     19123     19126     19123     19126     19127     19123     19126     19128
     19123     19126     19129     19127     19126     19128     19127     19126     19129
     19128     19126     19129     19126     19129     19130     19126     19129     19131
     19126     19129     19132     19130     19129     19131     19130     19129     19132
     19131     19129     19132     19129     19132     19133     19129     19132     19134
     19129     19132     19135     19133     19132     19134     19133     19132     19135
     19134     19132     19135     19132     19135     19136     19132     19135     19137
     19136     19135     19137     19135     19137     19138     19135     19137     19139
     19138     19137     19139     19137     19139     19140     19137     19139     19141
     19137     19139     19142     19140     19139     19141     19140     19139     19142
     19141     19139     19142     19139     19142     19143     19139     19142     19144
     19139     19142     19145     19143     19142     19144     19143     19142     19145
     19144     19142     19145     19142     19145     19146     19142     19145     19147
     19142     19145     19148     19146     19145     19147     19146     19145     19148
     19147     19145     19148     19145     19148     19149     19145     19148     19150
     19145     19148     19151     19149     19148     19150     19149     19148     19151
     19150     19148     19151     19148     19151     19152     19148     19151     19153
     19148     19151     19154     19152     19151     19153     19152     19151     19154
     19153     19151     19154     19151     19154     19155     19151     19154     19156
     19151     19154     19157     19155     19154     19156     19155     19154     19157
     19156     19154     19157     19154     19157     19158     19154     19157     19159
     19154     19157     19160     19158     19157     19159     19158     19157     19160
     19159     19157     19160     19157     19160     19161     19157     19160     19162
     19157     19160     19163     19161     19160     19162     19161     19160     19163
     19162     19160     19163     19114     19164     19165     19114     19164     19166
     19114     19164     19167     19165     19164     19166     19165     19164     19167
     19166     19164     19167     19164     19167     19168     19164     19167     19169
     19164     19167     19170     19168     19167     19169     19168     19167     19170
     19169     19167     19170     19167     19170     19171     19167     19170     19172
     19167     19170     19173     19171     19170     19172     19171     19170     19173
     19172     19170     19173     19170     19173     19174     19170     19173     19175
     19170     19173     19176     19174     19173     19175     19174     19173     19176
     19175     19173     19176     19173     19176     19177     19173     19176     19178
     19173     19176     19179     19177     19176     19178     19177     19176     19179
     19178     19176     19179     19176     19179     19180     19176     19179     19181
     19176     19179     19182     19180     19179     19181     19180     19179     19182
     19181     19179     19182     19179     19182     19183     19179     19182     19184
     19179     19182     19185     19183     19182     19184     19183     19182     19185
     19184     19182     19185     19182     19185     19186     19182     19185     19187
     19182     19185     19188     19186     19185     19187     19186     19185     19188
     19187     19185     19188     19185     19188     19189     19185     19188     19190
     19185     19188     19191     19189     19188     19190     19189     19188     19191
     19190     19188     19191     19188     19191     19192     19188     19191     19193
     19188     19191     19194     19192     19191     19193     19192     19191     19194
     19193     19191     19194     19191     19194     19195     19191     19194     19196
     19191     19194     19197     19195     19194     19196     19195     19194     19197
     19196     19194     19197     19194     19197     19198     19194     19197     19199
     19194     19197     19200     19198     19197     19199     19198     19197     19200
     19199     19197     19200     19197     19200     19201     19197     19200     19202
     19197     19200     19203     19201     19200     19202     19201     19200     19203
     19202     19200     19203     19200     19203     19204     19200     19203     19205
     19200     19203     19206     19204     19203     19205     19204     19203     19206
     19205     19203     19206     19208     19207     19211     19208     19207     19215
     19208     19207     19219     19211     19207     19215     19211     19207     19219
     19215     19207     19219     19207     19208     19209     19207     19208     19210
     19207     19208     19223     19209     19208     19210     19209     19208     19223
     19210     19208     19223     19207     19211     19212     19207     19211     19213
     19207     19211     19214     19212     19211     19213     19212     19211     19214
     19213     19211     19214     19207     19215     19216     19207     19215     19217
     19207     19215     19218     19216     19215     19217     19216     19215     19218
     19217     19215     19218     19207     19219     19220     19207     19219     19221
     19207     19219     19222     19220     19219     19221     19220     19219     19222
     19221     19219     19222     19208     19223     19224     19208     19223     19225
     19208     19223     19229     19224     19223     19225     19224     19223     19229
     19225     19223     19229     19227     19226     19228     19227     19226     19229
     19227     19226     19230     19228     19226     19229     19228     19226     19230
     19229     19226     19230     19223     19229     19226     19226     19230     19231
     19230     19231     19232     19230     19231     19233     19230     19231     19234
     19232     19231     19233     19232     19231     19234     19233     19231     19234
     19231     19234     19235     19231     19234     19236     19231     19234     19242
     19235     19234     19236     19235     19234     19242     19236     19234     19242
     19234     19236     19237     19236     19237     19238     19236     19237     19239
     19238     19237     19239     19237     19239     19240     19237     19239     19241
     19237     19239     19251     19240     19239     19241     19240     19239     19251
     19241     19239     19251     19234     19242     19243     19234     19242     19244
     19234     19242     19245     19243     19242     19244     19243     19242     19245
     19244     19242     19245     19242     19245     19246     19245     19246     19247
     19245     19246     19248     19247     19246     19248     19246     19248     19249
     19246     19248     19250     19246     19248     19298     19249     19248     19250
     19249     19248     19298     19250     19248     19298     19239     19251     19252
     19239     19251     19253     19239     19251     19254     19252     19251     19253
     19252     19251     19254     19253     19251     19254     19251     19254     19255
     19251     19254     19256     19251     19254     19257     19255     19254     19256
     19255     19254     19257     19256     19254     19257     19254     19257     19258
     19254     19257     19259     19254     19257     19260     19258     19257     19259
     19258     19257     19260     19259     19257     19260     19257     19260     19261
     19257     19260     19262     19257     19260     19263     19261     19260     19262
     19261     19260     19263     19262     19260     19263     19260     19263     19264
     19260     19263     19265     19260     19263     19266     19264     19263     19265
     19264     19263     19266     19265     19263     19266     19263     19266     19267
     19263     19266     19268     19263     19266     19269     19267     19266     19268
     19267     19266     19269     19268     19266     19269     19266     19269     19270
     19266     19269     19271     19270     19269     19271     19269     19271     19272
     19269     19271     19273     19272     19271     19273     19271     19273     19274
     19271     19273     19275     19271     19273     19276     19274     19273     19275
     19274     19273     19276     19275     19273     19276     19273     19276     19277
     19273     19276     19278     19273     19276     19279     19277     19276     19278
     19277     19276     19279     19278     19276     19279     19276     19279     19280
     19276     19279     19281     19276     19279     19282     19280     19279     19281
     19280     19279     19282     19281     19279     19282     19279     19282     19283
     19279     19282     19284     19279     19282     19285     19283     19282     19284
     19283     19282     19285     19284     19282     19285     19282     19285     19286
     19282     19285     19287     19282     19285     19288     19286     19285     19287
     19286     19285     19288     19287     19285     19288     19285     19288     19289
     19285     19288     19290     19285     19288     19291     19289     19288     19290
     19289     19288     19291     19290     19288     19291     19288     19291     19292
     19288     19291     19293     19288     19291     19294     19292     19291     19293
     19292     19291     19294     19293     19291     19294     19291     19294     19295
     19291     19294     19296     19291     19294     19297     19295     19294     19296
     19295     19294     19297     19296     19294     19297     19248     19298     19299
     19248     19298     19300     19248     19298     19301     19299     19298     19300
     19299     19298     19301     19300     19298     19301     19298     19301     19302
     19298     19301     19303     19298     19301     19304     19302     19301     19303
     19302     19301     19304     19303     19301     19304     19301     19304     19305
     19301     19304     19306     19301     19304     19307     19305     19304     19306
     19305     19304     19307     19306     19304     19307     19304     19307     19308
     19304     19307     19309     19304     19307     19310     19308     19307     19309
     19308     19307     19310     19309     19307     19310     19307     19310     19311
     19307     19310     19312     19307     19310     19313     19311     19310     19312
     19311     19310     19313     19312     19310     19313     19310     19313     19314
     19310     19313     19315     19310     19313     19316     19314     19313     19315
     19314     19313     19316     19315     19313     19316     19313     19316     19317
     19313     19316     19318     19313     19316     19319     19317     19316     19318
     19317     19316     19319     19318     19316     19319     19316     19319     19320
     19316     19319     19321     19316     19319     19322     19320     19319     19321
     19320     19319     19322     19321     19319     19322     19319     19322     19323
     19319     19322     19324     19319     19322     19325     19323     19322     19324
     19323     19322     19325     19324     19322     19325     19322     19325     19326
     19322     19325     19327     19322     19325     19328     19326     19325     19327
     19326     19325     19328     19327     19325     19328     19325     19328     19329
     19325     19328     19330     19325     19328     19331     19329     19328     19330
     19329     19328     19331     19330     19328     19331     19328     19331     19332
     19328     19331     19333     19328     19331     19334     19332     19331     19333
     19332     19331     19334     19333     19331     19334     19331     19334     19335
     19331     19334     19336     19331     19334     19337     19335     19334     19336
     19335     19334     19337     19336     19334     19337     19334     19337     19338
     19334     19337     19339     19334     19337     19340     19338     19337     19339
     19338     19337     19340     19339     19337     19340     19342     19341     19343
     19342     19341     19344     19342     19341     19345     19343     19341     19344
     19343     19341     19345     19344     19341     19345     19341     19345     19346
     19341     19345     19347     19341     19345     19350     19346     19345     19347
     19346     19345     19350     19347     19345     19350     19345     19347     19348
     19345     19347     19349     19348     19347     19349     19345     19350     19351
     19345     19350     19352     19345     19350     19356     19351     19350     19352
     19351     19350     19356     19352     19350     19356     19354     19353     19355
     19354     19353     19356     19354     19353     19357     19355     19353     19356
     19355     19353     19357     19356     19353     19357     19350     19356     19353
     19353     19357     19358     19357     19358     19359     19357     19358     19360
     19357     19358     19361     19359     19358     19360     19359     19358     19361
     19360     19358     19361     19358     19361     19362     19358     19361     19363
     19358     19361     19369     19362     19361     19363     19362     19361     19369
     19363     19361     19369     19361     19363     19364     19363     19364     19365
     19363     19364     19366     19365     19364     19366     19364     19366     19367
     19364     19366     19368     19364     19366     19378     19367     19366     19368
     19367     19366     19378     19368     19366     19378     19361     19369     19370
     19361     19369     19371     19361     19369     19372     19370     19369     19371
     19370     19369     19372     19371     19369     19372     19369     19372     19373
     19372     19373     19374     19372     19373     19375     19374     19373     19375
     19373     19375     19376     19373     19375     19377     19373     19375     19425
     19376     19375     19377     19376     19375     19425     19377     19375     19425
     19366     19378     19379     19366     19378     19380     19366     19378     19381
     19379     19378     19380     19379     19378     19381     19380     19378     19381
     19378     19381     19382     19378     19381     19383     19378     19381     19384
     19382     19381     19383     19382     19381     19384     19383     19381     19384
     19381     19384     19385     19381     19384     19386     19381     19384     19387
     19385     19384     19386     19385     19384     19387     19386     19384     19387
     19384     19387     19388     19384     19387     19389     19384     19387     19390
     19388     19387     19389     19388     19387     19390     19389     19387     19390
     19387     19390     19391     19387     19390     19392     19387     19390     19393
     19391     19390     19392     19391     19390     19393     19392     19390     19393
     19390     19393     19394     19390     19393     19395     19390     19393     19396
     19394     19393     19395     19394     19393     19396     19395     19393     19396
     19393     19396     19397     19393     19396     19398     19397     19396     19398
     19396     19398     19399     19396     19398     19400     19399     19398     19400
     19398     19400     19401     19398     19400     19402     19398     19400     19403
     19401     19400     19402     19401     19400     19403     19402     19400     19403
     19400     19403     19404     19400     19403     19405     19400     19403     19406
     19404     19403     19405     19404     19403     19406     19405     19403     19406
     19403     19406     19407     19403     19406     19408     19403     19406     19409
     19407     19406     19408     19407     19406     19409     19408     19406     19409
     19406     19409     19410     19406     19409     19411     19406     19409     19412
     19410     19409     19411     19410     19409     19412     19411     19409     19412
     19409     19412     19413     19409     19412     19414     19409     19412     19415
     19413     19412     19414     19413     19412     19415     19414     19412     19415
     19412     19415     19416     19412     19415     19417     19412     19415     19418
     19416     19415     19417     19416     19415     19418     19417     19415     19418
     19415     19418     19419     19415     19418     19420     19415     19418     19421
     19419     19418     19420     19419     19418     19421     19420     19418     19421
     19418     19421     19422     19418     19421     19423     19418     19421     19424
     19422     19421     19423     19422     19421     19424     19423     19421     19424
     19375     19425     19426     19375     19425     19427     19375     19425     19428
     19426     19425     19427     19426     19425     19428     19427     19425     19428
     19425     19428     19429     19425     19428     19430     19425     19428     19431
     19429     19428     19430     19429     19428     19431     19430     19428     19431
     19428     19431     19432     19428     19431     19433     19428     19431     19434
     19432     19431     19433     19432     19431     19434     19433     19431     19434
     19431     19434     19435     19431     19434     19436     19431     19434     19437
     19435     19434     19436     19435     19434     19437     19436     19434     19437
     19434     19437     19438     19434     19437     19439     19434     19437     19440
     19438     19437     19439     19438     19437     19440     19439     19437     19440
     19437     19440     19441     19437     19440     19442     19437     19440     19443
     19441     19440     19442     19441     19440     19443     19442     19440     19443
     19440     19443     19444     19440     19443     19445     19440     19443     19446
     19444     19443     19445     19444     19443     19446     19445     19443     19446
     19443     19446     19447     19443     19446     19448     19443     19446     19449
     19447     19446     19448     19447     19446     19449     19448     19446     19449
     19446     19449     19450     19446     19449     19451     19446     19449     19452
     19450     19449     19451     19450     19449     19452     19451     19449     19452
     19449     19452     19453     19449     19452     19454     19449     19452     19455
     19453     19452     19454     19453     19452     19455     19454     19452     19455
     19452     19455     19456     19452     19455     19457     19452     19455     19458
     19456     19455     19457     19456     19455     19458     19457     19455     19458
     19455     19458     19459     19455     19458     19460     19455     19458     19461
     19459     19458     19460     19459     19458     19461     19460     19458     19461
     19458     19461     19462     19458     19461     19463     19458     19461     19464
     19462     19461     19463     19462     19461     19464     19463     19461     19464
     19461     19464     19465     19461     19464     19466     19461     19464     19467
     19465     19464     19466     19465     19464     19467     19466     19464     19467
     19469     19468     19472     19469     19468     19476     19469     19468     19480
     19472     19468     19476     19472     19468     19480     19476     19468     19480
     19468     19469     19470     19468     19469     19471     19468     19469     19484
     19470     19469     19471     19470     19469     19484     19471     19469     19484
     19468     19472     19473     19468     19472     19474     19468     19472     19475
     19473     19472     19474     19473     19472     19475     19474     19472     19475
     19468     19476     19477     19468     19476     19478     19468     19476     19479
     19477     19476     19478     19477     19476     19479     19478     19476     19479
     19468     19480     19481     19468     19480     19482     19468     19480     19483
     19481     19480     19482     19481     19480     19483     19482     19480     19483
     19469     19484     19485     19469     19484     19486     19469     19484     19490
     19485     19484     19486     19485     19484     19490     19486     19484     19490
     19488     19487     19489     19488     19487     19490     19488     19487     19491
     19489     19487     19490     19489     19487     19491     19490     19487     19491
     19484     19490     19487     19487     19491     19492     19491     19492     19493
     19491     19492     19494     19491     19492     19495     19493     19492     19494
     19493     19492     19495     19494     19492     19495     19492     19495     19496
     19492     19495     19497     19492     19495     19503     19496     19495     19497
     19496     19495     19503     19497     19495     19503     19495     19497     19498
     19497     19498     19499     19497     19498     19500     19499     19498     19500
     19498     19500     19501     19498     19500     19502     19498     19500     19512
     19501     19500     19502     19501     19500     19512     19502     19500     19512
     19495     19503     19504     19495     19503     19505     19495     19503     19506
     19504     19503     19505     19504     19503     19506     19505     19503     19506
     19503     19506     19507     19506     19507     19508     19506     19507     19509
     19508     19507     19509     19507     19509     19510     19507     19509     19511
     19507     19509     19559     19510     19509     19511     19510     19509     19559
     19511     19509     19559     19500     19512     19513     19500     19512     19514
     19500     19512     19515     19513     19512     19514     19513     19512     19515
     19514     19512     19515     19512     19515     19516     19512     19515     19517
     19512     19515     19518     19516     19515     19517     19516     19515     19518
     19517     19515     19518     19515     19518     19519     19515     19518     19520
     19515     19518     19521     19519     19518     19520     19519     19518     19521
     19520     19518     19521     19518     19521     19522     19518     19521     19523
     19518     19521     19524     19522     19521     19523     19522     19521     19524
     19523     19521     19524     19521     19524     19525     19521     19524     19526
     19521     19524     19527     19525     19524     19526     19525     19524     19527
     19526     19524     19527     19524     19527     19528     19524     19527     19529
     19524     19527     19530     19528     19527     19529     19528     19527     19530
     19529     19527     19530     19527     19530     19531     19527     19530     19532
     19531     19530     19532     19530     19532     19533     19530     19532     19534
     19533     19532     19534     19532     19534     19535     19532     19534     19536
     19532     19534     19537     19535     19534     19536     19535     19534     19537
     19536     19534     19537     19534     19537     19538     19534     19537     19539
     19534     19537     19540     19538     19537     19539     19538     19537     19540
     19539     19537     19540     19537     19540     19541     19537     19540     19542
     19537     19540     19543     19541     19540     19542     19541     19540     19543
     19542     19540     19543     19540     19543     19544     19540     19543     19545
     19540     19543     19546     19544     19543     19545     19544     19543     19546
     19545     19543     19546     19543     19546     19547     19543     19546     19548
     19543     19546     19549     19547     19546     19548     19547     19546     19549
     19548     19546     19549     19546     19549     19550     19546     19549     19551
     19546     19549     19552     19550     19549     19551     19550     19549     19552
     19551     19549     19552     19549     19552     19553     19549     19552     19554
     19549     19552     19555     19553     19552     19554     19553     19552     19555
     19554     19552     19555     19552     19555     19556     19552     19555     19557
     19552     19555     19558     19556     19555     19557     19556     19555     19558
     19557     19555     19558     19509     19559     19560     19509     19559     19561
     19509     19559     19562     19560     19559     19561     19560     19559     19562
     19561     19559     19562     19559     19562     19563     19559     19562     19564
     19559     19562     19565     19563     19562     19564     19563     19562     19565
     19564     19562     19565     19562     19565     19566     19562     19565     19567
     19562     19565     19568     19566     19565     19567     19566     19565     19568
     19567     19565     19568     19565     19568     19569     19565     19568     19570
     19565     19568     19571     19569     19568     19570     19569     19568     19571
     19570     19568     19571     19568     19571     19572     19568     19571     19573
     19568     19571     19574     19572     19571     19573     19572     19571     19574
     19573     19571     19574     19571     19574     19575     19571     19574     19576
     19571     19574     19577     19575     19574     19576     19575     19574     19577
     19576     19574     19577     19574     19577     19578     19574     19577     19579
     19574     19577     19580     19578     19577     19579     19578     19577     19580
     19579     19577     19580     19577     19580     19581     19577     19580     19582
     19577     19580     19583     19581     19580     19582     19581     19580     19583
     19582     19580     19583     19580     19583     19584     19580     19583     19585
     19580     19583     19586     19584     19583     19585     19584     19583     19586
     19585     19583     19586     19583     19586     19587     19583     19586     19588
     19583     19586     19589     19587     19586     19588     19587     19586     19589
     19588     19586     19589     19586     19589     19590     19586     19589     19591
     19586     19589     19592     19590     19589     19591     19590     19589     19592
     19591     19589     19592     19589     19592     19593     19589     19592     19594
     19589     19592     19595     19593     19592     19594     19593     19592     19595
     19594     19592     19595     19592     19595     19596     19592     19595     19597
     19592     19595     19598     19596     19595     19597     19596     19595     19598
     19597     19595     19598     19595     19598     19599     19595     19598     19600
     19595     19598     19601     19599     19598     19600     19599     19598     19601
     19600     19598     19601     19603     19602     19606     19603     19602     19610
     19603     19602     19614     19606     19602     19610     19606     19602     19614
     19610     19602     19614     19602     19603     19604     19602     19603     19605
     19602     19603     19618     19604     19603     19605     19604     19603     19618
     19605     19603     19618     19602     19606     19607     19602     19606     19608
     19602     19606     19609     19607     19606     19608     19607     19606     19609
     19608     19606     19609     19602     19610     19611     19602     19610     19612
     19602     19610     19613     19611     19610     19612     19611     19610     19613
     19612     19610     19613     19602     19614     19615     19602     19614     19616
     19602     19614     19617     19615     19614     19616     19615     19614     19617
     19616     19614     19617     19603     19618     19619     19603     19618     19620
     19603     19618     19624     19619     19618     19620     19619     19618     19624
     19620     19618     19624     19622     19621     19623     19622     19621     19624
     19622     19621     19625     19623     19621     19624     19623     19621     19625
     19624     19621     19625     19618     19624     19621     19621     19625     19626
     19625     19626     19627     19625     19626     19628     19625     19626     19629
     19627     19626     19628     19627     19626     19629     19628     19626     19629
     19626     19629     19630     19626     19629     19631     19626     19629     19637
     19630     19629     19631     19630     19629     19637     19631     19629     19637
     19629     19631     19632     19631     19632     19633     19631     19632     19634
     19633     19632     19634     19632     19634     19635     19632     19634     19636
     19632     19634     19646     19635     19634     19636     19635     19634     19646
     19636     19634     19646     19629     19637     19638     19629     19637     19639
     19629     19637     19640     19638     19637     19639     19638     19637     19640
     19639     19637     19640     19637     19640     19641     19640     19641     19642
     19640     19641     19643     19642     19641     19643     19641     19643     19644
     19641     19643     19645     19641     19643     19693     19644     19643     19645
     19644     19643     19693     19645     19643     19693     19634     19646     19647
     19634     19646     19648     19634     19646     19649     19647     19646     19648
     19647     19646     19649     19648     19646     19649     19646     19649     19650
     19646     19649     19651     19646     19649     19652     19650     19649     19651
     19650     19649     19652     19651     19649     19652     19649     19652     19653
     19649     19652     19654     19649     19652     19655     19653     19652     19654
     19653     19652     19655     19654     19652     19655     19652     19655     19656
     19652     19655     19657     19652     19655     19658     19656     19655     19657
     19656     19655     19658     19657     19655     19658     19655     19658     19659
     19655     19658     19660     19655     19658     19661     19659     19658     19660
     19659     19658     19661     19660     19658     19661     19658     19661     19662
     19658     19661     19663     19658     19661     19664     19662     19661     19663
     19662     19661     19664     19663     19661     19664     19661     19664     19665
     19661     19664     19666     19665     19664     19666     19664     19666     19667
     19664     19666     19668     19667     19666     19668     19666     19668     19669
     19666     19668     19670     19666     19668     19671     19669     19668     19670
     19669     19668     19671     19670     19668     19671     19668     19671     19672
     19668     19671     19673     19668     19671     19674     19672     19671     19673
     19672     19671     19674     19673     19671     19674     19671     19674     19675
     19671     19674     19676     19671     19674     19677     19675     19674     19676
     19675     19674     19677     19676     19674     19677     19674     19677     19678
     19674     19677     19679     19674     19677     19680     19678     19677     19679
     19678     19677     19680     19679     19677     19680     19677     19680     19681
     19677     19680     19682     19677     19680     19683     19681     19680     19682
     19681     19680     19683     19682     19680     19683     19680     19683     19684
     19680     19683     19685     19680     19683     19686     19684     19683     19685
     19684     19683     19686     19685     19683     19686     19683     19686     19687
     19683     19686     19688     19683     19686     19689     19687     19686     19688
     19687     19686     19689     19688     19686     19689     19686     19689     19690
     19686     19689     19691     19686     19689     19692     19690     19689     19691
     19690     19689     19692     19691     19689     19692     19643     19693     19694
     19643     19693     19695     19643     19693     19696     19694     19693     19695
     19694     19693     19696     19695     19693     19696     19693     19696     19697
     19693     19696     19698     19693     19696     19699     19697     19696     19698
     19697     19696     19699     19698     19696     19699     19696     19699     19700
     19696     19699     19701     19696     19699     19702     19700     19699     19701
     19700     19699     19702     19701     19699     19702     19699     19702     19703
     19699     19702     19704     19699     19702     19705     19703     19702     19704
     19703     19702     19705     19704     19702     19705     19702     19705     19706
     19702     19705     19707     19702     19705     19708     19706     19705     19707
     19706     19705     19708     19707     19705     19708     19705     19708     19709
     19705     19708     19710     19705     19708     19711     19709     19708     19710
     19709     19708     19711     19710     19708     19711     19708     19711     19712
     19708     19711     19713     19708     19711     19714     19712     19711     19713
     19712     19711     19714     19713     19711     19714     19711     19714     19715
     19711     19714     19716     19711     19714     19717     19715     19714     19716
     19715     19714     19717     19716     19714     19717     19714     19717     19718
     19714     19717     19719     19714     19717     19720     19718     19717     19719
     19718     19717     19720     19719     19717     19720     19717     19720     19721
     19717     19720     19722     19717     19720     19723     19721     19720     19722
     19721     19720     19723     19722     19720     19723     19720     19723     19724
     19720     19723     19725     19720     19723     19726     19724     19723     19725
     19724     19723     19726     19725     19723     19726     19723     19726     19727
     19723     19726     19728     19723     19726     19729     19727     19726     19728
     19727     19726     19729     19728     19726     19729     19726     19729     19730
     19726     19729     19731     19726     19729     19732     19730     19729     19731
     19730     19729     19732     19731     19729     19732     19729     19732     19733
     19729     19732     19734     19729     19732     19735     19733     19732     19734
     19733     19732     19735     19734     19732     19735     19737     19736     19740
     19737     19736     19744     19737     19736     19748     19740     19736     19744
     19740     19736     19748     19744     19736     19748     19736     19737     19738
     19736     19737     19739     19736     19737     19752     19738     19737     19739
     19738     19737     19752     19739     19737     19752     19736     19740     19741
     19736     19740     19742     19736     19740     19743     19741     19740     19742
     19741     19740     19743     19742     19740     19743     19736     19744     19745
     19736     19744     19746     19736     19744     19747     19745     19744     19746
     19745     19744     19747     19746     19744     19747     19736     19748     19749
     19736     19748     19750     19736     19748     19751     19749     19748     19750
     19749     19748     19751     19750     19748     19751     19737     19752     19753
     19737     19752     19754     19737     19752     19758     19753     19752     19754
     19753     19752     19758     19754     19752     19758     19756     19755     19757
     19756     19755     19758     19756     19755     19759     19757     19755     19758
     19757     19755     19759     19758     19755     19759     19752     19758     19755
     19755     19759     19760     19759     19760     19761     19759     19760     19762
     19759     19760     19763     19761     19760     19762     19761     19760     19763
     19762     19760     19763     19760     19763     19764     19760     19763     19765
     19760     19763     19771     19764     19763     19765     19764     19763     19771
     19765     19763     19771     19763     19765     19766     19765     19766     19767
     19765     19766     19768     19767     19766     19768     19766     19768     19769
     19766     19768     19770     19766     19768     19780     19769     19768     19770
     19769     19768     19780     19770     19768     19780     19763     19771     19772
     19763     19771     19773     19763     19771     19774     19772     19771     19773
     19772     19771     19774     19773     19771     19774     19771     19774     19775
     19774     19775     19776     19774     19775     19777     19776     19775     19777
     19775     19777     19778     19775     19777     19779     19775     19777     19827
     19778     19777     19779     19778     19777     19827     19779     19777     19827
     19768     19780     19781     19768     19780     19782     19768     19780     19783
     19781     19780     19782     19781     19780     19783     19782     19780     19783
     19780     19783     19784     19780     19783     19785     19780     19783     19786
     19784     19783     19785     19784     19783     19786     19785     19783     19786
     19783     19786     19787     19783     19786     19788     19783     19786     19789
     19787     19786     19788     19787     19786     19789     19788     19786     19789
     19786     19789     19790     19786     19789     19791     19786     19789     19792
     19790     19789     19791     19790     19789     19792     19791     19789     19792
     19789     19792     19793     19789     19792     19794     19789     19792     19795
     19793     19792     19794     19793     19792     19795     19794     19792     19795
     19792     19795     19796     19792     19795     19797     19792     19795     19798
     19796     19795     19797     19796     19795     19798     19797     19795     19798
     19795     19798     19799     19795     19798     19800     19799     19798     19800
     19798     19800     19801     19798     19800     19802     19801     19800     19802
     19800     19802     19803     19800     19802     19804     19800     19802     19805
     19803     19802     19804     19803     19802     19805     19804     19802     19805
     19802     19805     19806     19802     19805     19807     19802     19805     19808
     19806     19805     19807     19806     19805     19808     19807     19805     19808
     19805     19808     19809     19805     19808     19810     19805     19808     19811
     19809     19808     19810     19809     19808     19811     19810     19808     19811
     19808     19811     19812     19808     19811     19813     19808     19811     19814
     19812     19811     19813     19812     19811     19814     19813     19811     19814
     19811     19814     19815     19811     19814     19816     19811     19814     19817
     19815     19814     19816     19815     19814     19817     19816     19814     19817
     19814     19817     19818     19814     19817     19819     19814     19817     19820
     19818     19817     19819     19818     19817     19820     19819     19817     19820
     19817     19820     19821     19817     19820     19822     19817     19820     19823
     19821     19820     19822     19821     19820     19823     19822     19820     19823
     19820     19823     19824     19820     19823     19825     19820     19823     19826
     19824     19823     19825     19824     19823     19826     19825     19823     19826
     19777     19827     19828     19777     19827     19829     19777     19827     19830
     19828     19827     19829     19828     19827     19830     19829     19827     19830
     19827     19830     19831     19827     19830     19832     19827     19830     19833
     19831     19830     19832     19831     19830     19833     19832     19830     19833
     19830     19833     19834     19830     19833     19835     19830     19833     19836
     19834     19833     19835     19834     19833     19836     19835     19833     19836
     19833     19836     19837     19833     19836     19838     19833     19836     19839
     19837     19836     19838     19837     19836     19839     19838     19836     19839
     19836     19839     19840     19836     19839     19841     19836     19839     19842
     19840     19839     19841     19840     19839     19842     19841     19839     19842
     19839     19842     19843     19839     19842     19844     19839     19842     19845
     19843     19842     19844     19843     19842     19845     19844     19842     19845
     19842     19845     19846     19842     19845     19847     19842     19845     19848
     19846     19845     19847     19846     19845     19848     19847     19845     19848
     19845     19848     19849     19845     19848     19850     19845     19848     19851
     19849     19848     19850     19849     19848     19851     19850     19848     19851
     19848     19851     19852     19848     19851     19853     19848     19851     19854
     19852     19851     19853     19852     19851     19854     19853     19851     19854
     19851     19854     19855     19851     19854     19856     19851     19854     19857
     19855     19854     19856     19855     19854     19857     19856     19854     19857
     19854     19857     19858     19854     19857     19859     19854     19857     19860
     19858     19857     19859     19858     19857     19860     19859     19857     19860
     19857     19860     19861     19857     19860     19862     19857     19860     19863
     19861     19860     19862     19861     19860     19863     19862     19860     19863
     19860     19863     19864     19860     19863     19865     19860     19863     19866
     19864     19863     19865     19864     19863     19866     19865     19863     19866
     19863     19866     19867     19863     19866     19868     19863     19866     19869
     19867     19866     19868     19867     19866     19869     19868     19866     19869
     19871     19870     19874     19871     19870     19878     19871     19870     19882
     19874     19870     19878     19874     19870     19882     19878     19870     19882
     19870     19871     19872     19870     19871     19873     19870     19871     19886
     19872     19871     19873     19872     19871     19886     19873     19871     19886
     19870     19874     19875     19870     19874     19876     19870     19874     19877
     19875     19874     19876     19875     19874     19877     19876     19874     19877
     19870     19878     19879     19870     19878     19880     19870     19878     19881
     19879     19878     19880     19879     19878     19881     19880     19878     19881
     19870     19882     19883     19870     19882     19884     19870     19882     19885
     19883     19882     19884     19883     19882     19885     19884     19882     19885
     19871     19886     19887     19871     19886     19888     19871     19886     19892
     19887     19886     19888     19887     19886     19892     19888     19886     19892
     19890     19889     19891     19890     19889     19892     19890     19889     19893
     19891     19889     19892     19891     19889     19893     19892     19889     19893
     19886     19892     19889     19889     19893     19894     19893     19894     19895
     19893     19894     19896     19893     19894     19897     19895     19894     19896
     19895     19894     19897     19896     19894     19897     19894     19897     19898
     19894     19897     19899     19894     19897     19905     19898     19897     19899
     19898     19897     19905     19899     19897     19905     19897     19899     19900
     19899     19900     19901     19899     19900     19902     19901     19900     19902
     19900     19902     19903     19900     19902     19904     19900     19902     19914
     19903     19902     19904     19903     19902     19914     19904     19902     19914
     19897     19905     19906     19897     19905     19907     19897     19905     19908
     19906     19905     19907     19906     19905     19908     19907     19905     19908
     19905     19908     19909     19908     19909     19910     19908     19909     19911
     19910     19909     19911     19909     19911     19912     19909     19911     19913
     19909     19911     19961     19912     19911     19913     19912     19911     19961
     19913     19911     19961     19902     19914     19915     19902     19914     19916
     19902     19914     19917     19915     19914     19916     19915     19914     19917
     19916     19914     19917     19914     19917     19918     19914     19917     19919
     19914     19917     19920     19918     19917     19919     19918     19917     19920
     19919     19917     19920     19917     19920     19921     19917     19920     19922
     19917     19920     19923     19921     19920     19922     19921     19920     19923
     19922     19920     19923     19920     19923     19924     19920     19923     19925
     19920     19923     19926     19924     19923     19925     19924     19923     19926
     19925     19923     19926     19923     19926     19927     19923     19926     19928
     19923     19926     19929     19927     19926     19928     19927     19926     19929
     19928     19926     19929     19926     19929     19930     19926     19929     19931
     19926     19929     19932     19930     19929     19931     19930     19929     19932
     19931     19929     19932     19929     19932     19933     19929     19932     19934
     19933     19932     19934     19932     19934     19935     19932     19934     19936
     19935     19934     19936     19934     19936     19937     19934     19936     19938
     19934     19936     19939     19937     19936     19938     19937     19936     19939
     19938     19936     19939     19936     19939     19940     19936     19939     19941
     19936     19939     19942     19940     19939     19941     19940     19939     19942
     19941     19939     19942     19939     19942     19943     19939     19942     19944
     19939     19942     19945     19943     19942     19944     19943     19942     19945
     19944     19942     19945     19942     19945     19946     19942     19945     19947
     19942     19945     19948     19946     19945     19947     19946     19945     19948
     19947     19945     19948     19945     19948     19949     19945     19948     19950
     19945     19948     19951     19949     19948     19950     19949     19948     19951
     19950     19948     19951     19948     19951     19952     19948     19951     19953
     19948     19951     19954     19952     19951     19953     19952     19951     19954
     19953     19951     19954     19951     19954     19955     19951     19954     19956
     19951     19954     19957     19955     19954     19956     19955     19954     19957
     19956     19954     19957     19954     19957     19958     19954     19957     19959
     19954     19957     19960     19958     19957     19959     19958     19957     19960
     19959     19957     19960     19911     19961     19962     19911     19961     19963
     19911     19961     19964     19962     19961     19963     19962     19961     19964
     19963     19961     19964     19961     19964     19965     19961     19964     19966
     19961     19964     19967     19965     19964     19966     19965     19964     19967
     19966     19964     19967     19964     19967     19968     19964     19967     19969
     19964     19967     19970     19968     19967     19969     19968     19967     19970
     19969     19967     19970     19967     19970     19971     19967     19970     19972
     19967     19970     19973     19971     19970     19972     19971     19970     19973
     19972     19970     19973     19970     19973     19974     19970     19973     19975
     19970     19973     19976     19974     19973     19975     19974     19973     19976
     19975     19973     19976     19973     19976     19977     19973     19976     19978
     19973     19976     19979     19977     19976     19978     19977     19976     19979
     19978     19976     19979     19976     19979     19980     19976     19979     19981
     19976     19979     19982     19980     19979     19981     19980     19979     19982
     19981     19979     19982     19979     19982     19983     19979     19982     19984
     19979     19982     19985     19983     19982     19984     19983     19982     19985
     19984     19982     19985     19982     19985     19986     19982     19985     19987
     19982     19985     19988     19986     19985     19987     19986     19985     19988
     19987     19985     19988     19985     19988     19989     19985     19988     19990
     19985     19988     19991     19989     19988     19990     19989     19988     19991
     19990     19988     19991     19988     19991     19992     19988     19991     19993
     19988     19991     19994     19992     19991     19993     19992     19991     19994
     19993     19991     19994     19991     19994     19995     19991     19994     19996
     19991     19994     19997     19995     19994     19996     19995     19994     19997
     19996     19994     19997     19994     19997     19998     19994     19997     19999
     19994     19997     20000     19998     19997     19999     19998     19997     20000
     19999     19997     20000     19997     20000     20001     19997     20000     20002
     19997     20000     20003     20001     20000     20002     20001     20000     20003
     20002     20000     20003     20005     20004     20008     20005     20004     20012
     20005     20004     20016     20008     20004     20012     20008     20004     20016
     20012     20004     20016     20004     20005     20006     20004     20005     20007
     20004     20005     20020     20006     20005     20007     20006     20005     20020
     20007     20005     20020     20004     20008     20009     20004     20008     20010
     20004     20008     20011     20009     20008     20010     20009     20008     20011
     20010     20008     20011     20004     20012     20013     20004     20012     20014
     20004     20012     20015     20013     20012     20014     20013     20012     20015
     20014     20012     20015     20004     20016     20017     20004     20016     20018
     20004     20016     20019     20017     20016     20018     20017     20016     20019
     20018     20016     20019     20005     20020     20021     20005     20020     20022
     20005     20020     20026     20021     20020     20022     20021     20020     20026
     20022     20020     20026     20024     20023     20025     20024     20023     20026
     20024     20023     20027     20025     20023     20026     20025     20023     20027
     20026     20023     20027     20020     20026     20023     20023     20027     20028
     20027     20028     20029     20027     20028     20030     20027     20028     20031
     20029     20028     20030     20029     20028     20031     20030     20028     20031
     20028     20031     20032     20028     20031     20033     20028     20031     20039
     20032     20031     20033     20032     20031     20039     20033     20031     20039
     20031     20033     20034     20033     20034     20035     20033     20034     20036
     20035     20034     20036     20034     20036     20037     20034     20036     20038
     20034     20036     20048     20037     20036     20038     20037     20036     20048
     20038     20036     20048     20031     20039     20040     20031     20039     20041
     20031     20039     20042     20040     20039     20041     20040     20039     20042
     20041     20039     20042     20039     20042     20043     20042     20043     20044
     20042     20043     20045     20044     20043     20045     20043     20045     20046
     20043     20045     20047     20043     20045     20095     20046     20045     20047
     20046     20045     20095     20047     20045     20095     20036     20048     20049
     20036     20048     20050     20036     20048     20051     20049     20048     20050
     20049     20048     20051     20050     20048     20051     20048     20051     20052
     20048     20051     20053     20048     20051     20054     20052     20051     20053
     20052     20051     20054     20053     20051     20054     20051     20054     20055
     20051     20054     20056     20051     20054     20057     20055     20054     20056
     20055     20054     20057     20056     20054     20057     20054     20057     20058
     20054     20057     20059     20054     20057     20060     20058     20057     20059
     20058     20057     20060     20059     20057     20060     20057     20060     20061
     20057     20060     20062     20057     20060     20063     20061     20060     20062
     20061     20060     20063     20062     20060     20063     20060     20063     20064
     20060     20063     20065     20060     20063     20066     20064     20063     20065
     20064     20063     20066     20065     20063     20066     20063     20066     20067
     20063     20066     20068     20067     20066     20068     20066     20068     20069
     20066     20068     20070     20069     20068     20070     20068     20070     20071
     20068     20070     20072     20068     20070     20073     20071     20070     20072
     20071     20070     20073     20072     20070     20073     20070     20073     20074
     20070     20073     20075     20070     20073     20076     20074     20073     20075
     20074     20073     20076     20075     20073     20076     20073     20076     20077
     20073     20076     20078     20073     20076     20079     20077     20076     20078
     20077     20076     20079     20078     20076     20079     20076     20079     20080
     20076     20079     20081     20076     20079     20082     20080     20079     20081
     20080     20079     20082     20081     20079     20082     20079     20082     20083
     20079     20082     20084     20079     20082     20085     20083     20082     20084
     20083     20082     20085     20084     20082     20085     20082     20085     20086
     20082     20085     20087     20082     20085     20088     20086     20085     20087
     20086     20085     20088     20087     20085     20088     20085     20088     20089
     20085     20088     20090     20085     20088     20091     20089     20088     20090
     20089     20088     20091     20090     20088     20091     20088     20091     20092
     20088     20091     20093     20088     20091     20094     20092     20091     20093
     20092     20091     20094     20093     20091     20094     20045     20095     20096
     20045     20095     20097     20045     20095     20098     20096     20095     20097
     20096     20095     20098     20097     20095     20098     20095     20098     20099
     20095     20098     20100     20095     20098     20101     20099     20098     20100
     20099     20098     20101     20100     20098     20101     20098     20101     20102
     20098     20101     20103     20098     20101     20104     20102     20101     20103
     20102     20101     20104     20103     20101     20104     20101     20104     20105
     20101     20104     20106     20101     20104     20107     20105     20104     20106
     20105     20104     20107     20106     20104     20107     20104     20107     20108
     20104     20107     20109     20104     20107     20110     20108     20107     20109
     20108     20107     20110     20109     20107     20110     20107     20110     20111
     20107     20110     20112     20107     20110     20113     20111     20110     20112
     20111     20110     20113     20112     20110     20113     20110     20113     20114
     20110     20113     20115     20110     20113     20116     20114     20113     20115
     20114     20113     20116     20115     20113     20116     20113     20116     20117
     20113     20116     20118     20113     20116     20119     20117     20116     20118
     20117     20116     20119     20118     20116     20119     20116     20119     20120
     20116     20119     20121     20116     20119     20122     20120     20119     20121
     20120     20119     20122     20121     20119     20122     20119     20122     20123
     20119     20122     20124     20119     20122     20125     20123     20122     20124
     20123     20122     20125     20124     20122     20125     20122     20125     20126
     20122     20125     20127     20122     20125     20128     20126     20125     20127
     20126     20125     20128     20127     20125     20128     20125     20128     20129
     20125     20128     20130     20125     20128     20131     20129     20128     20130
     20129     20128     20131     20130     20128     20131     20128     20131     20132
     20128     20131     20133     20128     20131     20134     20132     20131     20133
     20132     20131     20134     20133     20131     20134     20131     20134     20135
     20131     20134     20136     20131     20134     20137     20135     20134     20136
     20135     20134     20137     20136     20134     20137     20139     20138     20140
     20139     20138     20141     20139     20138     20142     20140     20138     20141
     20140     20138     20142     20141     20138     20142     20138     20142     20143
     20138     20142     20144     20138     20142     20147     20143     20142     20144
     20143     20142     20147     20144     20142     20147     20142     20144     20145
     20142     20144     20146     20145     20144     20146     20142     20147     20148
     20142     20147     20149     20142     20147     20153     20148     20147     20149
     20148     20147     20153     20149     20147     20153     20151     20150     20152
     20151     20150     20153     20151     20150     20154     20152     20150     20153
     20152     20150     20154     20153     20150     20154     20147     20153     20150
     20150     20154     20155     20154     20155     20156     20154     20155     20157
     20154     20155     20158     20156     20155     20157     20156     20155     20158
     20157     20155     20158     20155     20158     20159     20155     20158     20160
     20155     20158     20166     20159     20158     20160     20159     20158     20166
     20160     20158     20166     20158     20160     20161     20160     20161     20162
     20160     20161     20163     20162     20161     20163     20161     20163     20164
     20161     20163     20165     20161     20163     20175     20164     20163     20165
     20164     20163     20175     20165     20163     20175     20158     20166     20167
     20158     20166     20168     20158     20166     20169     20167     20166     20168
     20167     20166     20169     20168     20166     20169     20166     20169     20170
     20169     20170     20171     20169     20170     20172     20171     20170     20172
     20170     20172     20173     20170     20172     20174     20170     20172     20222
     20173     20172     20174     20173     20172     20222     20174     20172     20222
     20163     20175     20176     20163     20175     20177     20163     20175     20178
     20176     20175     20177     20176     20175     20178     20177     20175     20178
     20175     20178     20179     20175     20178     20180     20175     20178     20181
     20179     20178     20180     20179     20178     20181     20180     20178     20181
     20178     20181     20182     20178     20181     20183     20178     20181     20184
     20182     20181     20183     20182     20181     20184     20183     20181     20184
     20181     20184     20185     20181     20184     20186     20181     20184     20187
     20185     20184     20186     20185     20184     20187     20186     20184     20187
     20184     20187     20188     20184     20187     20189     20184     20187     20190
     20188     20187     20189     20188     20187     20190     20189     20187     20190
     20187     20190     20191     20187     20190     20192     20187     20190     20193
     20191     20190     20192     20191     20190     20193     20192     20190     20193
     20190     20193     20194     20190     20193     20195     20194     20193     20195
     20193     20195     20196     20193     20195     20197     20196     20195     20197
     20195     20197     20198     20195     20197     20199     20195     20197     20200
     20198     20197     20199     20198     20197     20200     20199     20197     20200
     20197     20200     20201     20197     20200     20202     20197     20200     20203
     20201     20200     20202     20201     20200     20203     20202     20200     20203
     20200     20203     20204     20200     20203     20205     20200     20203     20206
     20204     20203     20205     20204     20203     20206     20205     20203     20206
     20203     20206     20207     20203     20206     20208     20203     20206     20209
     20207     20206     20208     20207     20206     20209     20208     20206     20209
     20206     20209     20210     20206     20209     20211     20206     20209     20212
     20210     20209     20211     20210     20209     20212     20211     20209     20212
     20209     20212     20213     20209     20212     20214     20209     20212     20215
     20213     20212     20214     20213     20212     20215     20214     20212     20215
     20212     20215     20216     20212     20215     20217     20212     20215     20218
     20216     20215     20217     20216     20215     20218     20217     20215     20218
     20215     20218     20219     20215     20218     20220     20215     20218     20221
     20219     20218     20220     20219     20218     20221     20220     20218     20221
     20172     20222     20223     20172     20222     20224     20172     20222     20225
     20223     20222     20224     20223     20222     20225     20224     20222     20225
     20222     20225     20226     20222     20225     20227     20222     20225     20228
     20226     20225     20227     20226     20225     20228     20227     20225     20228
     20225     20228     20229     20225     20228     20230     20225     20228     20231
     20229     20228     20230     20229     20228     20231     20230     20228     20231
     20228     20231     20232     20228     20231     20233     20228     20231     20234
     20232     20231     20233     20232     20231     20234     20233     20231     20234
     20231     20234     20235     20231     20234     20236     20231     20234     20237
     20235     20234     20236     20235     20234     20237     20236     20234     20237
     20234     20237     20238     20234     20237     20239     20234     20237     20240
     20238     20237     20239     20238     20237     20240     20239     20237     20240
     20237     20240     20241     20237     20240     20242     20237     20240     20243
     20241     20240     20242     20241     20240     20243     20242     20240     20243
     20240     20243     20244     20240     20243     20245     20240     20243     20246
     20244     20243     20245     20244     20243     20246     20245     20243     20246
     20243     20246     20247     20243     20246     20248     20243     20246     20249
     20247     20246     20248     20247     20246     20249     20248     20246     20249
     20246     20249     20250     20246     20249     20251     20246     20249     20252
     20250     20249     20251     20250     20249     20252     20251     20249     20252
     20249     20252     20253     20249     20252     20254     20249     20252     20255
     20253     20252     20254     20253     20252     20255     20254     20252     20255
     20252     20255     20256     20252     20255     20257     20252     20255     20258
     20256     20255     20257     20256     20255     20258     20257     20255     20258
     20255     20258     20259     20255     20258     20260     20255     20258     20261
     20259     20258     20260     20259     20258     20261     20260     20258     20261
     20258     20261     20262     20258     20261     20263     20258     20261     20264
     20262     20261     20263     20262     20261     20264     20263     20261     20264
     20266     20265     20267     20266     20265     20268     20266     20265     20269
     20267     20265     20268     20267     20265     20269     20268     20265     20269
     20265     20269     20270     20265     20269     20271     20265     20269     20274
     20270     20269     20271     20270     20269     20274     20271     20269     20274
     20269     20271     20272     20269     20271     20273     20272     20271     20273
     20269     20274     20275     20269     20274     20276     20269     20274     20280
     20275     20274     20276     20275     20274     20280     20276     20274     20280
     20278     20277     20279     20278     20277     20280     20278     20277     20281
     20279     20277     20280     20279     20277     20281     20280     20277     20281
     20274     20280     20277     20277     20281     20282     20281     20282     20283
     20281     20282     20284     20281     20282     20285     20283     20282     20284
     20283     20282     20285     20284     20282     20285     20282     20285     20286
     20282     20285     20287     20282     20285     20293     20286     20285     20287
     20286     20285     20293     20287     20285     20293     20285     20287     20288
     20287     20288     20289     20287     20288     20290     20289     20288     20290
     20288     20290     20291     20288     20290     20292     20288     20290     20302
     20291     20290     20292     20291     20290     20302     20292     20290     20302
     20285     20293     20294     20285     20293     20295     20285     20293     20296
     20294     20293     20295     20294     20293     20296     20295     20293     20296
     20293     20296     20297     20296     20297     20298     20296     20297     20299
     20298     20297     20299     20297     20299     20300     20297     20299     20301
     20297     20299     20349     20300     20299     20301     20300     20299     20349
     20301     20299     20349     20290     20302     20303     20290     20302     20304
     20290     20302     20305     20303     20302     20304     20303     20302     20305
     20304     20302     20305     20302     20305     20306     20302     20305     20307
     20302     20305     20308     20306     20305     20307     20306     20305     20308
     20307     20305     20308     20305     20308     20309     20305     20308     20310
     20305     20308     20311     20309     20308     20310     20309     20308     20311
     20310     20308     20311     20308     20311     20312     20308     20311     20313
     20308     20311     20314     20312     20311     20313     20312     20311     20314
     20313     20311     20314     20311     20314     20315     20311     20314     20316
     20311     20314     20317     20315     20314     20316     20315     20314     20317
     20316     20314     20317     20314     20317     20318     20314     20317     20319
     20314     20317     20320     20318     20317     20319     20318     20317     20320
     20319     20317     20320     20317     20320     20321     20317     20320     20322
     20321     20320     20322     20320     20322     20323     20320     20322     20324
     20323     20322     20324     20322     20324     20325     20322     20324     20326
     20322     20324     20327     20325     20324     20326     20325     20324     20327
     20326     20324     20327     20324     20327     20328     20324     20327     20329
     20324     20327     20330     20328     20327     20329     20328     20327     20330
     20329     20327     20330     20327     20330     20331     20327     20330     20332
     20327     20330     20333     20331     20330     20332     20331     20330     20333
     20332     20330     20333     20330     20333     20334     20330     20333     20335
     20330     20333     20336     20334     20333     20335     20334     20333     20336
     20335     20333     20336     20333     20336     20337     20333     20336     20338
     20333     20336     20339     20337     20336     20338     20337     20336     20339
     20338     20336     20339     20336     20339     20340     20336     20339     20341
     20336     20339     20342     20340     20339     20341     20340     20339     20342
     20341     20339     20342     20339     20342     20343     20339     20342     20344
     20339     20342     20345     20343     20342     20344     20343     20342     20345
     20344     20342     20345     20342     20345     20346     20342     20345     20347
     20342     20345     20348     20346     20345     20347     20346     20345     20348
     20347     20345     20348     20299     20349     20350     20299     20349     20351
     20299     20349     20352     20350     20349     20351     20350     20349     20352
     20351     20349     20352     20349     20352     20353     20349     20352     20354
     20349     20352     20355     20353     20352     20354     20353     20352     20355
     20354     20352     20355     20352     20355     20356     20352     20355     20357
     20352     20355     20358     20356     20355     20357     20356     20355     20358
     20357     20355     20358     20355     20358     20359     20355     20358     20360
     20355     20358     20361     20359     20358     20360     20359     20358     20361
     20360     20358     20361     20358     20361     20362     20358     20361     20363
     20358     20361     20364     20362     20361     20363     20362     20361     20364
     20363     20361     20364     20361     20364     20365     20361     20364     20366
     20361     20364     20367     20365     20364     20366     20365     20364     20367
     20366     20364     20367     20364     20367     20368     20364     20367     20369
     20364     20367     20370     20368     20367     20369     20368     20367     20370
     20369     20367     20370     20367     20370     20371     20367     20370     20372
     20367     20370     20373     20371     20370     20372     20371     20370     20373
     20372     20370     20373     20370     20373     20374     20370     20373     20375
     20370     20373     20376     20374     20373     20375     20374     20373     20376
     20375     20373     20376     20373     20376     20377     20373     20376     20378
     20373     20376     20379     20377     20376     20378     20377     20376     20379
     20378     20376     20379     20376     20379     20380     20376     20379     20381
     20376     20379     20382     20380     20379     20381     20380     20379     20382
     20381     20379     20382     20379     20382     20383     20379     20382     20384
     20379     20382     20385     20383     20382     20384     20383     20382     20385
     20384     20382     20385     20382     20385     20386     20382     20385     20387
     20382     20385     20388     20386     20385     20387     20386     20385     20388
     20387     20385     20388     20385     20388     20389     20385     20388     20390
     20385     20388     20391     20389     20388     20390     20389     20388     20391
     20390     20388     20391     20393     20392     20396     20393     20392     20400
     20393     20392     20404     20396     20392     20400     20396     20392     20404
     20400     20392     20404     20392     20393     20394     20392     20393     20395
     20392     20393     20408     20394     20393     20395     20394     20393     20408
     20395     20393     20408     20392     20396     20397     20392     20396     20398
     20392     20396     20399     20397     20396     20398     20397     20396     20399
     20398     20396     20399     20392     20400     20401     20392     20400     20402
     20392     20400     20403     20401     20400     20402     20401     20400     20403
     20402     20400     20403     20392     20404     20405     20392     20404     20406
     20392     20404     20407     20405     20404     20406     20405     20404     20407
     20406     20404     20407     20393     20408     20409     20393     20408     20410
     20393     20408     20414     20409     20408     20410     20409     20408     20414
     20410     20408     20414     20412     20411     20413     20412     20411     20414
     20412     20411     20415     20413     20411     20414     20413     20411     20415
     20414     20411     20415     20408     20414     20411     20411     20415     20416
     20415     20416     20417     20415     20416     20418     20415     20416     20419
     20417     20416     20418     20417     20416     20419     20418     20416     20419
     20416     20419     20420     20416     20419     20421     20416     20419     20427
     20420     20419     20421     20420     20419     20427     20421     20419     20427
     20419     20421     20422     20421     20422     20423     20421     20422     20424
     20423     20422     20424     20422     20424     20425     20422     20424     20426
     20422     20424     20436     20425     20424     20426     20425     20424     20436
     20426     20424     20436     20419     20427     20428     20419     20427     20429
     20419     20427     20430     20428     20427     20429     20428     20427     20430
     20429     20427     20430     20427     20430     20431     20430     20431     20432
     20430     20431     20433     20432     20431     20433     20431     20433     20434
     20431     20433     20435     20431     20433     20483     20434     20433     20435
     20434     20433     20483     20435     20433     20483     20424     20436     20437
     20424     20436     20438     20424     20436     20439     20437     20436     20438
     20437     20436     20439     20438     20436     20439     20436     20439     20440
     20436     20439     20441     20436     20439     20442     20440     20439     20441
     20440     20439     20442     20441     20439     20442     20439     20442     20443
     20439     20442     20444     20439     20442     20445     20443     20442     20444
     20443     20442     20445     20444     20442     20445     20442     20445     20446
     20442     20445     20447     20442     20445     20448     20446     20445     20447
     20446     20445     20448     20447     20445     20448     20445     20448     20449
     20445     20448     20450     20445     20448     20451     20449     20448     20450
     20449     20448     20451     20450     20448     20451     20448     20451     20452
     20448     20451     20453     20448     20451     20454     20452     20451     20453
     20452     20451     20454     20453     20451     20454     20451     20454     20455
     20451     20454     20456     20455     20454     20456     20454     20456     20457
     20454     20456     20458     20457     20456     20458     20456     20458     20459
     20456     20458     20460     20456     20458     20461     20459     20458     20460
     20459     20458     20461     20460     20458     20461     20458     20461     20462
     20458     20461     20463     20458     20461     20464     20462     20461     20463
     20462     20461     20464     20463     20461     20464     20461     20464     20465
     20461     20464     20466     20461     20464     20467     20465     20464     20466
     20465     20464     20467     20466     20464     20467     20464     20467     20468
     20464     20467     20469     20464     20467     20470     20468     20467     20469
     20468     20467     20470     20469     20467     20470     20467     20470     20471
     20467     20470     20472     20467     20470     20473     20471     20470     20472
     20471     20470     20473     20472     20470     20473     20470     20473     20474
     20470     20473     20475     20470     20473     20476     20474     20473     20475
     20474     20473     20476     20475     20473     20476     20473     20476     20477
     20473     20476     20478     20473     20476     20479     20477     20476     20478
     20477     20476     20479     20478     20476     20479     20476     20479     20480
     20476     20479     20481     20476     20479     20482     20480     20479     20481
     20480     20479     20482     20481     20479     20482     20433     20483     20484
     20433     20483     20485     20433     20483     20486     20484     20483     20485
     20484     20483     20486     20485     20483     20486     20483     20486     20487
     20483     20486     20488     20483     20486     20489     20487     20486     20488
     20487     20486     20489     20488     20486     20489     20486     20489     20490
     20486     20489     20491     20486     20489     20492     20490     20489     20491
     20490     20489     20492     20491     20489     20492     20489     20492     20493
     20489     20492     20494     20489     20492     20495     20493     20492     20494
     20493     20492     20495     20494     20492     20495     20492     20495     20496
     20492     20495     20497     20492     20495     20498     20496     20495     20497
     20496     20495     20498     20497     20495     20498     20495     20498     20499
     20495     20498     20500     20495     20498     20501     20499     20498     20500
     20499     20498     20501     20500     20498     20501     20498     20501     20502
     20498     20501     20503     20498     20501     20504     20502     20501     20503
     20502     20501     20504     20503     20501     20504     20501     20504     20505
     20501     20504     20506     20501     20504     20507     20505     20504     20506
     20505     20504     20507     20506     20504     20507     20504     20507     20508
     20504     20507     20509     20504     20507     20510     20508     20507     20509
     20508     20507     20510     20509     20507     20510     20507     20510     20511
     20507     20510     20512     20507     20510     20513     20511     20510     20512
     20511     20510     20513     20512     20510     20513     20510     20513     20514
     20510     20513     20515     20510     20513     20516     20514     20513     20515
     20514     20513     20516     20515     20513     20516     20513     20516     20517
     20513     20516     20518     20513     20516     20519     20517     20516     20518
     20517     20516     20519     20518     20516     20519     20516     20519     20520
     20516     20519     20521     20516     20519     20522     20520     20519     20521
     20520     20519     20522     20521     20519     20522     20519     20522     20523
     20519     20522     20524     20519     20522     20525     20523     20522     20524
     20523     20522     20525     20524     20522     20525     20527     20526     20530
     20527     20526     20534     20527     20526     20538     20530     20526     20534
     20530     20526     20538     20534     20526     20538     20526     20527     20528
     20526     20527     20529     20526     20527     20542     20528     20527     20529
     20528     20527     20542     20529     20527     20542     20526     20530     20531
     20526     20530     20532     20526     20530     20533     20531     20530     20532
     20531     20530     20533     20532     20530     20533     20526     20534     20535
     20526     20534     20536     20526     20534     20537     20535     20534     20536
     20535     20534     20537     20536     20534     20537     20526     20538     20539
     20526     20538     20540     20526     20538     20541     20539     20538     20540
     20539     20538     20541     20540     20538     20541     20527     20542     20543
     20527     20542     20544     20527     20542     20548     20543     20542     20544
     20543     20542     20548     20544     20542     20548     20546     20545     20547
     20546     20545     20548     20546     20545     20549     20547     20545     20548
     20547     20545     20549     20548     20545     20549     20542     20548     20545
     20545     20549     20550     20549     20550     20551     20549     20550     20552
     20549     20550     20553     20551     20550     20552     20551     20550     20553
     20552     20550     20553     20550     20553     20554     20550     20553     20555
     20550     20553     20561     20554     20553     20555     20554     20553     20561
     20555     20553     20561     20553     20555     20556     20555     20556     20557
     20555     20556     20558     20557     20556     20558     20556     20558     20559
     20556     20558     20560     20556     20558     20570     20559     20558     20560
     20559     20558     20570     20560     20558     20570     20553     20561     20562
     20553     20561     20563     20553     20561     20564     20562     20561     20563
     20562     20561     20564     20563     20561     20564     20561     20564     20565
     20564     20565     20566     20564     20565     20567     20566     20565     20567
     20565     20567     20568     20565     20567     20569     20565     20567     20617
     20568     20567     20569     20568     20567     20617     20569     20567     20617
     20558     20570     20571     20558     20570     20572     20558     20570     20573
     20571     20570     20572     20571     20570     20573     20572     20570     20573
     20570     20573     20574     20570     20573     20575     20570     20573     20576
     20574     20573     20575     20574     20573     20576     20575     20573     20576
     20573     20576     20577     20573     20576     20578     20573     20576     20579
     20577     20576     20578     20577     20576     20579     20578     20576     20579
     20576     20579     20580     20576     20579     20581     20576     20579     20582
     20580     20579     20581     20580     20579     20582     20581     20579     20582
     20579     20582     20583     20579     20582     20584     20579     20582     20585
     20583     20582     20584     20583     20582     20585     20584     20582     20585
     20582     20585     20586     20582     20585     20587     20582     20585     20588
     20586     20585     20587     20586     20585     20588     20587     20585     20588
     20585     20588     20589     20585     20588     20590     20589     20588     20590
     20588     20590     20591     20588     20590     20592     20591     20590     20592
     20590     20592     20593     20590     20592     20594     20590     20592     20595
     20593     20592     20594     20593     20592     20595     20594     20592     20595
     20592     20595     20596     20592     20595     20597     20592     20595     20598
     20596     20595     20597     20596     20595     20598     20597     20595     20598
     20595     20598     20599     20595     20598     20600     20595     20598     20601
     20599     20598     20600     20599     20598     20601     20600     20598     20601
     20598     20601     20602     20598     20601     20603     20598     20601     20604
     20602     20601     20603     20602     20601     20604     20603     20601     20604
     20601     20604     20605     20601     20604     20606     20601     20604     20607
     20605     20604     20606     20605     20604     20607     20606     20604     20607
     20604     20607     20608     20604     20607     20609     20604     20607     20610
     20608     20607     20609     20608     20607     20610     20609     20607     20610
     20607     20610     20611     20607     20610     20612     20607     20610     20613
     20611     20610     20612     20611     20610     20613     20612     20610     20613
     20610     20613     20614     20610     20613     20615     20610     20613     20616
     20614     20613     20615     20614     20613     20616     20615     20613     20616
     20567     20617     20618     20567     20617     20619     20567     20617     20620
     20618     20617     20619     20618     20617     20620     20619     20617     20620
     20617     20620     20621     20617     20620     20622     20617     20620     20623
     20621     20620     20622     20621     20620     20623     20622     20620     20623
     20620     20623     20624     20620     20623     20625     20620     20623     20626
     20624     20623     20625     20624     20623     20626     20625     20623     20626
     20623     20626     20627     20623     20626     20628     20623     20626     20629
     20627     20626     20628     20627     20626     20629     20628     20626     20629
     20626     20629     20630     20626     20629     20631     20626     20629     20632
     20630     20629     20631     20630     20629     20632     20631     20629     20632
     20629     20632     20633     20629     20632     20634     20629     20632     20635
     20633     20632     20634     20633     20632     20635     20634     20632     20635
     20632     20635     20636     20632     20635     20637     20632     20635     20638
     20636     20635     20637     20636     20635     20638     20637     20635     20638
     20635     20638     20639     20635     20638     20640     20635     20638     20641
     20639     20638     20640     20639     20638     20641     20640     20638     20641
     20638     20641     20642     20638     20641     20643     20638     20641     20644
     20642     20641     20643     20642     20641     20644     20643     20641     20644
     20641     20644     20645     20641     20644     20646     20641     20644     20647
     20645     20644     20646     20645     20644     20647     20646     20644     20647
     20644     20647     20648     20644     20647     20649     20644     20647     20650
     20648     20647     20649     20648     20647     20650     20649     20647     20650
     20647     20650     20651     20647     20650     20652     20647     20650     20653
     20651     20650     20652     20651     20650     20653     20652     20650     20653
     20650     20653     20654     20650     20653     20655     20650     20653     20656
     20654     20653     20655     20654     20653     20656     20655     20653     20656
     20653     20656     20657     20653     20656     20658     20653     20656     20659
     20657     20656     20658     20657     20656     20659     20658     20656     20659
     20661     20660     20664     20661     20660     20668     20661     20660     20672
     20664     20660     20668     20664     20660     20672     20668     20660     20672
     20660     20661     20662     20660     20661     20663     20660     20661     20676
     20662     20661     20663     20662     20661     20676     20663     20661     20676
     20660     20664     20665     20660     20664     20666     20660     20664     20667
     20665     20664     20666     20665     20664     20667     20666     20664     20667
     20660     20668     20669     20660     20668     20670     20660     20668     20671
     20669     20668     20670     20669     20668     20671     20670     20668     20671
     20660     20672     20673     20660     20672     20674     20660     20672     20675
     20673     20672     20674     20673     20672     20675     20674     20672     20675
     20661     20676     20677     20661     20676     20678     20661     20676     20682
     20677     20676     20678     20677     20676     20682     20678     20676     20682
     20680     20679     20681     20680     20679     20682     20680     20679     20683
     20681     20679     20682     20681     20679     20683     20682     20679     20683
     20676     20682     20679     20679     20683     20684     20683     20684     20685
     20683     20684     20686     20683     20684     20687     20685     20684     20686
     20685     20684     20687     20686     20684     20687     20684     20687     20688
     20684     20687     20689     20684     20687     20695     20688     20687     20689
     20688     20687     20695     20689     20687     20695     20687     20689     20690
     20689     20690     20691     20689     20690     20692     20691     20690     20692
     20690     20692     20693     20690     20692     20694     20690     20692     20704
     20693     20692     20694     20693     20692     20704     20694     20692     20704
     20687     20695     20696     20687     20695     20697     20687     20695     20698
     20696     20695     20697     20696     20695     20698     20697     20695     20698
     20695     20698     20699     20698     20699     20700     20698     20699     20701
     20700     20699     20701     20699     20701     20702     20699     20701     20703
     20699     20701     20751     20702     20701     20703     20702     20701     20751
     20703     20701     20751     20692     20704     20705     20692     20704     20706
     20692     20704     20707     20705     20704     20706     20705     20704     20707
     20706     20704     20707     20704     20707     20708     20704     20707     20709
     20704     20707     20710     20708     20707     20709     20708     20707     20710
     20709     20707     20710     20707     20710     20711     20707     20710     20712
     20707     20710     20713     20711     20710     20712     20711     20710     20713
     20712     20710     20713     20710     20713     20714     20710     20713     20715
     20710     20713     20716     20714     20713     20715     20714     20713     20716
     20715     20713     20716     20713     20716     20717     20713     20716     20718
     20713     20716     20719     20717     20716     20718     20717     20716     20719
     20718     20716     20719     20716     20719     20720     20716     20719     20721
     20716     20719     20722     20720     20719     20721     20720     20719     20722
     20721     20719     20722     20719     20722     20723     20719     20722     20724
     20723     20722     20724     20722     20724     20725     20722     20724     20726
     20725     20724     20726     20724     20726     20727     20724     20726     20728
     20724     20726     20729     20727     20726     20728     20727     20726     20729
     20728     20726     20729     20726     20729     20730     20726     20729     20731
     20726     20729     20732     20730     20729     20731     20730     20729     20732
     20731     20729     20732     20729     20732     20733     20729     20732     20734
     20729     20732     20735     20733     20732     20734     20733     20732     20735
     20734     20732     20735     20732     20735     20736     20732     20735     20737
     20732     20735     20738     20736     20735     20737     20736     20735     20738
     20737     20735     20738     20735     20738     20739     20735     20738     20740
     20735     20738     20741     20739     20738     20740     20739     20738     20741
     20740     20738     20741     20738     20741     20742     20738     20741     20743
     20738     20741     20744     20742     20741     20743     20742     20741     20744
     20743     20741     20744     20741     20744     20745     20741     20744     20746
     20741     20744     20747     20745     20744     20746     20745     20744     20747
     20746     20744     20747     20744     20747     20748     20744     20747     20749
     20744     20747     20750     20748     20747     20749     20748     20747     20750
     20749     20747     20750     20701     20751     20752     20701     20751     20753
     20701     20751     20754     20752     20751     20753     20752     20751     20754
     20753     20751     20754     20751     20754     20755     20751     20754     20756
     20751     20754     20757     20755     20754     20756     20755     20754     20757
     20756     20754     20757     20754     20757     20758     20754     20757     20759
     20754     20757     20760     20758     20757     20759     20758     20757     20760
     20759     20757     20760     20757     20760     20761     20757     20760     20762
     20757     20760     20763     20761     20760     20762     20761     20760     20763
     20762     20760     20763     20760     20763     20764     20760     20763     20765
     20760     20763     20766     20764     20763     20765     20764     20763     20766
     20765     20763     20766     20763     20766     20767     20763     20766     20768
     20763     20766     20769     20767     20766     20768     20767     20766     20769
     20768     20766     20769     20766     20769     20770     20766     20769     20771
     20766     20769     20772     20770     20769     20771     20770     20769     20772
     20771     20769     20772     20769     20772     20773     20769     20772     20774
     20769     20772     20775     20773     20772     20774     20773     20772     20775
     20774     20772     20775     20772     20775     20776     20772     20775     20777
     20772     20775     20778     20776     20775     20777     20776     20775     20778
     20777     20775     20778     20775     20778     20779     20775     20778     20780
     20775     20778     20781     20779     20778     20780     20779     20778     20781
     20780     20778     20781     20778     20781     20782     20778     20781     20783
     20778     20781     20784     20782     20781     20783     20782     20781     20784
     20783     20781     20784     20781     20784     20785     20781     20784     20786
     20781     20784     20787     20785     20784     20786     20785     20784     20787
     20786     20784     20787     20784     20787     20788     20784     20787     20789
     20784     20787     20790     20788     20787     20789     20788     20787     20790
     20789     20787     20790     20787     20790     20791     20787     20790     20792
     20787     20790     20793     20791     20790     20792     20791     20790     20793
     20792     20790     20793     20795     20794     20798     20795     20794     20802
     20795     20794     20806     20798     20794     20802     20798     20794     20806
     20802     20794     20806     20794     20795     20796     20794     20795     20797
     20794     20795     20810     20796     20795     20797     20796     20795     20810
     20797     20795     20810     20794     20798     20799     20794     20798     20800
     20794     20798     20801     20799     20798     20800     20799     20798     20801
     20800     20798     20801     20794     20802     20803     20794     20802     20804
     20794     20802     20805     20803     20802     20804     20803     20802     20805
     20804     20802     20805     20794     20806     20807     20794     20806     20808
     20794     20806     20809     20807     20806     20808     20807     20806     20809
     20808     20806     20809     20795     20810     20811     20795     20810     20812
     20795     20810     20816     20811     20810     20812     20811     20810     20816
     20812     20810     20816     20814     20813     20815     20814     20813     20816
     20814     20813     20817     20815     20813     20816     20815     20813     20817
     20816     20813     20817     20810     20816     20813     20813     20817     20818
     20817     20818     20819     20817     20818     20820     20817     20818     20821
     20819     20818     20820     20819     20818     20821     20820     20818     20821
     20818     20821     20822     20818     20821     20823     20818     20821     20829
     20822     20821     20823     20822     20821     20829     20823     20821     20829
     20821     20823     20824     20823     20824     20825     20823     20824     20826
     20825     20824     20826     20824     20826     20827     20824     20826     20828
     20824     20826     20838     20827     20826     20828     20827     20826     20838
     20828     20826     20838     20821     20829     20830     20821     20829     20831
     20821     20829     20832     20830     20829     20831     20830     20829     20832
     20831     20829     20832     20829     20832     20833     20832     20833     20834
     20832     20833     20835     20834     20833     20835     20833     20835     20836
     20833     20835     20837     20833     20835     20885     20836     20835     20837
     20836     20835     20885     20837     20835     20885     20826     20838     20839
     20826     20838     20840     20826     20838     20841     20839     20838     20840
     20839     20838     20841     20840     20838     20841     20838     20841     20842
     20838     20841     20843     20838     20841     20844     20842     20841     20843
     20842     20841     20844     20843     20841     20844     20841     20844     20845
     20841     20844     20846     20841     20844     20847     20845     20844     20846
     20845     20844     20847     20846     20844     20847     20844     20847     20848
     20844     20847     20849     20844     20847     20850     20848     20847     20849
     20848     20847     20850     20849     20847     20850     20847     20850     20851
     20847     20850     20852     20847     20850     20853     20851     20850     20852
     20851     20850     20853     20852     20850     20853     20850     20853     20854
     20850     20853     20855     20850     20853     20856     20854     20853     20855
     20854     20853     20856     20855     20853     20856     20853     20856     20857
     20853     20856     20858     20857     20856     20858     20856     20858     20859
     20856     20858     20860     20859     20858     20860     20858     20860     20861
     20858     20860     20862     20858     20860     20863     20861     20860     20862
     20861     20860     20863     20862     20860     20863     20860     20863     20864
     20860     20863     20865     20860     20863     20866     20864     20863     20865
     20864     20863     20866     20865     20863     20866     20863     20866     20867
     20863     20866     20868     20863     20866     20869     20867     20866     20868
     20867     20866     20869     20868     20866     20869     20866     20869     20870
     20866     20869     20871     20866     20869     20872     20870     20869     20871
     20870     20869     20872     20871     20869     20872     20869     20872     20873
     20869     20872     20874     20869     20872     20875     20873     20872     20874
     20873     20872     20875     20874     20872     20875     20872     20875     20876
     20872     20875     20877     20872     20875     20878     20876     20875     20877
     20876     20875     20878     20877     20875     20878     20875     20878     20879
     20875     20878     20880     20875     20878     20881     20879     20878     20880
     20879     20878     20881     20880     20878     20881     20878     20881     20882
     20878     20881     20883     20878     20881     20884     20882     20881     20883
     20882     20881     20884     20883     20881     20884     20835     20885     20886
     20835     20885     20887     20835     20885     20888     20886     20885     20887
     20886     20885     20888     20887     20885     20888     20885     20888     20889
     20885     20888     20890     20885     20888     20891     20889     20888     20890
     20889     20888     20891     20890     20888     20891     20888     20891     20892
     20888     20891     20893     20888     20891     20894     20892     20891     20893
     20892     20891     20894     20893     20891     20894     20891     20894     20895
     20891     20894     20896     20891     20894     20897     20895     20894     20896
     20895     20894     20897     20896     20894     20897     20894     20897     20898
     20894     20897     20899     20894     20897     20900     20898     20897     20899
     20898     20897     20900     20899     20897     20900     20897     20900     20901
     20897     20900     20902     20897     20900     20903     20901     20900     20902
     20901     20900     20903     20902     20900     20903     20900     20903     20904
     20900     20903     20905     20900     20903     20906     20904     20903     20905
     20904     20903     20906     20905     20903     20906     20903     20906     20907
     20903     20906     20908     20903     20906     20909     20907     20906     20908
     20907     20906     20909     20908     20906     20909     20906     20909     20910
     20906     20909     20911     20906     20909     20912     20910     20909     20911
     20910     20909     20912     20911     20909     20912     20909     20912     20913
     20909     20912     20914     20909     20912     20915     20913     20912     20914
     20913     20912     20915     20914     20912     20915     20912     20915     20916
     20912     20915     20917     20912     20915     20918     20916     20915     20917
     20916     20915     20918     20917     20915     20918     20915     20918     20919
     20915     20918     20920     20915     20918     20921     20919     20918     20920
     20919     20918     20921     20920     20918     20921     20918     20921     20922
     20918     20921     20923     20918     20921     20924     20922     20921     20923
     20922     20921     20924     20923     20921     20924     20921     20924     20925
     20921     20924     20926     20921     20924     20927     20925     20924     20926
     20925     20924     20927     20926     20924     20927     20929     20928     20932
     20929     20928     20936     20929     20928     20940     20932     20928     20936
     20932     20928     20940     20936     20928     20940     20928     20929     20930
     20928     20929     20931     20928     20929     20944     20930     20929     20931
     20930     20929     20944     20931     20929     20944     20928     20932     20933
     20928     20932     20934     20928     20932     20935     20933     20932     20934
     20933     20932     20935     20934     20932     20935     20928     20936     20937
     20928     20936     20938     20928     20936     20939     20937     20936     20938
     20937     20936     20939     20938     20936     20939     20928     20940     20941
     20928     20940     20942     20928     20940     20943     20941     20940     20942
     20941     20940     20943     20942     20940     20943     20929     20944     20945
     20929     20944     20946     20929     20944     20950     20945     20944     20946
     20945     20944     20950     20946     20944     20950     20948     20947     20949
     20948     20947     20950     20948     20947     20951     20949     20947     20950
     20949     20947     20951     20950     20947     20951     20944     20950     20947
     20947     20951     20952     20951     20952     20953     20951     20952     20954
     20951     20952     20955     20953     20952     20954     20953     20952     20955
     20954     20952     20955     20952     20955     20956     20952     20955     20957
     20952     20955     20963     20956     20955     20957     20956     20955     20963
     20957     20955     20963     20955     20957     20958     20957     20958     20959
     20957     20958     20960     20959     20958     20960     20958     20960     20961
     20958     20960     20962     20958     20960     20972     20961     20960     20962
     20961     20960     20972     20962     20960     20972     20955     20963     20964
     20955     20963     20965     20955     20963     20966     20964     20963     20965
     20964     20963     20966     20965     20963     20966     20963     20966     20967
     20966     20967     20968     20966     20967     20969     20968     20967     20969
     20967     20969     20970     20967     20969     20971     20967     20969     21019
     20970     20969     20971     20970     20969     21019     20971     20969     21019
     20960     20972     20973     20960     20972     20974     20960     20972     20975
     20973     20972     20974     20973     20972     20975     20974     20972     20975
     20972     20975     20976     20972     20975     20977     20972     20975     20978
     20976     20975     20977     20976     20975     20978     20977     20975     20978
     20975     20978     20979     20975     20978     20980     20975     20978     20981
     20979     20978     20980     20979     20978     20981     20980     20978     20981
     20978     20981     20982     20978     20981     20983     20978     20981     20984
     20982     20981     20983     20982     20981     20984     20983     20981     20984
     20981     20984     20985     20981     20984     20986     20981     20984     20987
     20985     20984     20986     20985     20984     20987     20986     20984     20987
     20984     20987     20988     20984     20987     20989     20984     20987     20990
     20988     20987     20989     20988     20987     20990     20989     20987     20990
     20987     20990     20991     20987     20990     20992     20991     20990     20992
     20990     20992     20993     20990     20992     20994     20993     20992     20994
     20992     20994     20995     20992     20994     20996     20992     20994     20997
     20995     20994     20996     20995     20994     20997     20996     20994     20997
     20994     20997     20998     20994     20997     20999     20994     20997     21000
     20998     20997     20999     20998     20997     21000     20999     20997     21000
     20997     21000     21001     20997     21000     21002     20997     21000     21003
     21001     21000     21002     21001     21000     21003     21002     21000     21003
     21000     21003     21004     21000     21003     21005     21000     21003     21006
     21004     21003     21005     21004     21003     21006     21005     21003     21006
     21003     21006     21007     21003     21006     21008     21003     21006     21009
     21007     21006     21008     21007     21006     21009     21008     21006     21009
     21006     21009     21010     21006     21009     21011     21006     21009     21012
     21010     21009     21011     21010     21009     21012     21011     21009     21012
     21009     21012     21013     21009     21012     21014     21009     21012     21015
     21013     21012     21014     21013     21012     21015     21014     21012     21015
     21012     21015     21016     21012     21015     21017     21012     21015     21018
     21016     21015     21017     21016     21015     21018     21017     21015     21018
     20969     21019     21020     20969     21019     21021     20969     21019     21022
     21020     21019     21021     21020     21019     21022     21021     21019     21022
     21019     21022     21023     21019     21022     21024     21019     21022     21025
     21023     21022     21024     21023     21022     21025     21024     21022     21025
     21022     21025     21026     21022     21025     21027     21022     21025     21028
     21026     21025     21027     21026     21025     21028     21027     21025     21028
     21025     21028     21029     21025     21028     21030     21025     21028     21031
     21029     21028     21030     21029     21028     21031     21030     21028     21031
     21028     21031     21032     21028     21031     21033     21028     21031     21034
     21032     21031     21033     21032     21031     21034     21033     21031     21034
     21031     21034     21035     21031     21034     21036     21031     21034     21037
     21035     21034     21036     21035     21034     21037     21036     21034     21037
     21034     21037     21038     21034     21037     21039     21034     21037     21040
     21038     21037     21039     21038     21037     21040     21039     21037     21040
     21037     21040     21041     21037     21040     21042     21037     21040     21043
     21041     21040     21042     21041     21040     21043     21042     21040     21043
     21040     21043     21044     21040     21043     21045     21040     21043     21046
     21044     21043     21045     21044     21043     21046     21045     21043     21046
     21043     21046     21047     21043     21046     21048     21043     21046     21049
     21047     21046     21048     21047     21046     21049     21048     21046     21049
     21046     21049     21050     21046     21049     21051     21046     21049     21052
     21050     21049     21051     21050     21049     21052     21051     21049     21052
     21049     21052     21053     21049     21052     21054     21049     21052     21055
     21053     21052     21054     21053     21052     21055     21054     21052     21055
     21052     21055     21056     21052     21055     21057     21052     21055     21058
     21056     21055     21057     21056     21055     21058     21057     21055     21058
     21055     21058     21059     21055     21058     21060     21055     21058     21061
     21059     21058     21060     21059     21058     21061     21060     21058     21061
     21063     21062     21064     21063     21062     21065     21063     21062     21066
     21064     21062     21065     21064     21062     21066     21065     21062     21066
     21062     21066     21067     21062     21066     21068     21062     21066     21071
     21067     21066     21068     21067     21066     21071     21068     21066     21071
     21066     21068     21069     21066     21068     21070     21069     21068     21070
     21066     21071     21072     21066     21071     21073     21066     21071     21077
     21072     21071     21073     21072     21071     21077     21073     21071     21077
     21075     21074     21076     21075     21074     21077     21075     21074     21078
     21076     21074     21077     21076     21074     21078     21077     21074     21078
     21071     21077     21074     21074     21078     21079     21078     21079     21080
     21078     21079     21081     21078     21079     21082     21080     21079     21081
     21080     21079     21082     21081     21079     21082     21079     21082     21083
     21079     21082     21084     21079     21082     21090     21083     21082     21084
     21083     21082     21090     21084     21082     21090     21082     21084     21085
     21084     21085     21086     21084     21085     21087     21086     21085     21087
     21085     21087     21088     21085     21087     21089     21085     21087     21099
     21088     21087     21089     21088     21087     21099     21089     21087     21099
     21082     21090     21091     21082     21090     21092     21082     21090     21093
     21091     21090     21092     21091     21090     21093     21092     21090     21093
     21090     21093     21094     21093     21094     21095     21093     21094     21096
     21095     21094     21096     21094     21096     21097     21094     21096     21098
     21094     21096     21146     21097     21096     21098     21097     21096     21146
     21098     21096     21146     21087     21099     21100     21087     21099     21101
     21087     21099     21102     21100     21099     21101     21100     21099     21102
     21101     21099     21102     21099     21102     21103     21099     21102     21104
     21099     21102     21105     21103     21102     21104     21103     21102     21105
     21104     21102     21105     21102     21105     21106     21102     21105     21107
     21102     21105     21108     21106     21105     21107     21106     21105     21108
     21107     21105     21108     21105     21108     21109     21105     21108     21110
     21105     21108     21111     21109     21108     21110     21109     21108     21111
     21110     21108     21111     21108     21111     21112     21108     21111     21113
     21108     21111     21114     21112     21111     21113     21112     21111     21114
     21113     21111     21114     21111     21114     21115     21111     21114     21116
     21111     21114     21117     21115     21114     21116     21115     21114     21117
     21116     21114     21117     21114     21117     21118     21114     21117     21119
     21118     21117     21119     21117     21119     21120     21117     21119     21121
     21120     21119     21121     21119     21121     21122     21119     21121     21123
     21119     21121     21124     21122     21121     21123     21122     21121     21124
     21123     21121     21124     21121     21124     21125     21121     21124     21126
     21121     21124     21127     21125     21124     21126     21125     21124     21127
     21126     21124     21127     21124     21127     21128     21124     21127     21129
     21124     21127     21130     21128     21127     21129     21128     21127     21130
     21129     21127     21130     21127     21130     21131     21127     21130     21132
     21127     21130     21133     21131     21130     21132     21131     21130     21133
     21132     21130     21133     21130     21133     21134     21130     21133     21135
     21130     21133     21136     21134     21133     21135     21134     21133     21136
     21135     21133     21136     21133     21136     21137     21133     21136     21138
     21133     21136     21139     21137     21136     21138     21137     21136     21139
     21138     21136     21139     21136     21139     21140     21136     21139     21141
     21136     21139     21142     21140     21139     21141     21140     21139     21142
     21141     21139     21142     21139     21142     21143     21139     21142     21144
     21139     21142     21145     21143     21142     21144     21143     21142     21145
     21144     21142     21145     21096     21146     21147     21096     21146     21148
     21096     21146     21149     21147     21146     21148     21147     21146     21149
     21148     21146     21149     21146     21149     21150     21146     21149     21151
     21146     21149     21152     21150     21149     21151     21150     21149     21152
     21151     21149     21152     21149     21152     21153     21149     21152     21154
     21149     21152     21155     21153     21152     21154     21153     21152     21155
     21154     21152     21155     21152     21155     21156     21152     21155     21157
     21152     21155     21158     21156     21155     21157     21156     21155     21158
     21157     21155     21158     21155     21158     21159     21155     21158     21160
     21155     21158     21161     21159     21158     21160     21159     21158     21161
     21160     21158     21161     21158     21161     21162     21158     21161     21163
     21158     21161     21164     21162     21161     21163     21162     21161     21164
     21163     21161     21164     21161     21164     21165     21161     21164     21166
     21161     21164     21167     21165     21164     21166     21165     21164     21167
     21166     21164     21167     21164     21167     21168     21164     21167     21169
     21164     21167     21170     21168     21167     21169     21168     21167     21170
     21169     21167     21170     21167     21170     21171     21167     21170     21172
     21167     21170     21173     21171     21170     21172     21171     21170     21173
     21172     21170     21173     21170     21173     21174     21170     21173     21175
     21170     21173     21176     21174     21173     21175     21174     21173     21176
     21175     21173     21176     21173     21176     21177     21173     21176     21178
     21173     21176     21179     21177     21176     21178     21177     21176     21179
     21178     21176     21179     21176     21179     21180     21176     21179     21181
     21176     21179     21182     21180     21179     21181     21180     21179     21182
     21181     21179     21182     21179     21182     21183     21179     21182     21184
     21179     21182     21185     21183     21182     21184     21183     21182     21185
     21184     21182     21185     21182     21185     21186     21182     21185     21187
     21182     21185     21188     21186     21185     21187     21186     21185     21188
     21187     21185     21188     21190     21189     21193     21190     21189     21197
     21190     21189     21201     21193     21189     21197     21193     21189     21201
     21197     21189     21201     21189     21190     21191     21189     21190     21192
     21189     21190     21205     21191     21190     21192     21191     21190     21205
     21192     21190     21205     21189     21193     21194     21189     21193     21195
     21189     21193     21196     21194     21193     21195     21194     21193     21196
     21195     21193     21196     21189     21197     21198     21189     21197     21199
     21189     21197     21200     21198     21197     21199     21198     21197     21200
     21199     21197     21200     21189     21201     21202     21189     21201     21203
     21189     21201     21204     21202     21201     21203     21202     21201     21204
     21203     21201     21204     21190     21205     21206     21190     21205     21207
     21190     21205     21211     21206     21205     21207     21206     21205     21211
     21207     21205     21211     21209     21208     21210     21209     21208     21211
     21209     21208     21212     21210     21208     21211     21210     21208     21212
     21211     21208     21212     21205     21211     21208     21208     21212     21213
     21212     21213     21214     21212     21213     21215     21212     21213     21216
     21214     21213     21215     21214     21213     21216     21215     21213     21216
     21213     21216     21217     21213     21216     21218     21213     21216     21224
     21217     21216     21218     21217     21216     21224     21218     21216     21224
     21216     21218     21219     21218     21219     21220     21218     21219     21221
     21220     21219     21221     21219     21221     21222     21219     21221     21223
     21219     21221     21233     21222     21221     21223     21222     21221     21233
     21223     21221     21233     21216     21224     21225     21216     21224     21226
     21216     21224     21227     21225     21224     21226     21225     21224     21227
     21226     21224     21227     21224     21227     21228     21227     21228     21229
     21227     21228     21230     21229     21228     21230     21228     21230     21231
     21228     21230     21232     21228     21230     21280     21231     21230     21232
     21231     21230     21280     21232     21230     21280     21221     21233     21234
     21221     21233     21235     21221     21233     21236     21234     21233     21235
     21234     21233     21236     21235     21233     21236     21233     21236     21237
     21233     21236     21238     21233     21236     21239     21237     21236     21238
     21237     21236     21239     21238     21236     21239     21236     21239     21240
     21236     21239     21241     21236     21239     21242     21240     21239     21241
     21240     21239     21242     21241     21239     21242     21239     21242     21243
     21239     21242     21244     21239     21242     21245     21243     21242     21244
     21243     21242     21245     21244     21242     21245     21242     21245     21246
     21242     21245     21247     21242     21245     21248     21246     21245     21247
     21246     21245     21248     21247     21245     21248     21245     21248     21249
     21245     21248     21250     21245     21248     21251     21249     21248     21250
     21249     21248     21251     21250     21248     21251     21248     21251     21252
     21248     21251     21253     21252     21251     21253     21251     21253     21254
     21251     21253     21255     21254     21253     21255     21253     21255     21256
     21253     21255     21257     21253     21255     21258     21256     21255     21257
     21256     21255     21258     21257     21255     21258     21255     21258     21259
     21255     21258     21260     21255     21258     21261     21259     21258     21260
     21259     21258     21261     21260     21258     21261     21258     21261     21262
     21258     21261     21263     21258     21261     21264     21262     21261     21263
     21262     21261     21264     21263     21261     21264     21261     21264     21265
     21261     21264     21266     21261     21264     21267     21265     21264     21266
     21265     21264     21267     21266     21264     21267     21264     21267     21268
     21264     21267     21269     21264     21267     21270     21268     21267     21269
     21268     21267     21270     21269     21267     21270     21267     21270     21271
     21267     21270     21272     21267     21270     21273     21271     21270     21272
     21271     21270     21273     21272     21270     21273     21270     21273     21274
     21270     21273     21275     21270     21273     21276     21274     21273     21275
     21274     21273     21276     21275     21273     21276     21273     21276     21277
     21273     21276     21278     21273     21276     21279     21277     21276     21278
     21277     21276     21279     21278     21276     21279     21230     21280     21281
     21230     21280     21282     21230     21280     21283     21281     21280     21282
     21281     21280     21283     21282     21280     21283     21280     21283     21284
     21280     21283     21285     21280     21283     21286     21284     21283     21285
     21284     21283     21286     21285     21283     21286     21283     21286     21287
     21283     21286     21288     21283     21286     21289     21287     21286     21288
     21287     21286     21289     21288     21286     21289     21286     21289     21290
     21286     21289     21291     21286     21289     21292     21290     21289     21291
     21290     21289     21292     21291     21289     21292     21289     21292     21293
     21289     21292     21294     21289     21292     21295     21293     21292     21294
     21293     21292     21295     21294     21292     21295     21292     21295     21296
     21292     21295     21297     21292     21295     21298     21296     21295     21297
     21296     21295     21298     21297     21295     21298     21295     21298     21299
     21295     21298     21300     21295     21298     21301     21299     21298     21300
     21299     21298     21301     21300     21298     21301     21298     21301     21302
     21298     21301     21303     21298     21301     21304     21302     21301     21303
     21302     21301     21304     21303     21301     21304     21301     21304     21305
     21301     21304     21306     21301     21304     21307     21305     21304     21306
     21305     21304     21307     21306     21304     21307     21304     21307     21308
     21304     21307     21309     21304     21307     21310     21308     21307     21309
     21308     21307     21310     21309     21307     21310     21307     21310     21311
     21307     21310     21312     21307     21310     21313     21311     21310     21312
     21311     21310     21313     21312     21310     21313     21310     21313     21314
     21310     21313     21315     21310     21313     21316     21314     21313     21315
     21314     21313     21316     21315     21313     21316     21313     21316     21317
     21313     21316     21318     21313     21316     21319     21317     21316     21318
     21317     21316     21319     21318     21316     21319     21316     21319     21320
     21316     21319     21321     21316     21319     21322     21320     21319     21321
     21320     21319     21322     21321     21319     21322     21324     21323     21327
     21324     21323     21331     21324     21323     21335     21327     21323     21331
     21327     21323     21335     21331     21323     21335     21323     21324     21325
     21323     21324     21326     21323     21324     21339     21325     21324     21326
     21325     21324     21339     21326     21324     21339     21323     21327     21328
     21323     21327     21329     21323     21327     21330     21328     21327     21329
     21328     21327     21330     21329     21327     21330     21323     21331     21332
     21323     21331     21333     21323     21331     21334     21332     21331     21333
     21332     21331     21334     21333     21331     21334     21323     21335     21336
     21323     21335     21337     21323     21335     21338     21336     21335     21337
     21336     21335     21338     21337     21335     21338     21324     21339     21340
     21324     21339     21341     21324     21339     21345     21340     21339     21341
     21340     21339     21345     21341     21339     21345     21343     21342     21344
     21343     21342     21345     21343     21342     21346     21344     21342     21345
     21344     21342     21346     21345     21342     21346     21339     21345     21342
     21342     21346     21347     21346     21347     21348     21346     21347     21349
     21346     21347     21350     21348     21347     21349     21348     21347     21350
     21349     21347     21350     21347     21350     21351     21347     21350     21352
     21347     21350     21358     21351     21350     21352     21351     21350     21358
     21352     21350     21358     21350     21352     21353     21352     21353     21354
     21352     21353     21355     21354     21353     21355     21353     21355     21356
     21353     21355     21357     21353     21355     21367     21356     21355     21357
     21356     21355     21367     21357     21355     21367     21350     21358     21359
     21350     21358     21360     21350     21358     21361     21359     21358     21360
     21359     21358     21361     21360     21358     21361     21358     21361     21362
     21361     21362     21363     21361     21362     21364     21363     21362     21364
     21362     21364     21365     21362     21364     21366     21362     21364     21414
     21365     21364     21366     21365     21364     21414     21366     21364     21414
     21355     21367     21368     21355     21367     21369     21355     21367     21370
     21368     21367     21369     21368     21367     21370     21369     21367     21370
     21367     21370     21371     21367     21370     21372     21367     21370     21373
     21371     21370     21372     21371     21370     21373     21372     21370     21373
     21370     21373     21374     21370     21373     21375     21370     21373     21376
     21374     21373     21375     21374     21373     21376     21375     21373     21376
     21373     21376     21377     21373     21376     21378     21373     21376     21379
     21377     21376     21378     21377     21376     21379     21378     21376     21379
     21376     21379     21380     21376     21379     21381     21376     21379     21382
     21380     21379     21381     21380     21379     21382     21381     21379     21382
     21379     21382     21383     21379     21382     21384     21379     21382     21385
     21383     21382     21384     21383     21382     21385     21384     21382     21385
     21382     21385     21386     21382     21385     21387     21386     21385     21387
     21385     21387     21388     21385     21387     21389     21388     21387     21389
     21387     21389     21390     21387     21389     21391     21387     21389     21392
     21390     21389     21391     21390     21389     21392     21391     21389     21392
     21389     21392     21393     21389     21392     21394     21389     21392     21395
     21393     21392     21394     21393     21392     21395     21394     21392     21395
     21392     21395     21396     21392     21395     21397     21392     21395     21398
     21396     21395     21397     21396     21395     21398     21397     21395     21398
     21395     21398     21399     21395     21398     21400     21395     21398     21401
     21399     21398     21400     21399     21398     21401     21400     21398     21401
     21398     21401     21402     21398     21401     21403     21398     21401     21404
     21402     21401     21403     21402     21401     21404     21403     21401     21404
     21401     21404     21405     21401     21404     21406     21401     21404     21407
     21405     21404     21406     21405     21404     21407     21406     21404     21407
     21404     21407     21408     21404     21407     21409     21404     21407     21410
     21408     21407     21409     21408     21407     21410     21409     21407     21410
     21407     21410     21411     21407     21410     21412     21407     21410     21413
     21411     21410     21412     21411     21410     21413     21412     21410     21413
     21364     21414     21415     21364     21414     21416     21364     21414     21417
     21415     21414     21416     21415     21414     21417     21416     21414     21417
     21414     21417     21418     21414     21417     21419     21414     21417     21420
     21418     21417     21419     21418     21417     21420     21419     21417     21420
     21417     21420     21421     21417     21420     21422     21417     21420     21423
     21421     21420     21422     21421     21420     21423     21422     21420     21423
     21420     21423     21424     21420     21423     21425     21420     21423     21426
     21424     21423     21425     21424     21423     21426     21425     21423     21426
     21423     21426     21427     21423     21426     21428     21423     21426     21429
     21427     21426     21428     21427     21426     21429     21428     21426     21429
     21426     21429     21430     21426     21429     21431     21426     21429     21432
     21430     21429     21431     21430     21429     21432     21431     21429     21432
     21429     21432     21433     21429     21432     21434     21429     21432     21435
     21433     21432     21434     21433     21432     21435     21434     21432     21435
     21432     21435     21436     21432     21435     21437     21432     21435     21438
     21436     21435     21437     21436     21435     21438     21437     21435     21438
     21435     21438     21439     21435     21438     21440     21435     21438     21441
     21439     21438     21440     21439     21438     21441     21440     21438     21441
     21438     21441     21442     21438     21441     21443     21438     21441     21444
     21442     21441     21443     21442     21441     21444     21443     21441     21444
     21441     21444     21445     21441     21444     21446     21441     21444     21447
     21445     21444     21446     21445     21444     21447     21446     21444     21447
     21444     21447     21448     21444     21447     21449     21444     21447     21450
     21448     21447     21449     21448     21447     21450     21449     21447     21450
     21447     21450     21451     21447     21450     21452     21447     21450     21453
     21451     21450     21452     21451     21450     21453     21452     21450     21453
     21450     21453     21454     21450     21453     21455     21450     21453     21456
     21454     21453     21455     21454     21453     21456     21455     21453     21456
     21458     21457     21461     21458     21457     21465     21458     21457     21469
     21461     21457     21465     21461     21457     21469     21465     21457     21469
     21457     21458     21459     21457     21458     21460     21457     21458     21473
     21459     21458     21460     21459     21458     21473     21460     21458     21473
     21457     21461     21462     21457     21461     21463     21457     21461     21464
     21462     21461     21463     21462     21461     21464     21463     21461     21464
     21457     21465     21466     21457     21465     21467     21457     21465     21468
     21466     21465     21467     21466     21465     21468     21467     21465     21468
     21457     21469     21470     21457     21469     21471     21457     21469     21472
     21470     21469     21471     21470     21469     21472     21471     21469     21472
     21458     21473     21474     21458     21473     21475     21458     21473     21479
     21474     21473     21475     21474     21473     21479     21475     21473     21479
     21477     21476     21478     21477     21476     21479     21477     21476     21480
     21478     21476     21479     21478     21476     21480     21479     21476     21480
     21473     21479     21476     21476     21480     21481     21480     21481     21482
     21480     21481     21483     21480     21481     21484     21482     21481     21483
     21482     21481     21484     21483     21481     21484     21481     21484     21485
     21481     21484     21486     21481     21484     21492     21485     21484     21486
     21485     21484     21492     21486     21484     21492     21484     21486     21487
     21486     21487     21488     21486     21487     21489     21488     21487     21489
     21487     21489     21490     21487     21489     21491     21487     21489     21501
     21490     21489     21491     21490     21489     21501     21491     21489     21501
     21484     21492     21493     21484     21492     21494     21484     21492     21495
     21493     21492     21494     21493     21492     21495     21494     21492     21495
     21492     21495     21496     21495     21496     21497     21495     21496     21498
     21497     21496     21498     21496     21498     21499     21496     21498     21500
     21496     21498     21548     21499     21498     21500     21499     21498     21548
     21500     21498     21548     21489     21501     21502     21489     21501     21503
     21489     21501     21504     21502     21501     21503     21502     21501     21504
     21503     21501     21504     21501     21504     21505     21501     21504     21506
     21501     21504     21507     21505     21504     21506     21505     21504     21507
     21506     21504     21507     21504     21507     21508     21504     21507     21509
     21504     21507     21510     21508     21507     21509     21508     21507     21510
     21509     21507     21510     21507     21510     21511     21507     21510     21512
     21507     21510     21513     21511     21510     21512     21511     21510     21513
     21512     21510     21513     21510     21513     21514     21510     21513     21515
     21510     21513     21516     21514     21513     21515     21514     21513     21516
     21515     21513     21516     21513     21516     21517     21513     21516     21518
     21513     21516     21519     21517     21516     21518     21517     21516     21519
     21518     21516     21519     21516     21519     21520     21516     21519     21521
     21520     21519     21521     21519     21521     21522     21519     21521     21523
     21522     21521     21523     21521     21523     21524     21521     21523     21525
     21521     21523     21526     21524     21523     21525     21524     21523     21526
     21525     21523     21526     21523     21526     21527     21523     21526     21528
     21523     21526     21529     21527     21526     21528     21527     21526     21529
     21528     21526     21529     21526     21529     21530     21526     21529     21531
     21526     21529     21532     21530     21529     21531     21530     21529     21532
     21531     21529     21532     21529     21532     21533     21529     21532     21534
     21529     21532     21535     21533     21532     21534     21533     21532     21535
     21534     21532     21535     21532     21535     21536     21532     21535     21537
     21532     21535     21538     21536     21535     21537     21536     21535     21538
     21537     21535     21538     21535     21538     21539     21535     21538     21540
     21535     21538     21541     21539     21538     21540     21539     21538     21541
     21540     21538     21541     21538     21541     21542     21538     21541     21543
     21538     21541     21544     21542     21541     21543     21542     21541     21544
     21543     21541     21544     21541     21544     21545     21541     21544     21546
     21541     21544     21547     21545     21544     21546     21545     21544     21547
     21546     21544     21547     21498     21548     21549     21498     21548     21550
     21498     21548     21551     21549     21548     21550     21549     21548     21551
     21550     21548     21551     21548     21551     21552     21548     21551     21553
     21548     21551     21554     21552     21551     21553     21552     21551     21554
     21553     21551     21554     21551     21554     21555     21551     21554     21556
     21551     21554     21557     21555     21554     21556     21555     21554     21557
     21556     21554     21557     21554     21557     21558     21554     21557     21559
     21554     21557     21560     21558     21557     21559     21558     21557     21560
     21559     21557     21560     21557     21560     21561     21557     21560     21562
     21557     21560     21563     21561     21560     21562     21561     21560     21563
     21562     21560     21563     21560     21563     21564     21560     21563     21565
     21560     21563     21566     21564     21563     21565     21564     21563     21566
     21565     21563     21566     21563     21566     21567     21563     21566     21568
     21563     21566     21569     21567     21566     21568     21567     21566     21569
     21568     21566     21569     21566     21569     21570     21566     21569     21571
     21566     21569     21572     21570     21569     21571     21570     21569     21572
     21571     21569     21572     21569     21572     21573     21569     21572     21574
     21569     21572     21575     21573     21572     21574     21573     21572     21575
     21574     21572     21575     21572     21575     21576     21572     21575     21577
     21572     21575     21578     21576     21575     21577     21576     21575     21578
     21577     21575     21578     21575     21578     21579     21575     21578     21580
     21575     21578     21581     21579     21578     21580     21579     21578     21581
     21580     21578     21581     21578     21581     21582     21578     21581     21583
     21578     21581     21584     21582     21581     21583     21582     21581     21584
     21583     21581     21584     21581     21584     21585     21581     21584     21586
     21581     21584     21587     21585     21584     21586     21585     21584     21587
     21586     21584     21587     21584     21587     21588     21584     21587     21589
     21584     21587     21590     21588     21587     21589     21588     21587     21590
     21589     21587     21590     21592     21591     21595     21592     21591     21599
     21592     21591     21603     21595     21591     21599     21595     21591     21603
     21599     21591     21603     21591     21592     21593     21591     21592     21594
     21591     21592     21607     21593     21592     21594     21593     21592     21607
     21594     21592     21607     21591     21595     21596     21591     21595     21597
     21591     21595     21598     21596     21595     21597     21596     21595     21598
     21597     21595     21598     21591     21599     21600     21591     21599     21601
     21591     21599     21602     21600     21599     21601     21600     21599     21602
     21601     21599     21602     21591     21603     21604     21591     21603     21605
     21591     21603     21606     21604     21603     21605     21604     21603     21606
     21605     21603     21606     21592     21607     21608     21592     21607     21609
     21592     21607     21613     21608     21607     21609     21608     21607     21613
     21609     21607     21613     21611     21610     21612     21611     21610     21613
     21611     21610     21614     21612     21610     21613     21612     21610     21614
     21613     21610     21614     21607     21613     21610     21610     21614     21615
     21614     21615     21616     21614     21615     21617     21614     21615     21618
     21616     21615     21617     21616     21615     21618     21617     21615     21618
     21615     21618     21619     21615     21618     21620     21615     21618     21626
     21619     21618     21620     21619     21618     21626     21620     21618     21626
     21618     21620     21621     21620     21621     21622     21620     21621     21623
     21622     21621     21623     21621     21623     21624     21621     21623     21625
     21621     21623     21635     21624     21623     21625     21624     21623     21635
     21625     21623     21635     21618     21626     21627     21618     21626     21628
     21618     21626     21629     21627     21626     21628     21627     21626     21629
     21628     21626     21629     21626     21629     21630     21629     21630     21631
     21629     21630     21632     21631     21630     21632     21630     21632     21633
     21630     21632     21634     21630     21632     21682     21633     21632     21634
     21633     21632     21682     21634     21632     21682     21623     21635     21636
     21623     21635     21637     21623     21635     21638     21636     21635     21637
     21636     21635     21638     21637     21635     21638     21635     21638     21639
     21635     21638     21640     21635     21638     21641     21639     21638     21640
     21639     21638     21641     21640     21638     21641     21638     21641     21642
     21638     21641     21643     21638     21641     21644     21642     21641     21643
     21642     21641     21644     21643     21641     21644     21641     21644     21645
     21641     21644     21646     21641     21644     21647     21645     21644     21646
     21645     21644     21647     21646     21644     21647     21644     21647     21648
     21644     21647     21649     21644     21647     21650     21648     21647     21649
     21648     21647     21650     21649     21647     21650     21647     21650     21651
     21647     21650     21652     21647     21650     21653     21651     21650     21652
     21651     21650     21653     21652     21650     21653     21650     21653     21654
     21650     21653     21655     21654     21653     21655     21653     21655     21656
     21653     21655     21657     21656     21655     21657     21655     21657     21658
     21655     21657     21659     21655     21657     21660     21658     21657     21659
     21658     21657     21660     21659     21657     21660     21657     21660     21661
     21657     21660     21662     21657     21660     21663     21661     21660     21662
     21661     21660     21663     21662     21660     21663     21660     21663     21664
     21660     21663     21665     21660     21663     21666     21664     21663     21665
     21664     21663     21666     21665     21663     21666     21663     21666     21667
     21663     21666     21668     21663     21666     21669     21667     21666     21668
     21667     21666     21669     21668     21666     21669     21666     21669     21670
     21666     21669     21671     21666     21669     21672     21670     21669     21671
     21670     21669     21672     21671     21669     21672     21669     21672     21673
     21669     21672     21674     21669     21672     21675     21673     21672     21674
     21673     21672     21675     21674     21672     21675     21672     21675     21676
     21672     21675     21677     21672     21675     21678     21676     21675     21677
     21676     21675     21678     21677     21675     21678     21675     21678     21679
     21675     21678     21680     21675     21678     21681     21679     21678     21680
     21679     21678     21681     21680     21678     21681     21632     21682     21683
     21632     21682     21684     21632     21682     21685     21683     21682     21684
     21683     21682     21685     21684     21682     21685     21682     21685     21686
     21682     21685     21687     21682     21685     21688     21686     21685     21687
     21686     21685     21688     21687     21685     21688     21685     21688     21689
     21685     21688     21690     21685     21688     21691     21689     21688     21690
     21689     21688     21691     21690     21688     21691     21688     21691     21692
     21688     21691     21693     21688     21691     21694     21692     21691     21693
     21692     21691     21694     21693     21691     21694     21691     21694     21695
     21691     21694     21696     21691     21694     21697     21695     21694     21696
     21695     21694     21697     21696     21694     21697     21694     21697     21698
     21694     21697     21699     21694     21697     21700     21698     21697     21699
     21698     21697     21700     21699     21697     21700     21697     21700     21701
     21697     21700     21702     21697     21700     21703     21701     21700     21702
     21701     21700     21703     21702     21700     21703     21700     21703     21704
     21700     21703     21705     21700     21703     21706     21704     21703     21705
     21704     21703     21706     21705     21703     21706     21703     21706     21707
     21703     21706     21708     21703     21706     21709     21707     21706     21708
     21707     21706     21709     21708     21706     21709     21706     21709     21710
     21706     21709     21711     21706     21709     21712     21710     21709     21711
     21710     21709     21712     21711     21709     21712     21709     21712     21713
     21709     21712     21714     21709     21712     21715     21713     21712     21714
     21713     21712     21715     21714     21712     21715     21712     21715     21716
     21712     21715     21717     21712     21715     21718     21716     21715     21717
     21716     21715     21718     21717     21715     21718     21715     21718     21719
     21715     21718     21720     21715     21718     21721     21719     21718     21720
     21719     21718     21721     21720     21718     21721     21718     21721     21722
     21718     21721     21723     21718     21721     21724     21722     21721     21723
     21722     21721     21724     21723     21721     21724     21726     21725     21729
     21726     21725     21733     21726     21725     21737     21729     21725     21733
     21729     21725     21737     21733     21725     21737     21725     21726     21727
     21725     21726     21728     21725     21726     21741     21727     21726     21728
     21727     21726     21741     21728     21726     21741     21725     21729     21730
     21725     21729     21731     21725     21729     21732     21730     21729     21731
     21730     21729     21732     21731     21729     21732     21725     21733     21734
     21725     21733     21735     21725     21733     21736     21734     21733     21735
     21734     21733     21736     21735     21733     21736     21725     21737     21738
     21725     21737     21739     21725     21737     21740     21738     21737     21739
     21738     21737     21740     21739     21737     21740     21726     21741     21742
     21726     21741     21743     21726     21741     21747     21742     21741     21743
     21742     21741     21747     21743     21741     21747     21745     21744     21746
     21745     21744     21747     21745     21744     21748     21746     21744     21747
     21746     21744     21748     21747     21744     21748     21741     21747     21744
     21744     21748     21749     21748     21749     21750     21748     21749     21751
     21748     21749     21752     21750     21749     21751     21750     21749     21752
     21751     21749     21752     21749     21752     21753     21749     21752     21754
     21749     21752     21760     21753     21752     21754     21753     21752     21760
     21754     21752     21760     21752     21754     21755     21754     21755     21756
     21754     21755     21757     21756     21755     21757     21755     21757     21758
     21755     21757     21759     21755     21757     21769     21758     21757     21759
     21758     21757     21769     21759     21757     21769     21752     21760     21761
     21752     21760     21762     21752     21760     21763     21761     21760     21762
     21761     21760     21763     21762     21760     21763     21760     21763     21764
     21763     21764     21765     21763     21764     21766     21765     21764     21766
     21764     21766     21767     21764     21766     21768     21764     21766     21816
     21767     21766     21768     21767     21766     21816     21768     21766     21816
     21757     21769     21770     21757     21769     21771     21757     21769     21772
     21770     21769     21771     21770     21769     21772     21771     21769     21772
     21769     21772     21773     21769     21772     21774     21769     21772     21775
     21773     21772     21774     21773     21772     21775     21774     21772     21775
     21772     21775     21776     21772     21775     21777     21772     21775     21778
     21776     21775     21777     21776     21775     21778     21777     21775     21778
     21775     21778     21779     21775     21778     21780     21775     21778     21781
     21779     21778     21780     21779     21778     21781     21780     21778     21781
     21778     21781     21782     21778     21781     21783     21778     21781     21784
     21782     21781     21783     21782     21781     21784     21783     21781     21784
     21781     21784     21785     21781     21784     21786     21781     21784     21787
     21785     21784     21786     21785     21784     21787     21786     21784     21787
     21784     21787     21788     21784     21787     21789     21788     21787     21789
     21787     21789     21790     21787     21789     21791     21790     21789     21791
     21789     21791     21792     21789     21791     21793     21789     21791     21794
     21792     21791     21793     21792     21791     21794     21793     21791     21794
     21791     21794     21795     21791     21794     21796     21791     21794     21797
     21795     21794     21796     21795     21794     21797     21796     21794     21797
     21794     21797     21798     21794     21797     21799     21794     21797     21800
     21798     21797     21799     21798     21797     21800     21799     21797     21800
     21797     21800     21801     21797     21800     21802     21797     21800     21803
     21801     21800     21802     21801     21800     21803     21802     21800     21803
     21800     21803     21804     21800     21803     21805     21800     21803     21806
     21804     21803     21805     21804     21803     21806     21805     21803     21806
     21803     21806     21807     21803     21806     21808     21803     21806     21809
     21807     21806     21808     21807     21806     21809     21808     21806     21809
     21806     21809     21810     21806     21809     21811     21806     21809     21812
     21810     21809     21811     21810     21809     21812     21811     21809     21812
     21809     21812     21813     21809     21812     21814     21809     21812     21815
     21813     21812     21814     21813     21812     21815     21814     21812     21815
     21766     21816     21817     21766     21816     21818     21766     21816     21819
     21817     21816     21818     21817     21816     21819     21818     21816     21819
     21816     21819     21820     21816     21819     21821     21816     21819     21822
     21820     21819     21821     21820     21819     21822     21821     21819     21822
     21819     21822     21823     21819     21822     21824     21819     21822     21825
     21823     21822     21824     21823     21822     21825     21824     21822     21825
     21822     21825     21826     21822     21825     21827     21822     21825     21828
     21826     21825     21827     21826     21825     21828     21827     21825     21828
     21825     21828     21829     21825     21828     21830     21825     21828     21831
     21829     21828     21830     21829     21828     21831     21830     21828     21831
     21828     21831     21832     21828     21831     21833     21828     21831     21834
     21832     21831     21833     21832     21831     21834     21833     21831     21834
     21831     21834     21835     21831     21834     21836     21831     21834     21837
     21835     21834     21836     21835     21834     21837     21836     21834     21837
     21834     21837     21838     21834     21837     21839     21834     21837     21840
     21838     21837     21839     21838     21837     21840     21839     21837     21840
     21837     21840     21841     21837     21840     21842     21837     21840     21843
     21841     21840     21842     21841     21840     21843     21842     21840     21843
     21840     21843     21844     21840     21843     21845     21840     21843     21846
     21844     21843     21845     21844     21843     21846     21845     21843     21846
     21843     21846     21847     21843     21846     21848     21843     21846     21849
     21847     21846     21848     21847     21846     21849     21848     21846     21849
     21846     21849     21850     21846     21849     21851     21846     21849     21852
     21850     21849     21851     21850     21849     21852     21851     21849     21852
     21849     21852     21853     21849     21852     21854     21849     21852     21855
     21853     21852     21854     21853     21852     21855     21854     21852     21855
     21852     21855     21856     21852     21855     21857     21852     21855     21858
     21856     21855     21857     21856     21855     21858     21857     21855     21858
     21860     21859     21863     21860     21859     21867     21860     21859     21871
     21863     21859     21867     21863     21859     21871     21867     21859     21871
     21859     21860     21861     21859     21860     21862     21859     21860     21875
     21861     21860     21862     21861     21860     21875     21862     21860     21875
     21859     21863     21864     21859     21863     21865     21859     21863     21866
     21864     21863     21865     21864     21863     21866     21865     21863     21866
     21859     21867     21868     21859     21867     21869     21859     21867     21870
     21868     21867     21869     21868     21867     21870     21869     21867     21870
     21859     21871     21872     21859     21871     21873     21859     21871     21874
     21872     21871     21873     21872     21871     21874     21873     21871     21874
     21860     21875     21876     21860     21875     21877     21860     21875     21881
     21876     21875     21877     21876     21875     21881     21877     21875     21881
     21879     21878     21880     21879     21878     21881     21879     21878     21882
     21880     21878     21881     21880     21878     21882     21881     21878     21882
     21875     21881     21878     21878     21882     21883     21882     21883     21884
     21882     21883     21885     21882     21883     21886     21884     21883     21885
     21884     21883     21886     21885     21883     21886     21883     21886     21887
     21883     21886     21888     21883     21886     21894     21887     21886     21888
     21887     21886     21894     21888     21886     21894     21886     21888     21889
     21888     21889     21890     21888     21889     21891     21890     21889     21891
     21889     21891     21892     21889     21891     21893     21889     21891     21903
     21892     21891     21893     21892     21891     21903     21893     21891     21903
     21886     21894     21895     21886     21894     21896     21886     21894     21897
     21895     21894     21896     21895     21894     21897     21896     21894     21897
     21894     21897     21898     21897     21898     21899     21897     21898     21900
     21899     21898     21900     21898     21900     21901     21898     21900     21902
     21898     21900     21950     21901     21900     21902     21901     21900     21950
     21902     21900     21950     21891     21903     21904     21891     21903     21905
     21891     21903     21906     21904     21903     21905     21904     21903     21906
     21905     21903     21906     21903     21906     21907     21903     21906     21908
     21903     21906     21909     21907     21906     21908     21907     21906     21909
     21908     21906     21909     21906     21909     21910     21906     21909     21911
     21906     21909     21912     21910     21909     21911     21910     21909     21912
     21911     21909     21912     21909     21912     21913     21909     21912     21914
     21909     21912     21915     21913     21912     21914     21913     21912     21915
     21914     21912     21915     21912     21915     21916     21912     21915     21917
     21912     21915     21918     21916     21915     21917     21916     21915     21918
     21917     21915     21918     21915     21918     21919     21915     21918     21920
     21915     21918     21921     21919     21918     21920     21919     21918     21921
     21920     21918     21921     21918     21921     21922     21918     21921     21923
     21922     21921     21923     21921     21923     21924     21921     21923     21925
     21924     21923     21925     21923     21925     21926     21923     21925     21927
     21923     21925     21928     21926     21925     21927     21926     21925     21928
     21927     21925     21928     21925     21928     21929     21925     21928     21930
     21925     21928     21931     21929     21928     21930     21929     21928     21931
     21930     21928     21931     21928     21931     21932     21928     21931     21933
     21928     21931     21934     21932     21931     21933     21932     21931     21934
     21933     21931     21934     21931     21934     21935     21931     21934     21936
     21931     21934     21937     21935     21934     21936     21935     21934     21937
     21936     21934     21937     21934     21937     21938     21934     21937     21939
     21934     21937     21940     21938     21937     21939     21938     21937     21940
     21939     21937     21940     21937     21940     21941     21937     21940     21942
     21937     21940     21943     21941     21940     21942     21941     21940     21943
     21942     21940     21943     21940     21943     21944     21940     21943     21945
     21940     21943     21946     21944     21943     21945     21944     21943     21946
     21945     21943     21946     21943     21946     21947     21943     21946     21948
     21943     21946     21949     21947     21946     21948     21947     21946     21949
     21948     21946     21949     21900     21950     21951     21900     21950     21952
     21900     21950     21953     21951     21950     21952     21951     21950     21953
     21952     21950     21953     21950     21953     21954     21950     21953     21955
     21950     21953     21956     21954     21953     21955     21954     21953     21956
     21955     21953     21956     21953     21956     21957     21953     21956     21958
     21953     21956     21959     21957     21956     21958     21957     21956     21959
     21958     21956     21959     21956     21959     21960     21956     21959     21961
     21956     21959     21962     21960     21959     21961     21960     21959     21962
     21961     21959     21962     21959     21962     21963     21959     21962     21964
     21959     21962     21965     21963     21962     21964     21963     21962     21965
     21964     21962     21965     21962     21965     21966     21962     21965     21967
     21962     21965     21968     21966     21965     21967     21966     21965     21968
     21967     21965     21968     21965     21968     21969     21965     21968     21970
     21965     21968     21971     21969     21968     21970     21969     21968     21971
     21970     21968     21971     21968     21971     21972     21968     21971     21973
     21968     21971     21974     21972     21971     21973     21972     21971     21974
     21973     21971     21974     21971     21974     21975     21971     21974     21976
     21971     21974     21977     21975     21974     21976     21975     21974     21977
     21976     21974     21977     21974     21977     21978     21974     21977     21979
     21974     21977     21980     21978     21977     21979     21978     21977     21980
     21979     21977     21980     21977     21980     21981     21977     21980     21982
     21977     21980     21983     21981     21980     21982     21981     21980     21983
     21982     21980     21983     21980     21983     21984     21980     21983     21985
     21980     21983     21986     21984     21983     21985     21984     21983     21986
     21985     21983     21986     21983     21986     21987     21983     21986     21988
     21983     21986     21989     21987     21986     21988     21987     21986     21989
     21988     21986     21989     21986     21989     21990     21986     21989     21991
     21986     21989     21992     21990     21989     21991     21990     21989     21992
     21991     21989     21992     21994     21993     21997     21994     21993     22001
     21994     21993     22005     21997     21993     22001     21997     21993     22005
     22001     21993     22005     21993     21994     21995     21993     21994     21996
     21993     21994     22009     21995     21994     21996     21995     21994     22009
     21996     21994     22009     21993     21997     21998     21993     21997     21999
     21993     21997     22000     21998     21997     21999     21998     21997     22000
     21999     21997     22000     21993     22001     22002     21993     22001     22003
     21993     22001     22004     22002     22001     22003     22002     22001     22004
     22003     22001     22004     21993     22005     22006     21993     22005     22007
     21993     22005     22008     22006     22005     22007     22006     22005     22008
     22007     22005     22008     21994     22009     22010     21994     22009     22011
     21994     22009     22015     22010     22009     22011     22010     22009     22015
     22011     22009     22015     22013     22012     22014     22013     22012     22015
     22013     22012     22016     22014     22012     22015     22014     22012     22016
     22015     22012     22016     22009     22015     22012     22012     22016     22017
     22016     22017     22018     22016     22017     22019     22016     22017     22020
     22018     22017     22019     22018     22017     22020     22019     22017     22020
     22017     22020     22021     22017     22020     22022     22017     22020     22028
     22021     22020     22022     22021     22020     22028     22022     22020     22028
     22020     22022     22023     22022     22023     22024     22022     22023     22025
     22024     22023     22025     22023     22025     22026     22023     22025     22027
     22023     22025     22037     22026     22025     22027     22026     22025     22037
     22027     22025     22037     22020     22028     22029     22020     22028     22030
     22020     22028     22031     22029     22028     22030     22029     22028     22031
     22030     22028     22031     22028     22031     22032     22031     22032     22033
     22031     22032     22034     22033     22032     22034     22032     22034     22035
     22032     22034     22036     22032     22034     22084     22035     22034     22036
     22035     22034     22084     22036     22034     22084     22025     22037     22038
     22025     22037     22039     22025     22037     22040     22038     22037     22039
     22038     22037     22040     22039     22037     22040     22037     22040     22041
     22037     22040     22042     22037     22040     22043     22041     22040     22042
     22041     22040     22043     22042     22040     22043     22040     22043     22044
     22040     22043     22045     22040     22043     22046     22044     22043     22045
     22044     22043     22046     22045     22043     22046     22043     22046     22047
     22043     22046     22048     22043     22046     22049     22047     22046     22048
     22047     22046     22049     22048     22046     22049     22046     22049     22050
     22046     22049     22051     22046     22049     22052     22050     22049     22051
     22050     22049     22052     22051     22049     22052     22049     22052     22053
     22049     22052     22054     22049     22052     22055     22053     22052     22054
     22053     22052     22055     22054     22052     22055     22052     22055     22056
     22052     22055     22057     22056     22055     22057     22055     22057     22058
     22055     22057     22059     22058     22057     22059     22057     22059     22060
     22057     22059     22061     22057     22059     22062     22060     22059     22061
     22060     22059     22062     22061     22059     22062     22059     22062     22063
     22059     22062     22064     22059     22062     22065     22063     22062     22064
     22063     22062     22065     22064     22062     22065     22062     22065     22066
     22062     22065     22067     22062     22065     22068     22066     22065     22067
     22066     22065     22068     22067     22065     22068     22065     22068     22069
     22065     22068     22070     22065     22068     22071     22069     22068     22070
     22069     22068     22071     22070     22068     22071     22068     22071     22072
     22068     22071     22073     22068     22071     22074     22072     22071     22073
     22072     22071     22074     22073     22071     22074     22071     22074     22075
     22071     22074     22076     22071     22074     22077     22075     22074     22076
     22075     22074     22077     22076     22074     22077     22074     22077     22078
     22074     22077     22079     22074     22077     22080     22078     22077     22079
     22078     22077     22080     22079     22077     22080     22077     22080     22081
     22077     22080     22082     22077     22080     22083     22081     22080     22082
     22081     22080     22083     22082     22080     22083     22034     22084     22085
     22034     22084     22086     22034     22084     22087     22085     22084     22086
     22085     22084     22087     22086     22084     22087     22084     22087     22088
     22084     22087     22089     22084     22087     22090     22088     22087     22089
     22088     22087     22090     22089     22087     22090     22087     22090     22091
     22087     22090     22092     22087     22090     22093     22091     22090     22092
     22091     22090     22093     22092     22090     22093     22090     22093     22094
     22090     22093     22095     22090     22093     22096     22094     22093     22095
     22094     22093     22096     22095     22093     22096     22093     22096     22097
     22093     22096     22098     22093     22096     22099     22097     22096     22098
     22097     22096     22099     22098     22096     22099     22096     22099     22100
     22096     22099     22101     22096     22099     22102     22100     22099     22101
     22100     22099     22102     22101     22099     22102     22099     22102     22103
     22099     22102     22104     22099     22102     22105     22103     22102     22104
     22103     22102     22105     22104     22102     22105     22102     22105     22106
     22102     22105     22107     22102     22105     22108     22106     22105     22107
     22106     22105     22108     22107     22105     22108     22105     22108     22109
     22105     22108     22110     22105     22108     22111     22109     22108     22110
     22109     22108     22111     22110     22108     22111     22108     22111     22112
     22108     22111     22113     22108     22111     22114     22112     22111     22113
     22112     22111     22114     22113     22111     22114     22111     22114     22115
     22111     22114     22116     22111     22114     22117     22115     22114     22116
     22115     22114     22117     22116     22114     22117     22114     22117     22118
     22114     22117     22119     22114     22117     22120     22118     22117     22119
     22118     22117     22120     22119     22117     22120     22117     22120     22121
     22117     22120     22122     22117     22120     22123     22121     22120     22122
     22121     22120     22123     22122     22120     22123     22120     22123     22124
     22120     22123     22125     22120     22123     22126     22124     22123     22125
     22124     22123     22126     22125     22123     22126     22128     22127     22131
     22128     22127     22135     22128     22127     22139     22131     22127     22135
     22131     22127     22139     22135     22127     22139     22127     22128     22129
     22127     22128     22130     22127     22128     22143     22129     22128     22130
     22129     22128     22143     22130     22128     22143     22127     22131     22132
     22127     22131     22133     22127     22131     22134     22132     22131     22133
     22132     22131     22134     22133     22131     22134     22127     22135     22136
     22127     22135     22137     22127     22135     22138     22136     22135     22137
     22136     22135     22138     22137     22135     22138     22127     22139     22140
     22127     22139     22141     22127     22139     22142     22140     22139     22141
     22140     22139     22142     22141     22139     22142     22128     22143     22144
     22128     22143     22145     22128     22143     22149     22144     22143     22145
     22144     22143     22149     22145     22143     22149     22147     22146     22148
     22147     22146     22149     22147     22146     22150     22148     22146     22149
     22148     22146     22150     22149     22146     22150     22143     22149     22146
     22146     22150     22151     22150     22151     22152     22150     22151     22153
     22150     22151     22154     22152     22151     22153     22152     22151     22154
     22153     22151     22154     22151     22154     22155     22151     22154     22156
     22151     22154     22162     22155     22154     22156     22155     22154     22162
     22156     22154     22162     22154     22156     22157     22156     22157     22158
     22156     22157     22159     22158     22157     22159     22157     22159     22160
     22157     22159     22161     22157     22159     22171     22160     22159     22161
     22160     22159     22171     22161     22159     22171     22154     22162     22163
     22154     22162     22164     22154     22162     22165     22163     22162     22164
     22163     22162     22165     22164     22162     22165     22162     22165     22166
     22165     22166     22167     22165     22166     22168     22167     22166     22168
     22166     22168     22169     22166     22168     22170     22166     22168     22218
     22169     22168     22170     22169     22168     22218     22170     22168     22218
     22159     22171     22172     22159     22171     22173     22159     22171     22174
     22172     22171     22173     22172     22171     22174     22173     22171     22174
     22171     22174     22175     22171     22174     22176     22171     22174     22177
     22175     22174     22176     22175     22174     22177     22176     22174     22177
     22174     22177     22178     22174     22177     22179     22174     22177     22180
     22178     22177     22179     22178     22177     22180     22179     22177     22180
     22177     22180     22181     22177     22180     22182     22177     22180     22183
     22181     22180     22182     22181     22180     22183     22182     22180     22183
     22180     22183     22184     22180     22183     22185     22180     22183     22186
     22184     22183     22185     22184     22183     22186     22185     22183     22186
     22183     22186     22187     22183     22186     22188     22183     22186     22189
     22187     22186     22188     22187     22186     22189     22188     22186     22189
     22186     22189     22190     22186     22189     22191     22190     22189     22191
     22189     22191     22192     22189     22191     22193     22192     22191     22193
     22191     22193     22194     22191     22193     22195     22191     22193     22196
     22194     22193     22195     22194     22193     22196     22195     22193     22196
     22193     22196     22197     22193     22196     22198     22193     22196     22199
     22197     22196     22198     22197     22196     22199     22198     22196     22199
     22196     22199     22200     22196     22199     22201     22196     22199     22202
     22200     22199     22201     22200     22199     22202     22201     22199     22202
     22199     22202     22203     22199     22202     22204     22199     22202     22205
     22203     22202     22204     22203     22202     22205     22204     22202     22205
     22202     22205     22206     22202     22205     22207     22202     22205     22208
     22206     22205     22207     22206     22205     22208     22207     22205     22208
     22205     22208     22209     22205     22208     22210     22205     22208     22211
     22209     22208     22210     22209     22208     22211     22210     22208     22211
     22208     22211     22212     22208     22211     22213     22208     22211     22214
     22212     22211     22213     22212     22211     22214     22213     22211     22214
     22211     22214     22215     22211     22214     22216     22211     22214     22217
     22215     22214     22216     22215     22214     22217     22216     22214     22217
     22168     22218     22219     22168     22218     22220     22168     22218     22221
     22219     22218     22220     22219     22218     22221     22220     22218     22221
     22218     22221     22222     22218     22221     22223     22218     22221     22224
     22222     22221     22223     22222     22221     22224     22223     22221     22224
     22221     22224     22225     22221     22224     22226     22221     22224     22227
     22225     22224     22226     22225     22224     22227     22226     22224     22227
     22224     22227     22228     22224     22227     22229     22224     22227     22230
     22228     22227     22229     22228     22227     22230     22229     22227     22230
     22227     22230     22231     22227     22230     22232     22227     22230     22233
     22231     22230     22232     22231     22230     22233     22232     22230     22233
     22230     22233     22234     22230     22233     22235     22230     22233     22236
     22234     22233     22235     22234     22233     22236     22235     22233     22236
     22233     22236     22237     22233     22236     22238     22233     22236     22239
     22237     22236     22238     22237     22236     22239     22238     22236     22239
     22236     22239     22240     22236     22239     22241     22236     22239     22242
     22240     22239     22241     22240     22239     22242     22241     22239     22242
     22239     22242     22243     22239     22242     22244     22239     22242     22245
     22243     22242     22244     22243     22242     22245     22244     22242     22245
     22242     22245     22246     22242     22245     22247     22242     22245     22248
     22246     22245     22247     22246     22245     22248     22247     22245     22248
     22245     22248     22249     22245     22248     22250     22245     22248     22251
     22249     22248     22250     22249     22248     22251     22250     22248     22251
     22248     22251     22252     22248     22251     22253     22248     22251     22254
     22252     22251     22253     22252     22251     22254     22253     22251     22254
     22251     22254     22255     22251     22254     22256     22251     22254     22257
     22255     22254     22256     22255     22254     22257     22256     22254     22257
     22254     22257     22258     22254     22257     22259     22254     22257     22260
     22258     22257     22259     22258     22257     22260     22259     22257     22260
     22262     22261     22265     22262     22261     22269     22262     22261     22273
     22265     22261     22269     22265     22261     22273     22269     22261     22273
     22261     22262     22263     22261     22262     22264     22261     22262     22277
     22263     22262     22264     22263     22262     22277     22264     22262     22277
     22261     22265     22266     22261     22265     22267     22261     22265     22268
     22266     22265     22267     22266     22265     22268     22267     22265     22268
     22261     22269     22270     22261     22269     22271     22261     22269     22272
     22270     22269     22271     22270     22269     22272     22271     22269     22272
     22261     22273     22274     22261     22273     22275     22261     22273     22276
     22274     22273     22275     22274     22273     22276     22275     22273     22276
     22262     22277     22278     22262     22277     22279     22262     22277     22283
     22278     22277     22279     22278     22277     22283     22279     22277     22283
     22281     22280     22282     22281     22280     22283     22281     22280     22284
     22282     22280     22283     22282     22280     22284     22283     22280     22284
     22277     22283     22280     22280     22284     22285     22284     22285     22286
     22284     22285     22287     22284     22285     22288     22286     22285     22287
     22286     22285     22288     22287     22285     22288     22285     22288     22289
     22285     22288     22290     22285     22288     22296     22289     22288     22290
     22289     22288     22296     22290     22288     22296     22288     22290     22291
     22290     22291     22292     22290     22291     22293     22292     22291     22293
     22291     22293     22294     22291     22293     22295     22291     22293     22305
     22294     22293     22295     22294     22293     22305     22295     22293     22305
     22288     22296     22297     22288     22296     22298     22288     22296     22299
     22297     22296     22298     22297     22296     22299     22298     22296     22299
     22296     22299     22300     22299     22300     22301     22299     22300     22302
     22301     22300     22302     22300     22302     22303     22300     22302     22304
     22300     22302     22352     22303     22302     22304     22303     22302     22352
     22304     22302     22352     22293     22305     22306     22293     22305     22307
     22293     22305     22308     22306     22305     22307     22306     22305     22308
     22307     22305     22308     22305     22308     22309     22305     22308     22310
     22305     22308     22311     22309     22308     22310     22309     22308     22311
     22310     22308     22311     22308     22311     22312     22308     22311     22313
     22308     22311     22314     22312     22311     22313     22312     22311     22314
     22313     22311     22314     22311     22314     22315     22311     22314     22316
     22311     22314     22317     22315     22314     22316     22315     22314     22317
     22316     22314     22317     22314     22317     22318     22314     22317     22319
     22314     22317     22320     22318     22317     22319     22318     22317     22320
     22319     22317     22320     22317     22320     22321     22317     22320     22322
     22317     22320     22323     22321     22320     22322     22321     22320     22323
     22322     22320     22323     22320     22323     22324     22320     22323     22325
     22324     22323     22325     22323     22325     22326     22323     22325     22327
     22326     22325     22327     22325     22327     22328     22325     22327     22329
     22325     22327     22330     22328     22327     22329     22328     22327     22330
     22329     22327     22330     22327     22330     22331     22327     22330     22332
     22327     22330     22333     22331     22330     22332     22331     22330     22333
     22332     22330     22333     22330     22333     22334     22330     22333     22335
     22330     22333     22336     22334     22333     22335     22334     22333     22336
     22335     22333     22336     22333     22336     22337     22333     22336     22338
     22333     22336     22339     22337     22336     22338     22337     22336     22339
     22338     22336     22339     22336     22339     22340     22336     22339     22341
     22336     22339     22342     22340     22339     22341     22340     22339     22342
     22341     22339     22342     22339     22342     22343     22339     22342     22344
     22339     22342     22345     22343     22342     22344     22343     22342     22345
     22344     22342     22345     22342     22345     22346     22342     22345     22347
     22342     22345     22348     22346     22345     22347     22346     22345     22348
     22347     22345     22348     22345     22348     22349     22345     22348     22350
     22345     22348     22351     22349     22348     22350     22349     22348     22351
     22350     22348     22351     22302     22352     22353     22302     22352     22354
     22302     22352     22355     22353     22352     22354     22353     22352     22355
     22354     22352     22355     22352     22355     22356     22352     22355     22357
     22352     22355     22358     22356     22355     22357     22356     22355     22358
     22357     22355     22358     22355     22358     22359     22355     22358     22360
     22355     22358     22361     22359     22358     22360     22359     22358     22361
     22360     22358     22361     22358     22361     22362     22358     22361     22363
     22358     22361     22364     22362     22361     22363     22362     22361     22364
     22363     22361     22364     22361     22364     22365     22361     22364     22366
     22361     22364     22367     22365     22364     22366     22365     22364     22367
     22366     22364     22367     22364     22367     22368     22364     22367     22369
     22364     22367     22370     22368     22367     22369     22368     22367     22370
     22369     22367     22370     22367     22370     22371     22367     22370     22372
     22367     22370     22373     22371     22370     22372     22371     22370     22373
     22372     22370     22373     22370     22373     22374     22370     22373     22375
     22370     22373     22376     22374     22373     22375     22374     22373     22376
     22375     22373     22376     22373     22376     22377     22373     22376     22378
     22373     22376     22379     22377     22376     22378     22377     22376     22379
     22378     22376     22379     22376     22379     22380     22376     22379     22381
     22376     22379     22382     22380     22379     22381     22380     22379     22382
     22381     22379     22382     22379     22382     22383     22379     22382     22384
     22379     22382     22385     22383     22382     22384     22383     22382     22385
     22384     22382     22385     22382     22385     22386     22382     22385     22387
     22382     22385     22388     22386     22385     22387     22386     22385     22388
     22387     22385     22388     22385     22388     22389     22385     22388     22390
     22385     22388     22391     22389     22388     22390     22389     22388     22391
     22390     22388     22391     22388     22391     22392     22388     22391     22393
     22388     22391     22394     22392     22391     22393     22392     22391     22394
     22393     22391     22394     22396     22395     22397     22396     22395     22398
     22396     22395     22399     22397     22395     22398     22397     22395     22399
     22398     22395     22399     22395     22399     22400     22395     22399     22401
     22395     22399     22404     22400     22399     22401     22400     22399     22404
     22401     22399     22404     22399     22401     22402     22399     22401     22403
     22402     22401     22403     22399     22404     22405     22399     22404     22406
     22399     22404     22410     22405     22404     22406     22405     22404     22410
     22406     22404     22410     22408     22407     22409     22408     22407     22410
     22408     22407     22411     22409     22407     22410     22409     22407     22411
     22410     22407     22411     22404     22410     22407     22407     22411     22412
     22411     22412     22413     22411     22412     22414     22411     22412     22415
     22413     22412     22414     22413     22412     22415     22414     22412     22415
     22412     22415     22416     22412     22415     22417     22412     22415     22423
     22416     22415     22417     22416     22415     22423     22417     22415     22423
     22415     22417     22418     22417     22418     22419     22417     22418     22420
     22419     22418     22420     22418     22420     22421     22418     22420     22422
     22418     22420     22432     22421     22420     22422     22421     22420     22432
     22422     22420     22432     22415     22423     22424     22415     22423     22425
     22415     22423     22426     22424     22423     22425     22424     22423     22426
     22425     22423     22426     22423     22426     22427     22426     22427     22428
     22426     22427     22429     22428     22427     22429     22427     22429     22430
     22427     22429     22431     22427     22429     22479     22430     22429     22431
     22430     22429     22479     22431     22429     22479     22420     22432     22433
     22420     22432     22434     22420     22432     22435     22433     22432     22434
     22433     22432     22435     22434     22432     22435     22432     22435     22436
     22432     22435     22437     22432     22435     22438     22436     22435     22437
     22436     22435     22438     22437     22435     22438     22435     22438     22439
     22435     22438     22440     22435     22438     22441     22439     22438     22440
     22439     22438     22441     22440     22438     22441     22438     22441     22442
     22438     22441     22443     22438     22441     22444     22442     22441     22443
     22442     22441     22444     22443     22441     22444     22441     22444     22445
     22441     22444     22446     22441     22444     22447     22445     22444     22446
     22445     22444     22447     22446     22444     22447     22444     22447     22448
     22444     22447     22449     22444     22447     22450     22448     22447     22449
     22448     22447     22450     22449     22447     22450     22447     22450     22451
     22447     22450     22452     22451     22450     22452     22450     22452     22453
     22450     22452     22454     22453     22452     22454     22452     22454     22455
     22452     22454     22456     22452     22454     22457     22455     22454     22456
     22455     22454     22457     22456     22454     22457     22454     22457     22458
     22454     22457     22459     22454     22457     22460     22458     22457     22459
     22458     22457     22460     22459     22457     22460     22457     22460     22461
     22457     22460     22462     22457     22460     22463     22461     22460     22462
     22461     22460     22463     22462     22460     22463     22460     22463     22464
     22460     22463     22465     22460     22463     22466     22464     22463     22465
     22464     22463     22466     22465     22463     22466     22463     22466     22467
     22463     22466     22468     22463     22466     22469     22467     22466     22468
     22467     22466     22469     22468     22466     22469     22466     22469     22470
     22466     22469     22471     22466     22469     22472     22470     22469     22471
     22470     22469     22472     22471     22469     22472     22469     22472     22473
     22469     22472     22474     22469     22472     22475     22473     22472     22474
     22473     22472     22475     22474     22472     22475     22472     22475     22476
     22472     22475     22477     22472     22475     22478     22476     22475     22477
     22476     22475     22478     22477     22475     22478     22429     22479     22480
     22429     22479     22481     22429     22479     22482     22480     22479     22481
     22480     22479     22482     22481     22479     22482     22479     22482     22483
     22479     22482     22484     22479     22482     22485     22483     22482     22484
     22483     22482     22485     22484     22482     22485     22482     22485     22486
     22482     22485     22487     22482     22485     22488     22486     22485     22487
     22486     22485     22488     22487     22485     22488     22485     22488     22489
     22485     22488     22490     22485     22488     22491     22489     22488     22490
     22489     22488     22491     22490     22488     22491     22488     22491     22492
     22488     22491     22493     22488     22491     22494     22492     22491     22493
     22492     22491     22494     22493     22491     22494     22491     22494     22495
     22491     22494     22496     22491     22494     22497     22495     22494     22496
     22495     22494     22497     22496     22494     22497     22494     22497     22498
     22494     22497     22499     22494     22497     22500     22498     22497     22499
     22498     22497     22500     22499     22497     22500     22497     22500     22501
     22497     22500     22502     22497     22500     22503     22501     22500     22502
     22501     22500     22503     22502     22500     22503     22500     22503     22504
     22500     22503     22505     22500     22503     22506     22504     22503     22505
     22504     22503     22506     22505     22503     22506     22503     22506     22507
     22503     22506     22508     22503     22506     22509     22507     22506     22508
     22507     22506     22509     22508     22506     22509     22506     22509     22510
     22506     22509     22511     22506     22509     22512     22510     22509     22511
     22510     22509     22512     22511     22509     22512     22509     22512     22513
     22509     22512     22514     22509     22512     22515     22513     22512     22514
     22513     22512     22515     22514     22512     22515     22512     22515     22516
     22512     22515     22517     22512     22515     22518     22516     22515     22517
     22516     22515     22518     22517     22515     22518     22515     22518     22519
     22515     22518     22520     22515     22518     22521     22519     22518     22520
     22519     22518     22521     22520     22518     22521     22523     22522     22526
     22523     22522     22530     22523     22522     22534     22526     22522     22530
     22526     22522     22534     22530     22522     22534     22522     22523     22524
     22522     22523     22525     22522     22523     22538     22524     22523     22525
     22524     22523     22538     22525     22523     22538     22522     22526     22527
     22522     22526     22528     22522     22526     22529     22527     22526     22528
     22527     22526     22529     22528     22526     22529     22522     22530     22531
     22522     22530     22532     22522     22530     22533     22531     22530     22532
     22531     22530     22533     22532     22530     22533     22522     22534     22535
     22522     22534     22536     22522     22534     22537     22535     22534     22536
     22535     22534     22537     22536     22534     22537     22523     22538     22539
     22523     22538     22540     22523     22538     22544     22539     22538     22540
     22539     22538     22544     22540     22538     22544     22542     22541     22543
     22542     22541     22544     22542     22541     22545     22543     22541     22544
     22543     22541     22545     22544     22541     22545     22538     22544     22541
     22541     22545     22546     22545     22546     22547     22545     22546     22548
     22545     22546     22549     22547     22546     22548     22547     22546     22549
     22548     22546     22549     22546     22549     22550     22546     22549     22551
     22546     22549     22557     22550     22549     22551     22550     22549     22557
     22551     22549     22557     22549     22551     22552     22551     22552     22553
     22551     22552     22554     22553     22552     22554     22552     22554     22555
     22552     22554     22556     22552     22554     22566     22555     22554     22556
     22555     22554     22566     22556     22554     22566     22549     22557     22558
     22549     22557     22559     22549     22557     22560     22558     22557     22559
     22558     22557     22560     22559     22557     22560     22557     22560     22561
     22560     22561     22562     22560     22561     22563     22562     22561     22563
     22561     22563     22564     22561     22563     22565     22561     22563     22613
     22564     22563     22565     22564     22563     22613     22565     22563     22613
     22554     22566     22567     22554     22566     22568     22554     22566     22569
     22567     22566     22568     22567     22566     22569     22568     22566     22569
     22566     22569     22570     22566     22569     22571     22566     22569     22572
     22570     22569     22571     22570     22569     22572     22571     22569     22572
     22569     22572     22573     22569     22572     22574     22569     22572     22575
     22573     22572     22574     22573     22572     22575     22574     22572     22575
     22572     22575     22576     22572     22575     22577     22572     22575     22578
     22576     22575     22577     22576     22575     22578     22577     22575     22578
     22575     22578     22579     22575     22578     22580     22575     22578     22581
     22579     22578     22580     22579     22578     22581     22580     22578     22581
     22578     22581     22582     22578     22581     22583     22578     22581     22584
     22582     22581     22583     22582     22581     22584     22583     22581     22584
     22581     22584     22585     22581     22584     22586     22585     22584     22586
     22584     22586     22587     22584     22586     22588     22587     22586     22588
     22586     22588     22589     22586     22588     22590     22586     22588     22591
     22589     22588     22590     22589     22588     22591     22590     22588     22591
     22588     22591     22592     22588     22591     22593     22588     22591     22594
     22592     22591     22593     22592     22591     22594     22593     22591     22594
     22591     22594     22595     22591     22594     22596     22591     22594     22597
     22595     22594     22596     22595     22594     22597     22596     22594     22597
     22594     22597     22598     22594     22597     22599     22594     22597     22600
     22598     22597     22599     22598     22597     22600     22599     22597     22600
     22597     22600     22601     22597     22600     22602     22597     22600     22603
     22601     22600     22602     22601     22600     22603     22602     22600     22603
     22600     22603     22604     22600     22603     22605     22600     22603     22606
     22604     22603     22605     22604     22603     22606     22605     22603     22606
     22603     22606     22607     22603     22606     22608     22603     22606     22609
     22607     22606     22608     22607     22606     22609     22608     22606     22609
     22606     22609     22610     22606     22609     22611     22606     22609     22612
     22610     22609     22611     22610     22609     22612     22611     22609     22612
     22563     22613     22614     22563     22613     22615     22563     22613     22616
     22614     22613     22615     22614     22613     22616     22615     22613     22616
     22613     22616     22617     22613     22616     22618     22613     22616     22619
     22617     22616     22618     22617     22616     22619     22618     22616     22619
     22616     22619     22620     22616     22619     22621     22616     22619     22622
     22620     22619     22621     22620     22619     22622     22621     22619     22622
     22619     22622     22623     22619     22622     22624     22619     22622     22625
     22623     22622     22624     22623     22622     22625     22624     22622     22625
     22622     22625     22626     22622     22625     22627     22622     22625     22628
     22626     22625     22627     22626     22625     22628     22627     22625     22628
     22625     22628     22629     22625     22628     22630     22625     22628     22631
     22629     22628     22630     22629     22628     22631     22630     22628     22631
     22628     22631     22632     22628     22631     22633     22628     22631     22634
     22632     22631     22633     22632     22631     22634     22633     22631     22634
     22631     22634     22635     22631     22634     22636     22631     22634     22637
     22635     22634     22636     22635     22634     22637     22636     22634     22637
     22634     22637     22638     22634     22637     22639     22634     22637     22640
     22638     22637     22639     22638     22637     22640     22639     22637     22640
     22637     22640     22641     22637     22640     22642     22637     22640     22643
     22641     22640     22642     22641     22640     22643     22642     22640     22643
     22640     22643     22644     22640     22643     22645     22640     22643     22646
     22644     22643     22645     22644     22643     22646     22645     22643     22646
     22643     22646     22647     22643     22646     22648     22643     22646     22649
     22647     22646     22648     22647     22646     22649     22648     22646     22649
     22646     22649     22650     22646     22649     22651     22646     22649     22652
     22650     22649     22651     22650     22649     22652     22651     22649     22652
     22649     22652     22653     22649     22652     22654     22649     22652     22655
     22653     22652     22654     22653     22652     22655     22654     22652     22655
     22657     22656     22660     22657     22656     22664     22657     22656     22668
     22660     22656     22664     22660     22656     22668     22664     22656     22668
     22656     22657     22658     22656     22657     22659     22656     22657     22672
     22658     22657     22659     22658     22657     22672     22659     22657     22672
     22656     22660     22661     22656     22660     22662     22656     22660     22663
     22661     22660     22662     22661     22660     22663     22662     22660     22663
     22656     22664     22665     22656     22664     22666     22656     22664     22667
     22665     22664     22666     22665     22664     22667     22666     22664     22667
     22656     22668     22669     22656     22668     22670     22656     22668     22671
     22669     22668     22670     22669     22668     22671     22670     22668     22671
     22657     22672     22673     22657     22672     22674     22657     22672     22678
     22673     22672     22674     22673     22672     22678     22674     22672     22678
     22676     22675     22677     22676     22675     22678     22676     22675     22679
     22677     22675     22678     22677     22675     22679     22678     22675     22679
     22672     22678     22675     22675     22679     22680     22679     22680     22681
     22679     22680     22682     22679     22680     22683     22681     22680     22682
     22681     22680     22683     22682     22680     22683     22680     22683     22684
     22680     22683     22685     22680     22683     22691     22684     22683     22685
     22684     22683     22691     22685     22683     22691     22683     22685     22686
     22685     22686     22687     22685     22686     22688     22687     22686     22688
     22686     22688     22689     22686     22688     22690     22686     22688     22700
     22689     22688     22690     22689     22688     22700     22690     22688     22700
     22683     22691     22692     22683     22691     22693     22683     22691     22694
     22692     22691     22693     22692     22691     22694     22693     22691     22694
     22691     22694     22695     22694     22695     22696     22694     22695     22697
     22696     22695     22697     22695     22697     22698     22695     22697     22699
     22695     22697     22747     22698     22697     22699     22698     22697     22747
     22699     22697     22747     22688     22700     22701     22688     22700     22702
     22688     22700     22703     22701     22700     22702     22701     22700     22703
     22702     22700     22703     22700     22703     22704     22700     22703     22705
     22700     22703     22706     22704     22703     22705     22704     22703     22706
     22705     22703     22706     22703     22706     22707     22703     22706     22708
     22703     22706     22709     22707     22706     22708     22707     22706     22709
     22708     22706     22709     22706     22709     22710     22706     22709     22711
     22706     22709     22712     22710     22709     22711     22710     22709     22712
     22711     22709     22712     22709     22712     22713     22709     22712     22714
     22709     22712     22715     22713     22712     22714     22713     22712     22715
     22714     22712     22715     22712     22715     22716     22712     22715     22717
     22712     22715     22718     22716     22715     22717     22716     22715     22718
     22717     22715     22718     22715     22718     22719     22715     22718     22720
     22719     22718     22720     22718     22720     22721     22718     22720     22722
     22721     22720     22722     22720     22722     22723     22720     22722     22724
     22720     22722     22725     22723     22722     22724     22723     22722     22725
     22724     22722     22725     22722     22725     22726     22722     22725     22727
     22722     22725     22728     22726     22725     22727     22726     22725     22728
     22727     22725     22728     22725     22728     22729     22725     22728     22730
     22725     22728     22731     22729     22728     22730     22729     22728     22731
     22730     22728     22731     22728     22731     22732     22728     22731     22733
     22728     22731     22734     22732     22731     22733     22732     22731     22734
     22733     22731     22734     22731     22734     22735     22731     22734     22736
     22731     22734     22737     22735     22734     22736     22735     22734     22737
     22736     22734     22737     22734     22737     22738     22734     22737     22739
     22734     22737     22740     22738     22737     22739     22738     22737     22740
     22739     22737     22740     22737     22740     22741     22737     22740     22742
     22737     22740     22743     22741     22740     22742     22741     22740     22743
     22742     22740     22743     22740     22743     22744     22740     22743     22745
     22740     22743     22746     22744     22743     22745     22744     22743     22746
     22745     22743     22746     22697     22747     22748     22697     22747     22749
     22697     22747     22750     22748     22747     22749     22748     22747     22750
     22749     22747     22750     22747     22750     22751     22747     22750     22752
     22747     22750     22753     22751     22750     22752     22751     22750     22753
     22752     22750     22753     22750     22753     22754     22750     22753     22755
     22750     22753     22756     22754     22753     22755     22754     22753     22756
     22755     22753     22756     22753     22756     22757     22753     22756     22758
     22753     22756     22759     22757     22756     22758     22757     22756     22759
     22758     22756     22759     22756     22759     22760     22756     22759     22761
     22756     22759     22762     22760     22759     22761     22760     22759     22762
     22761     22759     22762     22759     22762     22763     22759     22762     22764
     22759     22762     22765     22763     22762     22764     22763     22762     22765
     22764     22762     22765     22762     22765     22766     22762     22765     22767
     22762     22765     22768     22766     22765     22767     22766     22765     22768
     22767     22765     22768     22765     22768     22769     22765     22768     22770
     22765     22768     22771     22769     22768     22770     22769     22768     22771
     22770     22768     22771     22768     22771     22772     22768     22771     22773
     22768     22771     22774     22772     22771     22773     22772     22771     22774
     22773     22771     22774     22771     22774     22775     22771     22774     22776
     22771     22774     22777     22775     22774     22776     22775     22774     22777
     22776     22774     22777     22774     22777     22778     22774     22777     22779
     22774     22777     22780     22778     22777     22779     22778     22777     22780
     22779     22777     22780     22777     22780     22781     22777     22780     22782
     22777     22780     22783     22781     22780     22782     22781     22780     22783
     22782     22780     22783     22780     22783     22784     22780     22783     22785
     22780     22783     22786     22784     22783     22785     22784     22783     22786
     22785     22783     22786     22783     22786     22787     22783     22786     22788
     22783     22786     22789     22787     22786     22788     22787     22786     22789
     22788     22786     22789     22791     22790     22794     22791     22790     22798
     22791     22790     22802     22794     22790     22798     22794     22790     22802
     22798     22790     22802     22790     22791     22792     22790     22791     22793
     22790     22791     22806     22792     22791     22793     22792     22791     22806
     22793     22791     22806     22790     22794     22795     22790     22794     22796
     22790     22794     22797     22795     22794     22796     22795     22794     22797
     22796     22794     22797     22790     22798     22799     22790     22798     22800
     22790     22798     22801     22799     22798     22800     22799     22798     22801
     22800     22798     22801     22790     22802     22803     22790     22802     22804
     22790     22802     22805     22803     22802     22804     22803     22802     22805
     22804     22802     22805     22791     22806     22807     22791     22806     22808
     22791     22806     22812     22807     22806     22808     22807     22806     22812
     22808     22806     22812     22810     22809     22811     22810     22809     22812
     22810     22809     22813     22811     22809     22812     22811     22809     22813
     22812     22809     22813     22806     22812     22809     22809     22813     22814
     22813     22814     22815     22813     22814     22816     22813     22814     22817
     22815     22814     22816     22815     22814     22817     22816     22814     22817
     22814     22817     22818     22814     22817     22819     22814     22817     22825
     22818     22817     22819     22818     22817     22825     22819     22817     22825
     22817     22819     22820     22819     22820     22821     22819     22820     22822
     22821     22820     22822     22820     22822     22823     22820     22822     22824
     22820     22822     22834     22823     22822     22824     22823     22822     22834
     22824     22822     22834     22817     22825     22826     22817     22825     22827
     22817     22825     22828     22826     22825     22827     22826     22825     22828
     22827     22825     22828     22825     22828     22829     22828     22829     22830
     22828     22829     22831     22830     22829     22831     22829     22831     22832
     22829     22831     22833     22829     22831     22881     22832     22831     22833
     22832     22831     22881     22833     22831     22881     22822     22834     22835
     22822     22834     22836     22822     22834     22837     22835     22834     22836
     22835     22834     22837     22836     22834     22837     22834     22837     22838
     22834     22837     22839     22834     22837     22840     22838     22837     22839
     22838     22837     22840     22839     22837     22840     22837     22840     22841
     22837     22840     22842     22837     22840     22843     22841     22840     22842
     22841     22840     22843     22842     22840     22843     22840     22843     22844
     22840     22843     22845     22840     22843     22846     22844     22843     22845
     22844     22843     22846     22845     22843     22846     22843     22846     22847
     22843     22846     22848     22843     22846     22849     22847     22846     22848
     22847     22846     22849     22848     22846     22849     22846     22849     22850
     22846     22849     22851     22846     22849     22852     22850     22849     22851
     22850     22849     22852     22851     22849     22852     22849     22852     22853
     22849     22852     22854     22853     22852     22854     22852     22854     22855
     22852     22854     22856     22855     22854     22856     22854     22856     22857
     22854     22856     22858     22854     22856     22859     22857     22856     22858
     22857     22856     22859     22858     22856     22859     22856     22859     22860
     22856     22859     22861     22856     22859     22862     22860     22859     22861
     22860     22859     22862     22861     22859     22862     22859     22862     22863
     22859     22862     22864     22859     22862     22865     22863     22862     22864
     22863     22862     22865     22864     22862     22865     22862     22865     22866
     22862     22865     22867     22862     22865     22868     22866     22865     22867
     22866     22865     22868     22867     22865     22868     22865     22868     22869
     22865     22868     22870     22865     22868     22871     22869     22868     22870
     22869     22868     22871     22870     22868     22871     22868     22871     22872
     22868     22871     22873     22868     22871     22874     22872     22871     22873
     22872     22871     22874     22873     22871     22874     22871     22874     22875
     22871     22874     22876     22871     22874     22877     22875     22874     22876
     22875     22874     22877     22876     22874     22877     22874     22877     22878
     22874     22877     22879     22874     22877     22880     22878     22877     22879
     22878     22877     22880     22879     22877     22880     22831     22881     22882
     22831     22881     22883     22831     22881     22884     22882     22881     22883
     22882     22881     22884     22883     22881     22884     22881     22884     22885
     22881     22884     22886     22881     22884     22887     22885     22884     22886
     22885     22884     22887     22886     22884     22887     22884     22887     22888
     22884     22887     22889     22884     22887     22890     22888     22887     22889
     22888     22887     22890     22889     22887     22890     22887     22890     22891
     22887     22890     22892     22887     22890     22893     22891     22890     22892
     22891     22890     22893     22892     22890     22893     22890     22893     22894
     22890     22893     22895     22890     22893     22896     22894     22893     22895
     22894     22893     22896     22895     22893     22896     22893     22896     22897
     22893     22896     22898     22893     22896     22899     22897     22896     22898
     22897     22896     22899     22898     22896     22899     22896     22899     22900
     22896     22899     22901     22896     22899     22902     22900     22899     22901
     22900     22899     22902     22901     22899     22902     22899     22902     22903
     22899     22902     22904     22899     22902     22905     22903     22902     22904
     22903     22902     22905     22904     22902     22905     22902     22905     22906
     22902     22905     22907     22902     22905     22908     22906     22905     22907
     22906     22905     22908     22907     22905     22908     22905     22908     22909
     22905     22908     22910     22905     22908     22911     22909     22908     22910
     22909     22908     22911     22910     22908     22911     22908     22911     22912
     22908     22911     22913     22908     22911     22914     22912     22911     22913
     22912     22911     22914     22913     22911     22914     22911     22914     22915
     22911     22914     22916     22911     22914     22917     22915     22914     22916
     22915     22914     22917     22916     22914     22917     22914     22917     22918
     22914     22917     22919     22914     22917     22920     22918     22917     22919
     22918     22917     22920     22919     22917     22920     22917     22920     22921
     22917     22920     22922     22917     22920     22923     22921     22920     22922
     22921     22920     22923     22922     22920     22923     22925     22924     22928
     22925     22924     22932     22925     22924     22936     22928     22924     22932
     22928     22924     22936     22932     22924     22936     22924     22925     22926
     22924     22925     22927     22924     22925     22940     22926     22925     22927
     22926     22925     22940     22927     22925     22940     22924     22928     22929
     22924     22928     22930     22924     22928     22931     22929     22928     22930
     22929     22928     22931     22930     22928     22931     22924     22932     22933
     22924     22932     22934     22924     22932     22935     22933     22932     22934
     22933     22932     22935     22934     22932     22935     22924     22936     22937
     22924     22936     22938     22924     22936     22939     22937     22936     22938
     22937     22936     22939     22938     22936     22939     22925     22940     22941
     22925     22940     22942     22925     22940     22946     22941     22940     22942
     22941     22940     22946     22942     22940     22946     22944     22943     22945
     22944     22943     22946     22944     22943     22947     22945     22943     22946
     22945     22943     22947     22946     22943     22947     22940     22946     22943
     22943     22947     22948     22947     22948     22949     22947     22948     22950
     22947     22948     22951     22949     22948     22950     22949     22948     22951
     22950     22948     22951     22948     22951     22952     22948     22951     22953
     22948     22951     22959     22952     22951     22953     22952     22951     22959
     22953     22951     22959     22951     22953     22954     22953     22954     22955
     22953     22954     22956     22955     22954     22956     22954     22956     22957
     22954     22956     22958     22954     22956     22968     22957     22956     22958
     22957     22956     22968     22958     22956     22968     22951     22959     22960
     22951     22959     22961     22951     22959     22962     22960     22959     22961
     22960     22959     22962     22961     22959     22962     22959     22962     22963
     22962     22963     22964     22962     22963     22965     22964     22963     22965
     22963     22965     22966     22963     22965     22967     22963     22965     23015
     22966     22965     22967     22966     22965     23015     22967     22965     23015
     22956     22968     22969     22956     22968     22970     22956     22968     22971
     22969     22968     22970     22969     22968     22971     22970     22968     22971
     22968     22971     22972     22968     22971     22973     22968     22971     22974
     22972     22971     22973     22972     22971     22974     22973     22971     22974
     22971     22974     22975     22971     22974     22976     22971     22974     22977
     22975     22974     22976     22975     22974     22977     22976     22974     22977
     22974     22977     22978     22974     22977     22979     22974     22977     22980
     22978     22977     22979     22978     22977     22980     22979     22977     22980
     22977     22980     22981     22977     22980     22982     22977     22980     22983
     22981     22980     22982     22981     22980     22983     22982     22980     22983
     22980     22983     22984     22980     22983     22985     22980     22983     22986
     22984     22983     22985     22984     22983     22986     22985     22983     22986
     22983     22986     22987     22983     22986     22988     22987     22986     22988
     22986     22988     22989     22986     22988     22990     22989     22988     22990
     22988     22990     22991     22988     22990     22992     22988     22990     22993
     22991     22990     22992     22991     22990     22993     22992     22990     22993
     22990     22993     22994     22990     22993     22995     22990     22993     22996
     22994     22993     22995     22994     22993     22996     22995     22993     22996
     22993     22996     22997     22993     22996     22998     22993     22996     22999
     22997     22996     22998     22997     22996     22999     22998     22996     22999
     22996     22999     23000     22996     22999     23001     22996     22999     23002
     23000     22999     23001     23000     22999     23002     23001     22999     23002
     22999     23002     23003     22999     23002     23004     22999     23002     23005
     23003     23002     23004     23003     23002     23005     23004     23002     23005
     23002     23005     23006     23002     23005     23007     23002     23005     23008
     23006     23005     23007     23006     23005     23008     23007     23005     23008
     23005     23008     23009     23005     23008     23010     23005     23008     23011
     23009     23008     23010     23009     23008     23011     23010     23008     23011
     23008     23011     23012     23008     23011     23013     23008     23011     23014
     23012     23011     23013     23012     23011     23014     23013     23011     23014
     22965     23015     23016     22965     23015     23017     22965     23015     23018
     23016     23015     23017     23016     23015     23018     23017     23015     23018
     23015     23018     23019     23015     23018     23020     23015     23018     23021
     23019     23018     23020     23019     23018     23021     23020     23018     23021
     23018     23021     23022     23018     23021     23023     23018     23021     23024
     23022     23021     23023     23022     23021     23024     23023     23021     23024
     23021     23024     23025     23021     23024     23026     23021     23024     23027
     23025     23024     23026     23025     23024     23027     23026     23024     23027
     23024     23027     23028     23024     23027     23029     23024     23027     23030
     23028     23027     23029     23028     23027     23030     23029     23027     23030
     23027     23030     23031     23027     23030     23032     23027     23030     23033
     23031     23030     23032     23031     23030     23033     23032     23030     23033
     23030     23033     23034     23030     23033     23035     23030     23033     23036
     23034     23033     23035     23034     23033     23036     23035     23033     23036
     23033     23036     23037     23033     23036     23038     23033     23036     23039
     23037     23036     23038     23037     23036     23039     23038     23036     23039
     23036     23039     23040     23036     23039     23041     23036     23039     23042
     23040     23039     23041     23040     23039     23042     23041     23039     23042
     23039     23042     23043     23039     23042     23044     23039     23042     23045
     23043     23042     23044     23043     23042     23045     23044     23042     23045
     23042     23045     23046     23042     23045     23047     23042     23045     23048
     23046     23045     23047     23046     23045     23048     23047     23045     23048
     23045     23048     23049     23045     23048     23050     23045     23048     23051
     23049     23048     23050     23049     23048     23051     23050     23048     23051
     23048     23051     23052     23048     23051     23053     23048     23051     23054
     23052     23051     23053     23052     23051     23054     23053     23051     23054
     23051     23054     23055     23051     23054     23056     23051     23054     23057
     23055     23054     23056     23055     23054     23057     23056     23054     23057
     23059     23058     23062     23059     23058     23066     23059     23058     23070
     23062     23058     23066     23062     23058     23070     23066     23058     23070
     23058     23059     23060     23058     23059     23061     23058     23059     23074
     23060     23059     23061     23060     23059     23074     23061     23059     23074
     23058     23062     23063     23058     23062     23064     23058     23062     23065
     23063     23062     23064     23063     23062     23065     23064     23062     23065
     23058     23066     23067     23058     23066     23068     23058     23066     23069
     23067     23066     23068     23067     23066     23069     23068     23066     23069
     23058     23070     23071     23058     23070     23072     23058     23070     23073
     23071     23070     23072     23071     23070     23073     23072     23070     23073
     23059     23074     23075     23059     23074     23076     23059     23074     23080
     23075     23074     23076     23075     23074     23080     23076     23074     23080
     23078     23077     23079     23078     23077     23080     23078     23077     23081
     23079     23077     23080     23079     23077     23081     23080     23077     23081
     23074     23080     23077     23077     23081     23082     23081     23082     23083
     23081     23082     23084     23081     23082     23085     23083     23082     23084
     23083     23082     23085     23084     23082     23085     23082     23085     23086
     23082     23085     23087     23082     23085     23093     23086     23085     23087
     23086     23085     23093     23087     23085     23093     23085     23087     23088
     23087     23088     23089     23087     23088     23090     23089     23088     23090
     23088     23090     23091     23088     23090     23092     23088     23090     23102
     23091     23090     23092     23091     23090     23102     23092     23090     23102
     23085     23093     23094     23085     23093     23095     23085     23093     23096
     23094     23093     23095     23094     23093     23096     23095     23093     23096
     23093     23096     23097     23096     23097     23098     23096     23097     23099
     23098     23097     23099     23097     23099     23100     23097     23099     23101
     23097     23099     23149     23100     23099     23101     23100     23099     23149
     23101     23099     23149     23090     23102     23103     23090     23102     23104
     23090     23102     23105     23103     23102     23104     23103     23102     23105
     23104     23102     23105     23102     23105     23106     23102     23105     23107
     23102     23105     23108     23106     23105     23107     23106     23105     23108
     23107     23105     23108     23105     23108     23109     23105     23108     23110
     23105     23108     23111     23109     23108     23110     23109     23108     23111
     23110     23108     23111     23108     23111     23112     23108     23111     23113
     23108     23111     23114     23112     23111     23113     23112     23111     23114
     23113     23111     23114     23111     23114     23115     23111     23114     23116
     23111     23114     23117     23115     23114     23116     23115     23114     23117
     23116     23114     23117     23114     23117     23118     23114     23117     23119
     23114     23117     23120     23118     23117     23119     23118     23117     23120
     23119     23117     23120     23117     23120     23121     23117     23120     23122
     23121     23120     23122     23120     23122     23123     23120     23122     23124
     23123     23122     23124     23122     23124     23125     23122     23124     23126
     23122     23124     23127     23125     23124     23126     23125     23124     23127
     23126     23124     23127     23124     23127     23128     23124     23127     23129
     23124     23127     23130     23128     23127     23129     23128     23127     23130
     23129     23127     23130     23127     23130     23131     23127     23130     23132
     23127     23130     23133     23131     23130     23132     23131     23130     23133
     23132     23130     23133     23130     23133     23134     23130     23133     23135
     23130     23133     23136     23134     23133     23135     23134     23133     23136
     23135     23133     23136     23133     23136     23137     23133     23136     23138
     23133     23136     23139     23137     23136     23138     23137     23136     23139
     23138     23136     23139     23136     23139     23140     23136     23139     23141
     23136     23139     23142     23140     23139     23141     23140     23139     23142
     23141     23139     23142     23139     23142     23143     23139     23142     23144
     23139     23142     23145     23143     23142     23144     23143     23142     23145
     23144     23142     23145     23142     23145     23146     23142     23145     23147
     23142     23145     23148     23146     23145     23147     23146     23145     23148
     23147     23145     23148     23099     23149     23150     23099     23149     23151
     23099     23149     23152     23150     23149     23151     23150     23149     23152
     23151     23149     23152     23149     23152     23153     23149     23152     23154
     23149     23152     23155     23153     23152     23154     23153     23152     23155
     23154     23152     23155     23152     23155     23156     23152     23155     23157
     23152     23155     23158     23156     23155     23157     23156     23155     23158
     23157     23155     23158     23155     23158     23159     23155     23158     23160
     23155     23158     23161     23159     23158     23160     23159     23158     23161
     23160     23158     23161     23158     23161     23162     23158     23161     23163
     23158     23161     23164     23162     23161     23163     23162     23161     23164
     23163     23161     23164     23161     23164     23165     23161     23164     23166
     23161     23164     23167     23165     23164     23166     23165     23164     23167
     23166     23164     23167     23164     23167     23168     23164     23167     23169
     23164     23167     23170     23168     23167     23169     23168     23167     23170
     23169     23167     23170     23167     23170     23171     23167     23170     23172
     23167     23170     23173     23171     23170     23172     23171     23170     23173
     23172     23170     23173     23170     23173     23174     23170     23173     23175
     23170     23173     23176     23174     23173     23175     23174     23173     23176
     23175     23173     23176     23173     23176     23177     23173     23176     23178
     23173     23176     23179     23177     23176     23178     23177     23176     23179
     23178     23176     23179     23176     23179     23180     23176     23179     23181
     23176     23179     23182     23180     23179     23181     23180     23179     23182
     23181     23179     23182     23179     23182     23183     23179     23182     23184
     23179     23182     23185     23183     23182     23184     23183     23182     23185
     23184     23182     23185     23182     23185     23186     23182     23185     23187
     23182     23185     23188     23186     23185     23187     23186     23185     23188
     23187     23185     23188     23185     23188     23189     23185     23188     23190
     23185     23188     23191     23189     23188     23190     23189     23188     23191
     23190     23188     23191     23193     23192     23196     23193     23192     23200
     23193     23192     23204     23196     23192     23200     23196     23192     23204
     23200     23192     23204     23192     23193     23194     23192     23193     23195
     23192     23193     23208     23194     23193     23195     23194     23193     23208
     23195     23193     23208     23192     23196     23197     23192     23196     23198
     23192     23196     23199     23197     23196     23198     23197     23196     23199
     23198     23196     23199     23192     23200     23201     23192     23200     23202
     23192     23200     23203     23201     23200     23202     23201     23200     23203
     23202     23200     23203     23192     23204     23205     23192     23204     23206
     23192     23204     23207     23205     23204     23206     23205     23204     23207
     23206     23204     23207     23193     23208     23209     23193     23208     23210
     23193     23208     23214     23209     23208     23210     23209     23208     23214
     23210     23208     23214     23212     23211     23213     23212     23211     23214
     23212     23211     23215     23213     23211     23214     23213     23211     23215
     23214     23211     23215     23208     23214     23211     23211     23215     23216
     23215     23216     23217     23215     23216     23218     23215     23216     23219
     23217     23216     23218     23217     23216     23219     23218     23216     23219
     23216     23219     23220     23216     23219     23221     23216     23219     23227
     23220     23219     23221     23220     23219     23227     23221     23219     23227
     23219     23221     23222     23221     23222     23223     23221     23222     23224
     23223     23222     23224     23222     23224     23225     23222     23224     23226
     23222     23224     23236     23225     23224     23226     23225     23224     23236
     23226     23224     23236     23219     23227     23228     23219     23227     23229
     23219     23227     23230     23228     23227     23229     23228     23227     23230
     23229     23227     23230     23227     23230     23231     23230     23231     23232
     23230     23231     23233     23232     23231     23233     23231     23233     23234
     23231     23233     23235     23231     23233     23283     23234     23233     23235
     23234     23233     23283     23235     23233     23283     23224     23236     23237
     23224     23236     23238     23224     23236     23239     23237     23236     23238
     23237     23236     23239     23238     23236     23239     23236     23239     23240
     23236     23239     23241     23236     23239     23242     23240     23239     23241
     23240     23239     23242     23241     23239     23242     23239     23242     23243
     23239     23242     23244     23239     23242     23245     23243     23242     23244
     23243     23242     23245     23244     23242     23245     23242     23245     23246
     23242     23245     23247     23242     23245     23248     23246     23245     23247
     23246     23245     23248     23247     23245     23248     23245     23248     23249
     23245     23248     23250     23245     23248     23251     23249     23248     23250
     23249     23248     23251     23250     23248     23251     23248     23251     23252
     23248     23251     23253     23248     23251     23254     23252     23251     23253
     23252     23251     23254     23253     23251     23254     23251     23254     23255
     23251     23254     23256     23255     23254     23256     23254     23256     23257
     23254     23256     23258     23257     23256     23258     23256     23258     23259
     23256     23258     23260     23256     23258     23261     23259     23258     23260
     23259     23258     23261     23260     23258     23261     23258     23261     23262
     23258     23261     23263     23258     23261     23264     23262     23261     23263
     23262     23261     23264     23263     23261     23264     23261     23264     23265
     23261     23264     23266     23261     23264     23267     23265     23264     23266
     23265     23264     23267     23266     23264     23267     23264     23267     23268
     23264     23267     23269     23264     23267     23270     23268     23267     23269
     23268     23267     23270     23269     23267     23270     23267     23270     23271
     23267     23270     23272     23267     23270     23273     23271     23270     23272
     23271     23270     23273     23272     23270     23273     23270     23273     23274
     23270     23273     23275     23270     23273     23276     23274     23273     23275
     23274     23273     23276     23275     23273     23276     23273     23276     23277
     23273     23276     23278     23273     23276     23279     23277     23276     23278
     23277     23276     23279     23278     23276     23279     23276     23279     23280
     23276     23279     23281     23276     23279     23282     23280     23279     23281
     23280     23279     23282     23281     23279     23282     23233     23283     23284
     23233     23283     23285     23233     23283     23286     23284     23283     23285
     23284     23283     23286     23285     23283     23286     23283     23286     23287
     23283     23286     23288     23283     23286     23289     23287     23286     23288
     23287     23286     23289     23288     23286     23289     23286     23289     23290
     23286     23289     23291     23286     23289     23292     23290     23289     23291
     23290     23289     23292     23291     23289     23292     23289     23292     23293
     23289     23292     23294     23289     23292     23295     23293     23292     23294
     23293     23292     23295     23294     23292     23295     23292     23295     23296
     23292     23295     23297     23292     23295     23298     23296     23295     23297
     23296     23295     23298     23297     23295     23298     23295     23298     23299
     23295     23298     23300     23295     23298     23301     23299     23298     23300
     23299     23298     23301     23300     23298     23301     23298     23301     23302
     23298     23301     23303     23298     23301     23304     23302     23301     23303
     23302     23301     23304     23303     23301     23304     23301     23304     23305
     23301     23304     23306     23301     23304     23307     23305     23304     23306
     23305     23304     23307     23306     23304     23307     23304     23307     23308
     23304     23307     23309     23304     23307     23310     23308     23307     23309
     23308     23307     23310     23309     23307     23310     23307     23310     23311
     23307     23310     23312     23307     23310     23313     23311     23310     23312
     23311     23310     23313     23312     23310     23313     23310     23313     23314
     23310     23313     23315     23310     23313     23316     23314     23313     23315
     23314     23313     23316     23315     23313     23316     23313     23316     23317
     23313     23316     23318     23313     23316     23319     23317     23316     23318
     23317     23316     23319     23318     23316     23319     23316     23319     23320
     23316     23319     23321     23316     23319     23322     23320     23319     23321
     23320     23319     23322     23321     23319     23322     23319     23322     23323
     23319     23322     23324     23319     23322     23325     23323     23322     23324
     23323     23322     23325     23324     23322     23325     23327     23326     23328
     23327     23326     23329     23327     23326     23330     23328     23326     23329
     23328     23326     23330     23329     23326     23330     23326     23330     23331
     23326     23330     23332     23326     23330     23335     23331     23330     23332
     23331     23330     23335     23332     23330     23335     23330     23332     23333
     23330     23332     23334     23333     23332     23334     23330     23335     23336
     23330     23335     23337     23330     23335     23341     23336     23335     23337
     23336     23335     23341     23337     23335     23341     23339     23338     23340
     23339     23338     23341     23339     23338     23342     23340     23338     23341
     23340     23338     23342     23341     23338     23342     23335     23341     23338
     23338     23342     23343     23342     23343     23344     23342     23343     23345
     23342     23343     23346     23344     23343     23345     23344     23343     23346
     23345     23343     23346     23343     23346     23347     23343     23346     23348
     23343     23346     23354     23347     23346     23348     23347     23346     23354
     23348     23346     23354     23346     23348     23349     23348     23349     23350
     23348     23349     23351     23350     23349     23351     23349     23351     23352
     23349     23351     23353     23349     23351     23363     23352     23351     23353
     23352     23351     23363     23353     23351     23363     23346     23354     23355
     23346     23354     23356     23346     23354     23357     23355     23354     23356
     23355     23354     23357     23356     23354     23357     23354     23357     23358
     23357     23358     23359     23357     23358     23360     23359     23358     23360
     23358     23360     23361     23358     23360     23362     23358     23360     23410
     23361     23360     23362     23361     23360     23410     23362     23360     23410
     23351     23363     23364     23351     23363     23365     23351     23363     23366
     23364     23363     23365     23364     23363     23366     23365     23363     23366
     23363     23366     23367     23363     23366     23368     23363     23366     23369
     23367     23366     23368     23367     23366     23369     23368     23366     23369
     23366     23369     23370     23366     23369     23371     23366     23369     23372
     23370     23369     23371     23370     23369     23372     23371     23369     23372
     23369     23372     23373     23369     23372     23374     23369     23372     23375
     23373     23372     23374     23373     23372     23375     23374     23372     23375
     23372     23375     23376     23372     23375     23377     23372     23375     23378
     23376     23375     23377     23376     23375     23378     23377     23375     23378
     23375     23378     23379     23375     23378     23380     23375     23378     23381
     23379     23378     23380     23379     23378     23381     23380     23378     23381
     23378     23381     23382     23378     23381     23383     23382     23381     23383
     23381     23383     23384     23381     23383     23385     23384     23383     23385
     23383     23385     23386     23383     23385     23387     23383     23385     23388
     23386     23385     23387     23386     23385     23388     23387     23385     23388
     23385     23388     23389     23385     23388     23390     23385     23388     23391
     23389     23388     23390     23389     23388     23391     23390     23388     23391
     23388     23391     23392     23388     23391     23393     23388     23391     23394
     23392     23391     23393     23392     23391     23394     23393     23391     23394
     23391     23394     23395     23391     23394     23396     23391     23394     23397
     23395     23394     23396     23395     23394     23397     23396     23394     23397
     23394     23397     23398     23394     23397     23399     23394     23397     23400
     23398     23397     23399     23398     23397     23400     23399     23397     23400
     23397     23400     23401     23397     23400     23402     23397     23400     23403
     23401     23400     23402     23401     23400     23403     23402     23400     23403
     23400     23403     23404     23400     23403     23405     23400     23403     23406
     23404     23403     23405     23404     23403     23406     23405     23403     23406
     23403     23406     23407     23403     23406     23408     23403     23406     23409
     23407     23406     23408     23407     23406     23409     23408     23406     23409
     23360     23410     23411     23360     23410     23412     23360     23410     23413
     23411     23410     23412     23411     23410     23413     23412     23410     23413
     23410     23413     23414     23410     23413     23415     23410     23413     23416
     23414     23413     23415     23414     23413     23416     23415     23413     23416
     23413     23416     23417     23413     23416     23418     23413     23416     23419
     23417     23416     23418     23417     23416     23419     23418     23416     23419
     23416     23419     23420     23416     23419     23421     23416     23419     23422
     23420     23419     23421     23420     23419     23422     23421     23419     23422
     23419     23422     23423     23419     23422     23424     23419     23422     23425
     23423     23422     23424     23423     23422     23425     23424     23422     23425
     23422     23425     23426     23422     23425     23427     23422     23425     23428
     23426     23425     23427     23426     23425     23428     23427     23425     23428
     23425     23428     23429     23425     23428     23430     23425     23428     23431
     23429     23428     23430     23429     23428     23431     23430     23428     23431
     23428     23431     23432     23428     23431     23433     23428     23431     23434
     23432     23431     23433     23432     23431     23434     23433     23431     23434
     23431     23434     23435     23431     23434     23436     23431     23434     23437
     23435     23434     23436     23435     23434     23437     23436     23434     23437
     23434     23437     23438     23434     23437     23439     23434     23437     23440
     23438     23437     23439     23438     23437     23440     23439     23437     23440
     23437     23440     23441     23437     23440     23442     23437     23440     23443
     23441     23440     23442     23441     23440     23443     23442     23440     23443
     23440     23443     23444     23440     23443     23445     23440     23443     23446
     23444     23443     23445     23444     23443     23446     23445     23443     23446
     23443     23446     23447     23443     23446     23448     23443     23446     23449
     23447     23446     23448     23447     23446     23449     23448     23446     23449
     23446     23449     23450     23446     23449     23451     23446     23449     23452
     23450     23449     23451     23450     23449     23452     23451     23449     23452
     23454     23453     23457     23454     23453     23461     23454     23453     23465
     23457     23453     23461     23457     23453     23465     23461     23453     23465
     23453     23454     23455     23453     23454     23456     23453     23454     23469
     23455     23454     23456     23455     23454     23469     23456     23454     23469
     23453     23457     23458     23453     23457     23459     23453     23457     23460
     23458     23457     23459     23458     23457     23460     23459     23457     23460
     23453     23461     23462     23453     23461     23463     23453     23461     23464
     23462     23461     23463     23462     23461     23464     23463     23461     23464
     23453     23465     23466     23453     23465     23467     23453     23465     23468
     23466     23465     23467     23466     23465     23468     23467     23465     23468
     23454     23469     23470     23454     23469     23471     23454     23469     23475
     23470     23469     23471     23470     23469     23475     23471     23469     23475
     23473     23472     23474     23473     23472     23475     23473     23472     23476
     23474     23472     23475     23474     23472     23476     23475     23472     23476
     23469     23475     23472     23472     23476     23477     23476     23477     23478
     23476     23477     23479     23476     23477     23480     23478     23477     23479
     23478     23477     23480     23479     23477     23480     23477     23480     23481
     23477     23480     23482     23477     23480     23488     23481     23480     23482
     23481     23480     23488     23482     23480     23488     23480     23482     23483
     23482     23483     23484     23482     23483     23485     23484     23483     23485
     23483     23485     23486     23483     23485     23487     23483     23485     23497
     23486     23485     23487     23486     23485     23497     23487     23485     23497
     23480     23488     23489     23480     23488     23490     23480     23488     23491
     23489     23488     23490     23489     23488     23491     23490     23488     23491
     23488     23491     23492     23491     23492     23493     23491     23492     23494
     23493     23492     23494     23492     23494     23495     23492     23494     23496
     23492     23494     23544     23495     23494     23496     23495     23494     23544
     23496     23494     23544     23485     23497     23498     23485     23497     23499
     23485     23497     23500     23498     23497     23499     23498     23497     23500
     23499     23497     23500     23497     23500     23501     23497     23500     23502
     23497     23500     23503     23501     23500     23502     23501     23500     23503
     23502     23500     23503     23500     23503     23504     23500     23503     23505
     23500     23503     23506     23504     23503     23505     23504     23503     23506
     23505     23503     23506     23503     23506     23507     23503     23506     23508
     23503     23506     23509     23507     23506     23508     23507     23506     23509
     23508     23506     23509     23506     23509     23510     23506     23509     23511
     23506     23509     23512     23510     23509     23511     23510     23509     23512
     23511     23509     23512     23509     23512     23513     23509     23512     23514
     23509     23512     23515     23513     23512     23514     23513     23512     23515
     23514     23512     23515     23512     23515     23516     23512     23515     23517
     23516     23515     23517     23515     23517     23518     23515     23517     23519
     23518     23517     23519     23517     23519     23520     23517     23519     23521
     23517     23519     23522     23520     23519     23521     23520     23519     23522
     23521     23519     23522     23519     23522     23523     23519     23522     23524
     23519     23522     23525     23523     23522     23524     23523     23522     23525
     23524     23522     23525     23522     23525     23526     23522     23525     23527
     23522     23525     23528     23526     23525     23527     23526     23525     23528
     23527     23525     23528     23525     23528     23529     23525     23528     23530
     23525     23528     23531     23529     23528     23530     23529     23528     23531
     23530     23528     23531     23528     23531     23532     23528     23531     23533
     23528     23531     23534     23532     23531     23533     23532     23531     23534
     23533     23531     23534     23531     23534     23535     23531     23534     23536
     23531     23534     23537     23535     23534     23536     23535     23534     23537
     23536     23534     23537     23534     23537     23538     23534     23537     23539
     23534     23537     23540     23538     23537     23539     23538     23537     23540
     23539     23537     23540     23537     23540     23541     23537     23540     23542
     23537     23540     23543     23541     23540     23542     23541     23540     23543
     23542     23540     23543     23494     23544     23545     23494     23544     23546
     23494     23544     23547     23545     23544     23546     23545     23544     23547
     23546     23544     23547     23544     23547     23548     23544     23547     23549
     23544     23547     23550     23548     23547     23549     23548     23547     23550
     23549     23547     23550     23547     23550     23551     23547     23550     23552
     23547     23550     23553     23551     23550     23552     23551     23550     23553
     23552     23550     23553     23550     23553     23554     23550     23553     23555
     23550     23553     23556     23554     23553     23555     23554     23553     23556
     23555     23553     23556     23553     23556     23557     23553     23556     23558
     23553     23556     23559     23557     23556     23558     23557     23556     23559
     23558     23556     23559     23556     23559     23560     23556     23559     23561
     23556     23559     23562     23560     23559     23561     23560     23559     23562
     23561     23559     23562     23559     23562     23563     23559     23562     23564
     23559     23562     23565     23563     23562     23564     23563     23562     23565
     23564     23562     23565     23562     23565     23566     23562     23565     23567
     23562     23565     23568     23566     23565     23567     23566     23565     23568
     23567     23565     23568     23565     23568     23569     23565     23568     23570
     23565     23568     23571     23569     23568     23570     23569     23568     23571
     23570     23568     23571     23568     23571     23572     23568     23571     23573
     23568     23571     23574     23572     23571     23573     23572     23571     23574
     23573     23571     23574     23571     23574     23575     23571     23574     23576
     23571     23574     23577     23575     23574     23576     23575     23574     23577
     23576     23574     23577     23574     23577     23578     23574     23577     23579
     23574     23577     23580     23578     23577     23579     23578     23577     23580
     23579     23577     23580     23577     23580     23581     23577     23580     23582
     23577     23580     23583     23581     23580     23582     23581     23580     23583
     23582     23580     23583     23580     23583     23584     23580     23583     23585
     23580     23583     23586     23584     23583     23585     23584     23583     23586
     23585     23583     23586     23588     23587     23591     23588     23587     23595
     23588     23587     23599     23591     23587     23595     23591     23587     23599
     23595     23587     23599     23587     23588     23589     23587     23588     23590
     23587     23588     23603     23589     23588     23590     23589     23588     23603
     23590     23588     23603     23587     23591     23592     23587     23591     23593
     23587     23591     23594     23592     23591     23593     23592     23591     23594
     23593     23591     23594     23587     23595     23596     23587     23595     23597
     23587     23595     23598     23596     23595     23597     23596     23595     23598
     23597     23595     23598     23587     23599     23600     23587     23599     23601
     23587     23599     23602     23600     23599     23601     23600     23599     23602
     23601     23599     23602     23588     23603     23604     23588     23603     23605
     23588     23603     23609     23604     23603     23605     23604     23603     23609
     23605     23603     23609     23607     23606     23608     23607     23606     23609
     23607     23606     23610     23608     23606     23609     23608     23606     23610
     23609     23606     23610     23603     23609     23606     23606     23610     23611
     23610     23611     23612     23610     23611     23613     23610     23611     23614
     23612     23611     23613     23612     23611     23614     23613     23611     23614
     23611     23614     23615     23611     23614     23616     23611     23614     23622
     23615     23614     23616     23615     23614     23622     23616     23614     23622
     23614     23616     23617     23616     23617     23618     23616     23617     23619
     23618     23617     23619     23617     23619     23620     23617     23619     23621
     23617     23619     23631     23620     23619     23621     23620     23619     23631
     23621     23619     23631     23614     23622     23623     23614     23622     23624
     23614     23622     23625     23623     23622     23624     23623     23622     23625
     23624     23622     23625     23622     23625     23626     23625     23626     23627
     23625     23626     23628     23627     23626     23628     23626     23628     23629
     23626     23628     23630     23626     23628     23678     23629     23628     23630
     23629     23628     23678     23630     23628     23678     23619     23631     23632
     23619     23631     23633     23619     23631     23634     23632     23631     23633
     23632     23631     23634     23633     23631     23634     23631     23634     23635
     23631     23634     23636     23631     23634     23637     23635     23634     23636
     23635     23634     23637     23636     23634     23637     23634     23637     23638
     23634     23637     23639     23634     23637     23640     23638     23637     23639
     23638     23637     23640     23639     23637     23640     23637     23640     23641
     23637     23640     23642     23637     23640     23643     23641     23640     23642
     23641     23640     23643     23642     23640     23643     23640     23643     23644
     23640     23643     23645     23640     23643     23646     23644     23643     23645
     23644     23643     23646     23645     23643     23646     23643     23646     23647
     23643     23646     23648     23643     23646     23649     23647     23646     23648
     23647     23646     23649     23648     23646     23649     23646     23649     23650
     23646     23649     23651     23650     23649     23651     23649     23651     23652
     23649     23651     23653     23652     23651     23653     23651     23653     23654
     23651     23653     23655     23651     23653     23656     23654     23653     23655
     23654     23653     23656     23655     23653     23656     23653     23656     23657
     23653     23656     23658     23653     23656     23659     23657     23656     23658
     23657     23656     23659     23658     23656     23659     23656     23659     23660
     23656     23659     23661     23656     23659     23662     23660     23659     23661
     23660     23659     23662     23661     23659     23662     23659     23662     23663
     23659     23662     23664     23659     23662     23665     23663     23662     23664
     23663     23662     23665     23664     23662     23665     23662     23665     23666
     23662     23665     23667     23662     23665     23668     23666     23665     23667
     23666     23665     23668     23667     23665     23668     23665     23668     23669
     23665     23668     23670     23665     23668     23671     23669     23668     23670
     23669     23668     23671     23670     23668     23671     23668     23671     23672
     23668     23671     23673     23668     23671     23674     23672     23671     23673
     23672     23671     23674     23673     23671     23674     23671     23674     23675
     23671     23674     23676     23671     23674     23677     23675     23674     23676
     23675     23674     23677     23676     23674     23677     23628     23678     23679
     23628     23678     23680     23628     23678     23681     23679     23678     23680
     23679     23678     23681     23680     23678     23681     23678     23681     23682
     23678     23681     23683     23678     23681     23684     23682     23681     23683
     23682     23681     23684     23683     23681     23684     23681     23684     23685
     23681     23684     23686     23681     23684     23687     23685     23684     23686
     23685     23684     23687     23686     23684     23687     23684     23687     23688
     23684     23687     23689     23684     23687     23690     23688     23687     23689
     23688     23687     23690     23689     23687     23690     23687     23690     23691
     23687     23690     23692     23687     23690     23693     23691     23690     23692
     23691     23690     23693     23692     23690     23693     23690     23693     23694
     23690     23693     23695     23690     23693     23696     23694     23693     23695
     23694     23693     23696     23695     23693     23696     23693     23696     23697
     23693     23696     23698     23693     23696     23699     23697     23696     23698
     23697     23696     23699     23698     23696     23699     23696     23699     23700
     23696     23699     23701     23696     23699     23702     23700     23699     23701
     23700     23699     23702     23701     23699     23702     23699     23702     23703
     23699     23702     23704     23699     23702     23705     23703     23702     23704
     23703     23702     23705     23704     23702     23705     23702     23705     23706
     23702     23705     23707     23702     23705     23708     23706     23705     23707
     23706     23705     23708     23707     23705     23708     23705     23708     23709
     23705     23708     23710     23705     23708     23711     23709     23708     23710
     23709     23708     23711     23710     23708     23711     23708     23711     23712
     23708     23711     23713     23708     23711     23714     23712     23711     23713
     23712     23711     23714     23713     23711     23714     23711     23714     23715
     23711     23714     23716     23711     23714     23717     23715     23714     23716
     23715     23714     23717     23716     23714     23717     23714     23717     23718
     23714     23717     23719     23714     23717     23720     23718     23717     23719
     23718     23717     23720     23719     23717     23720     23722     23721     23725
     23722     23721     23729     23722     23721     23733     23725     23721     23729
     23725     23721     23733     23729     23721     23733     23721     23722     23723
     23721     23722     23724     23721     23722     23737     23723     23722     23724
     23723     23722     23737     23724     23722     23737     23721     23725     23726
     23721     23725     23727     23721     23725     23728     23726     23725     23727
     23726     23725     23728     23727     23725     23728     23721     23729     23730
     23721     23729     23731     23721     23729     23732     23730     23729     23731
     23730     23729     23732     23731     23729     23732     23721     23733     23734
     23721     23733     23735     23721     23733     23736     23734     23733     23735
     23734     23733     23736     23735     23733     23736     23722     23737     23738
     23722     23737     23739     23722     23737     23743     23738     23737     23739
     23738     23737     23743     23739     23737     23743     23741     23740     23742
     23741     23740     23743     23741     23740     23744     23742     23740     23743
     23742     23740     23744     23743     23740     23744     23737     23743     23740
     23740     23744     23745     23744     23745     23746     23744     23745     23747
     23744     23745     23748     23746     23745     23747     23746     23745     23748
     23747     23745     23748     23745     23748     23749     23745     23748     23750
     23745     23748     23756     23749     23748     23750     23749     23748     23756
     23750     23748     23756     23748     23750     23751     23750     23751     23752
     23750     23751     23753     23752     23751     23753     23751     23753     23754
     23751     23753     23755     23751     23753     23765     23754     23753     23755
     23754     23753     23765     23755     23753     23765     23748     23756     23757
     23748     23756     23758     23748     23756     23759     23757     23756     23758
     23757     23756     23759     23758     23756     23759     23756     23759     23760
     23759     23760     23761     23759     23760     23762     23761     23760     23762
     23760     23762     23763     23760     23762     23764     23760     23762     23812
     23763     23762     23764     23763     23762     23812     23764     23762     23812
     23753     23765     23766     23753     23765     23767     23753     23765     23768
     23766     23765     23767     23766     23765     23768     23767     23765     23768
     23765     23768     23769     23765     23768     23770     23765     23768     23771
     23769     23768     23770     23769     23768     23771     23770     23768     23771
     23768     23771     23772     23768     23771     23773     23768     23771     23774
     23772     23771     23773     23772     23771     23774     23773     23771     23774
     23771     23774     23775     23771     23774     23776     23771     23774     23777
     23775     23774     23776     23775     23774     23777     23776     23774     23777
     23774     23777     23778     23774     23777     23779     23774     23777     23780
     23778     23777     23779     23778     23777     23780     23779     23777     23780
     23777     23780     23781     23777     23780     23782     23777     23780     23783
     23781     23780     23782     23781     23780     23783     23782     23780     23783
     23780     23783     23784     23780     23783     23785     23784     23783     23785
     23783     23785     23786     23783     23785     23787     23786     23785     23787
     23785     23787     23788     23785     23787     23789     23785     23787     23790
     23788     23787     23789     23788     23787     23790     23789     23787     23790
     23787     23790     23791     23787     23790     23792     23787     23790     23793
     23791     23790     23792     23791     23790     23793     23792     23790     23793
     23790     23793     23794     23790     23793     23795     23790     23793     23796
     23794     23793     23795     23794     23793     23796     23795     23793     23796
     23793     23796     23797     23793     23796     23798     23793     23796     23799
     23797     23796     23798     23797     23796     23799     23798     23796     23799
     23796     23799     23800     23796     23799     23801     23796     23799     23802
     23800     23799     23801     23800     23799     23802     23801     23799     23802
     23799     23802     23803     23799     23802     23804     23799     23802     23805
     23803     23802     23804     23803     23802     23805     23804     23802     23805
     23802     23805     23806     23802     23805     23807     23802     23805     23808
     23806     23805     23807     23806     23805     23808     23807     23805     23808
     23805     23808     23809     23805     23808     23810     23805     23808     23811
     23809     23808     23810     23809     23808     23811     23810     23808     23811
     23762     23812     23813     23762     23812     23814     23762     23812     23815
     23813     23812     23814     23813     23812     23815     23814     23812     23815
     23812     23815     23816     23812     23815     23817     23812     23815     23818
     23816     23815     23817     23816     23815     23818     23817     23815     23818
     23815     23818     23819     23815     23818     23820     23815     23818     23821
     23819     23818     23820     23819     23818     23821     23820     23818     23821
     23818     23821     23822     23818     23821     23823     23818     23821     23824
     23822     23821     23823     23822     23821     23824     23823     23821     23824
     23821     23824     23825     23821     23824     23826     23821     23824     23827
     23825     23824     23826     23825     23824     23827     23826     23824     23827
     23824     23827     23828     23824     23827     23829     23824     23827     23830
     23828     23827     23829     23828     23827     23830     23829     23827     23830
     23827     23830     23831     23827     23830     23832     23827     23830     23833
     23831     23830     23832     23831     23830     23833     23832     23830     23833
     23830     23833     23834     23830     23833     23835     23830     23833     23836
     23834     23833     23835     23834     23833     23836     23835     23833     23836
     23833     23836     23837     23833     23836     23838     23833     23836     23839
     23837     23836     23838     23837     23836     23839     23838     23836     23839
     23836     23839     23840     23836     23839     23841     23836     23839     23842
     23840     23839     23841     23840     23839     23842     23841     23839     23842
     23839     23842     23843     23839     23842     23844     23839     23842     23845
     23843     23842     23844     23843     23842     23845     23844     23842     23845
     23842     23845     23846     23842     23845     23847     23842     23845     23848
     23846     23845     23847     23846     23845     23848     23847     23845     23848
     23845     23848     23849     23845     23848     23850     23845     23848     23851
     23849     23848     23850     23849     23848     23851     23850     23848     23851
     23848     23851     23852     23848     23851     23853     23848     23851     23854
     23852     23851     23853     23852     23851     23854     23853     23851     23854
     23856     23855     23859     23856     23855     23863     23856     23855     23867
     23859     23855     23863     23859     23855     23867     23863     23855     23867
     23855     23856     23857     23855     23856     23858     23855     23856     23871
     23857     23856     23858     23857     23856     23871     23858     23856     23871
     23855     23859     23860     23855     23859     23861     23855     23859     23862
     23860     23859     23861     23860     23859     23862     23861     23859     23862
     23855     23863     23864     23855     23863     23865     23855     23863     23866
     23864     23863     23865     23864     23863     23866     23865     23863     23866
     23855     23867     23868     23855     23867     23869     23855     23867     23870
     23868     23867     23869     23868     23867     23870     23869     23867     23870
     23856     23871     23872     23856     23871     23873     23856     23871     23877
     23872     23871     23873     23872     23871     23877     23873     23871     23877
     23875     23874     23876     23875     23874     23877     23875     23874     23878
     23876     23874     23877     23876     23874     23878     23877     23874     23878
     23871     23877     23874     23874     23878     23879     23878     23879     23880
     23878     23879     23881     23878     23879     23882     23880     23879     23881
     23880     23879     23882     23881     23879     23882     23879     23882     23883
     23879     23882     23884     23879     23882     23890     23883     23882     23884
     23883     23882     23890     23884     23882     23890     23882     23884     23885
     23884     23885     23886     23884     23885     23887     23886     23885     23887
     23885     23887     23888     23885     23887     23889     23885     23887     23899
     23888     23887     23889     23888     23887     23899     23889     23887     23899
     23882     23890     23891     23882     23890     23892     23882     23890     23893
     23891     23890     23892     23891     23890     23893     23892     23890     23893
     23890     23893     23894     23893     23894     23895     23893     23894     23896
     23895     23894     23896     23894     23896     23897     23894     23896     23898
     23894     23896     23946     23897     23896     23898     23897     23896     23946
     23898     23896     23946     23887     23899     23900     23887     23899     23901
     23887     23899     23902     23900     23899     23901     23900     23899     23902
     23901     23899     23902     23899     23902     23903     23899     23902     23904
     23899     23902     23905     23903     23902     23904     23903     23902     23905
     23904     23902     23905     23902     23905     23906     23902     23905     23907
     23902     23905     23908     23906     23905     23907     23906     23905     23908
     23907     23905     23908     23905     23908     23909     23905     23908     23910
     23905     23908     23911     23909     23908     23910     23909     23908     23911
     23910     23908     23911     23908     23911     23912     23908     23911     23913
     23908     23911     23914     23912     23911     23913     23912     23911     23914
     23913     23911     23914     23911     23914     23915     23911     23914     23916
     23911     23914     23917     23915     23914     23916     23915     23914     23917
     23916     23914     23917     23914     23917     23918     23914     23917     23919
     23918     23917     23919     23917     23919     23920     23917     23919     23921
     23920     23919     23921     23919     23921     23922     23919     23921     23923
     23919     23921     23924     23922     23921     23923     23922     23921     23924
     23923     23921     23924     23921     23924     23925     23921     23924     23926
     23921     23924     23927     23925     23924     23926     23925     23924     23927
     23926     23924     23927     23924     23927     23928     23924     23927     23929
     23924     23927     23930     23928     23927     23929     23928     23927     23930
     23929     23927     23930     23927     23930     23931     23927     23930     23932
     23927     23930     23933     23931     23930     23932     23931     23930     23933
     23932     23930     23933     23930     23933     23934     23930     23933     23935
     23930     23933     23936     23934     23933     23935     23934     23933     23936
     23935     23933     23936     23933     23936     23937     23933     23936     23938
     23933     23936     23939     23937     23936     23938     23937     23936     23939
     23938     23936     23939     23936     23939     23940     23936     23939     23941
     23936     23939     23942     23940     23939     23941     23940     23939     23942
     23941     23939     23942     23939     23942     23943     23939     23942     23944
     23939     23942     23945     23943     23942     23944     23943     23942     23945
     23944     23942     23945     23896     23946     23947     23896     23946     23948
     23896     23946     23949     23947     23946     23948     23947     23946     23949
     23948     23946     23949     23946     23949     23950     23946     23949     23951
     23946     23949     23952     23950     23949     23951     23950     23949     23952
     23951     23949     23952     23949     23952     23953     23949     23952     23954
     23949     23952     23955     23953     23952     23954     23953     23952     23955
     23954     23952     23955     23952     23955     23956     23952     23955     23957
     23952     23955     23958     23956     23955     23957     23956     23955     23958
     23957     23955     23958     23955     23958     23959     23955     23958     23960
     23955     23958     23961     23959     23958     23960     23959     23958     23961
     23960     23958     23961     23958     23961     23962     23958     23961     23963
     23958     23961     23964     23962     23961     23963     23962     23961     23964
     23963     23961     23964     23961     23964     23965     23961     23964     23966
     23961     23964     23967     23965     23964     23966     23965     23964     23967
     23966     23964     23967     23964     23967     23968     23964     23967     23969
     23964     23967     23970     23968     23967     23969     23968     23967     23970
     23969     23967     23970     23967     23970     23971     23967     23970     23972
     23967     23970     23973     23971     23970     23972     23971     23970     23973
     23972     23970     23973     23970     23973     23974     23970     23973     23975
     23970     23973     23976     23974     23973     23975     23974     23973     23976
     23975     23973     23976     23973     23976     23977     23973     23976     23978
     23973     23976     23979     23977     23976     23978     23977     23976     23979
     23978     23976     23979     23976     23979     23980     23976     23979     23981
     23976     23979     23982     23980     23979     23981     23980     23979     23982
     23981     23979     23982     23979     23982     23983     23979     23982     23984
     23979     23982     23985     23983     23982     23984     23983     23982     23985
     23984     23982     23985     23982     23985     23986     23982     23985     23987
     23982     23985     23988     23986     23985     23987     23986     23985     23988
     23987     23985     23988     23990     23989     23993     23990     23989     23997
     23990     23989     24001     23993     23989     23997     23993     23989     24001
     23997     23989     24001     23989     23990     23991     23989     23990     23992
     23989     23990     24005     23991     23990     23992     23991     23990     24005
     23992     23990     24005     23989     23993     23994     23989     23993     23995
     23989     23993     23996     23994     23993     23995     23994     23993     23996
     23995     23993     23996     23989     23997     23998     23989     23997     23999
     23989     23997     24000     23998     23997     23999     23998     23997     24000
     23999     23997     24000     23989     24001     24002     23989     24001     24003
     23989     24001     24004     24002     24001     24003     24002     24001     24004
     24003     24001     24004     23990     24005     24006     23990     24005     24007
     23990     24005     24011     24006     24005     24007     24006     24005     24011
     24007     24005     24011     24009     24008     24010     24009     24008     24011
     24009     24008     24012     24010     24008     24011     24010     24008     24012
     24011     24008     24012     24005     24011     24008     24008     24012     24013
     24012     24013     24014     24012     24013     24015     24012     24013     24016
     24014     24013     24015     24014     24013     24016     24015     24013     24016
     24013     24016     24017     24013     24016     24018     24013     24016     24024
     24017     24016     24018     24017     24016     24024     24018     24016     24024
     24016     24018     24019     24018     24019     24020     24018     24019     24021
     24020     24019     24021     24019     24021     24022     24019     24021     24023
     24019     24021     24033     24022     24021     24023     24022     24021     24033
     24023     24021     24033     24016     24024     24025     24016     24024     24026
     24016     24024     24027     24025     24024     24026     24025     24024     24027
     24026     24024     24027     24024     24027     24028     24027     24028     24029
     24027     24028     24030     24029     24028     24030     24028     24030     24031
     24028     24030     24032     24028     24030     24080     24031     24030     24032
     24031     24030     24080     24032     24030     24080     24021     24033     24034
     24021     24033     24035     24021     24033     24036     24034     24033     24035
     24034     24033     24036     24035     24033     24036     24033     24036     24037
     24033     24036     24038     24033     24036     24039     24037     24036     24038
     24037     24036     24039     24038     24036     24039     24036     24039     24040
     24036     24039     24041     24036     24039     24042     24040     24039     24041
     24040     24039     24042     24041     24039     24042     24039     24042     24043
     24039     24042     24044     24039     24042     24045     24043     24042     24044
     24043     24042     24045     24044     24042     24045     24042     24045     24046
     24042     24045     24047     24042     24045     24048     24046     24045     24047
     24046     24045     24048     24047     24045     24048     24045     24048     24049
     24045     24048     24050     24045     24048     24051     24049     24048     24050
     24049     24048     24051     24050     24048     24051     24048     24051     24052
     24048     24051     24053     24052     24051     24053     24051     24053     24054
     24051     24053     24055     24054     24053     24055     24053     24055     24056
     24053     24055     24057     24053     24055     24058     24056     24055     24057
     24056     24055     24058     24057     24055     24058     24055     24058     24059
     24055     24058     24060     24055     24058     24061     24059     24058     24060
     24059     24058     24061     24060     24058     24061     24058     24061     24062
     24058     24061     24063     24058     24061     24064     24062     24061     24063
     24062     24061     24064     24063     24061     24064     24061     24064     24065
     24061     24064     24066     24061     24064     24067     24065     24064     24066
     24065     24064     24067     24066     24064     24067     24064     24067     24068
     24064     24067     24069     24064     24067     24070     24068     24067     24069
     24068     24067     24070     24069     24067     24070     24067     24070     24071
     24067     24070     24072     24067     24070     24073     24071     24070     24072
     24071     24070     24073     24072     24070     24073     24070     24073     24074
     24070     24073     24075     24070     24073     24076     24074     24073     24075
     24074     24073     24076     24075     24073     24076     24073     24076     24077
     24073     24076     24078     24073     24076     24079     24077     24076     24078
     24077     24076     24079     24078     24076     24079     24030     24080     24081
     24030     24080     24082     24030     24080     24083     24081     24080     24082
     24081     24080     24083     24082     24080     24083     24080     24083     24084
     24080     24083     24085     24080     24083     24086     24084     24083     24085
     24084     24083     24086     24085     24083     24086     24083     24086     24087
     24083     24086     24088     24083     24086     24089     24087     24086     24088
     24087     24086     24089     24088     24086     24089     24086     24089     24090
     24086     24089     24091     24086     24089     24092     24090     24089     24091
     24090     24089     24092     24091     24089     24092     24089     24092     24093
     24089     24092     24094     24089     24092     24095     24093     24092     24094
     24093     24092     24095     24094     24092     24095     24092     24095     24096
     24092     24095     24097     24092     24095     24098     24096     24095     24097
     24096     24095     24098     24097     24095     24098     24095     24098     24099
     24095     24098     24100     24095     24098     24101     24099     24098     24100
     24099     24098     24101     24100     24098     24101     24098     24101     24102
     24098     24101     24103     24098     24101     24104     24102     24101     24103
     24102     24101     24104     24103     24101     24104     24101     24104     24105
     24101     24104     24106     24101     24104     24107     24105     24104     24106
     24105     24104     24107     24106     24104     24107     24104     24107     24108
     24104     24107     24109     24104     24107     24110     24108     24107     24109
     24108     24107     24110     24109     24107     24110     24107     24110     24111
     24107     24110     24112     24107     24110     24113     24111     24110     24112
     24111     24110     24113     24112     24110     24113     24110     24113     24114
     24110     24113     24115     24110     24113     24116     24114     24113     24115
     24114     24113     24116     24115     24113     24116     24113     24116     24117
     24113     24116     24118     24113     24116     24119     24117     24116     24118
     24117     24116     24119     24118     24116     24119     24116     24119     24120
     24116     24119     24121     24116     24119     24122     24120     24119     24121
     24120     24119     24122     24121     24119     24122     24124     24123     24127
     24124     24123     24131     24124     24123     24135     24127     24123     24131
     24127     24123     24135     24131     24123     24135     24123     24124     24125
     24123     24124     24126     24123     24124     24139     24125     24124     24126
     24125     24124     24139     24126     24124     24139     24123     24127     24128
     24123     24127     24129     24123     24127     24130     24128     24127     24129
     24128     24127     24130     24129     24127     24130     24123     24131     24132
     24123     24131     24133     24123     24131     24134     24132     24131     24133
     24132     24131     24134     24133     24131     24134     24123     24135     24136
     24123     24135     24137     24123     24135     24138     24136     24135     24137
     24136     24135     24138     24137     24135     24138     24124     24139     24140
     24124     24139     24141     24124     24139     24145     24140     24139     24141
     24140     24139     24145     24141     24139     24145     24143     24142     24144
     24143     24142     24145     24143     24142     24146     24144     24142     24145
     24144     24142     24146     24145     24142     24146     24139     24145     24142
     24142     24146     24147     24146     24147     24148     24146     24147     24149
     24146     24147     24150     24148     24147     24149     24148     24147     24150
     24149     24147     24150     24147     24150     24151     24147     24150     24152
     24147     24150     24158     24151     24150     24152     24151     24150     24158
     24152     24150     24158     24150     24152     24153     24152     24153     24154
     24152     24153     24155     24154     24153     24155     24153     24155     24156
     24153     24155     24157     24153     24155     24167     24156     24155     24157
     24156     24155     24167     24157     24155     24167     24150     24158     24159
     24150     24158     24160     24150     24158     24161     24159     24158     24160
     24159     24158     24161     24160     24158     24161     24158     24161     24162
     24161     24162     24163     24161     24162     24164     24163     24162     24164
     24162     24164     24165     24162     24164     24166     24162     24164     24214
     24165     24164     24166     24165     24164     24214     24166     24164     24214
     24155     24167     24168     24155     24167     24169     24155     24167     24170
     24168     24167     24169     24168     24167     24170     24169     24167     24170
     24167     24170     24171     24167     24170     24172     24167     24170     24173
     24171     24170     24172     24171     24170     24173     24172     24170     24173
     24170     24173     24174     24170     24173     24175     24170     24173     24176
     24174     24173     24175     24174     24173     24176     24175     24173     24176
     24173     24176     24177     24173     24176     24178     24173     24176     24179
     24177     24176     24178     24177     24176     24179     24178     24176     24179
     24176     24179     24180     24176     24179     24181     24176     24179     24182
     24180     24179     24181     24180     24179     24182     24181     24179     24182
     24179     24182     24183     24179     24182     24184     24179     24182     24185
     24183     24182     24184     24183     24182     24185     24184     24182     24185
     24182     24185     24186     24182     24185     24187     24186     24185     24187
     24185     24187     24188     24185     24187     24189     24188     24187     24189
     24187     24189     24190     24187     24189     24191     24187     24189     24192
     24190     24189     24191     24190     24189     24192     24191     24189     24192
     24189     24192     24193     24189     24192     24194     24189     24192     24195
     24193     24192     24194     24193     24192     24195     24194     24192     24195
     24192     24195     24196     24192     24195     24197     24192     24195     24198
     24196     24195     24197     24196     24195     24198     24197     24195     24198
     24195     24198     24199     24195     24198     24200     24195     24198     24201
     24199     24198     24200     24199     24198     24201     24200     24198     24201
     24198     24201     24202     24198     24201     24203     24198     24201     24204
     24202     24201     24203     24202     24201     24204     24203     24201     24204
     24201     24204     24205     24201     24204     24206     24201     24204     24207
     24205     24204     24206     24205     24204     24207     24206     24204     24207
     24204     24207     24208     24204     24207     24209     24204     24207     24210
     24208     24207     24209     24208     24207     24210     24209     24207     24210
     24207     24210     24211     24207     24210     24212     24207     24210     24213
     24211     24210     24212     24211     24210     24213     24212     24210     24213
     24164     24214     24215     24164     24214     24216     24164     24214     24217
     24215     24214     24216     24215     24214     24217     24216     24214     24217
     24214     24217     24218     24214     24217     24219     24214     24217     24220
     24218     24217     24219     24218     24217     24220     24219     24217     24220
     24217     24220     24221     24217     24220     24222     24217     24220     24223
     24221     24220     24222     24221     24220     24223     24222     24220     24223
     24220     24223     24224     24220     24223     24225     24220     24223     24226
     24224     24223     24225     24224     24223     24226     24225     24223     24226
     24223     24226     24227     24223     24226     24228     24223     24226     24229
     24227     24226     24228     24227     24226     24229     24228     24226     24229
     24226     24229     24230     24226     24229     24231     24226     24229     24232
     24230     24229     24231     24230     24229     24232     24231     24229     24232
     24229     24232     24233     24229     24232     24234     24229     24232     24235
     24233     24232     24234     24233     24232     24235     24234     24232     24235
     24232     24235     24236     24232     24235     24237     24232     24235     24238
     24236     24235     24237     24236     24235     24238     24237     24235     24238
     24235     24238     24239     24235     24238     24240     24235     24238     24241
     24239     24238     24240     24239     24238     24241     24240     24238     24241
     24238     24241     24242     24238     24241     24243     24238     24241     24244
     24242     24241     24243     24242     24241     24244     24243     24241     24244
     24241     24244     24245     24241     24244     24246     24241     24244     24247
     24245     24244     24246     24245     24244     24247     24246     24244     24247
     24244     24247     24248     24244     24247     24249     24244     24247     24250
     24248     24247     24249     24248     24247     24250     24249     24247     24250
     24247     24250     24251     24247     24250     24252     24247     24250     24253
     24251     24250     24252     24251     24250     24253     24252     24250     24253
     24250     24253     24254     24250     24253     24255     24250     24253     24256
     24254     24253     24255     24254     24253     24256     24255     24253     24256
     24258     24257     24261     24258     24257     24265     24258     24257     24269
     24261     24257     24265     24261     24257     24269     24265     24257     24269
     24257     24258     24259     24257     24258     24260     24257     24258     24273
     24259     24258     24260     24259     24258     24273     24260     24258     24273
     24257     24261     24262     24257     24261     24263     24257     24261     24264
     24262     24261     24263     24262     24261     24264     24263     24261     24264
     24257     24265     24266     24257     24265     24267     24257     24265     24268
     24266     24265     24267     24266     24265     24268     24267     24265     24268
     24257     24269     24270     24257     24269     24271     24257     24269     24272
     24270     24269     24271     24270     24269     24272     24271     24269     24272
     24258     24273     24274     24258     24273     24275     24258     24273     24279
     24274     24273     24275     24274     24273     24279     24275     24273     24279
     24277     24276     24278     24277     24276     24279     24277     24276     24280
     24278     24276     24279     24278     24276     24280     24279     24276     24280
     24273     24279     24276     24276     24280     24281     24280     24281     24282
     24280     24281     24283     24280     24281     24284     24282     24281     24283
     24282     24281     24284     24283     24281     24284     24281     24284     24285
     24281     24284     24286     24281     24284     24292     24285     24284     24286
     24285     24284     24292     24286     24284     24292     24284     24286     24287
     24286     24287     24288     24286     24287     24289     24288     24287     24289
     24287     24289     24290     24287     24289     24291     24287     24289     24301
     24290     24289     24291     24290     24289     24301     24291     24289     24301
     24284     24292     24293     24284     24292     24294     24284     24292     24295
     24293     24292     24294     24293     24292     24295     24294     24292     24295
     24292     24295     24296     24295     24296     24297     24295     24296     24298
     24297     24296     24298     24296     24298     24299     24296     24298     24300
     24296     24298     24348     24299     24298     24300     24299     24298     24348
     24300     24298     24348     24289     24301     24302     24289     24301     24303
     24289     24301     24304     24302     24301     24303     24302     24301     24304
     24303     24301     24304     24301     24304     24305     24301     24304     24306
     24301     24304     24307     24305     24304     24306     24305     24304     24307
     24306     24304     24307     24304     24307     24308     24304     24307     24309
     24304     24307     24310     24308     24307     24309     24308     24307     24310
     24309     24307     24310     24307     24310     24311     24307     24310     24312
     24307     24310     24313     24311     24310     24312     24311     24310     24313
     24312     24310     24313     24310     24313     24314     24310     24313     24315
     24310     24313     24316     24314     24313     24315     24314     24313     24316
     24315     24313     24316     24313     24316     24317     24313     24316     24318
     24313     24316     24319     24317     24316     24318     24317     24316     24319
     24318     24316     24319     24316     24319     24320     24316     24319     24321
     24320     24319     24321     24319     24321     24322     24319     24321     24323
     24322     24321     24323     24321     24323     24324     24321     24323     24325
     24321     24323     24326     24324     24323     24325     24324     24323     24326
     24325     24323     24326     24323     24326     24327     24323     24326     24328
     24323     24326     24329     24327     24326     24328     24327     24326     24329
     24328     24326     24329     24326     24329     24330     24326     24329     24331
     24326     24329     24332     24330     24329     24331     24330     24329     24332
     24331     24329     24332     24329     24332     24333     24329     24332     24334
     24329     24332     24335     24333     24332     24334     24333     24332     24335
     24334     24332     24335     24332     24335     24336     24332     24335     24337
     24332     24335     24338     24336     24335     24337     24336     24335     24338
     24337     24335     24338     24335     24338     24339     24335     24338     24340
     24335     24338     24341     24339     24338     24340     24339     24338     24341
     24340     24338     24341     24338     24341     24342     24338     24341     24343
     24338     24341     24344     24342     24341     24343     24342     24341     24344
     24343     24341     24344     24341     24344     24345     24341     24344     24346
     24341     24344     24347     24345     24344     24346     24345     24344     24347
     24346     24344     24347     24298     24348     24349     24298     24348     24350
     24298     24348     24351     24349     24348     24350     24349     24348     24351
     24350     24348     24351     24348     24351     24352     24348     24351     24353
     24348     24351     24354     24352     24351     24353     24352     24351     24354
     24353     24351     24354     24351     24354     24355     24351     24354     24356
     24351     24354     24357     24355     24354     24356     24355     24354     24357
     24356     24354     24357     24354     24357     24358     24354     24357     24359
     24354     24357     24360     24358     24357     24359     24358     24357     24360
     24359     24357     24360     24357     24360     24361     24357     24360     24362
     24357     24360     24363     24361     24360     24362     24361     24360     24363
     24362     24360     24363     24360     24363     24364     24360     24363     24365
     24360     24363     24366     24364     24363     24365     24364     24363     24366
     24365     24363     24366     24363     24366     24367     24363     24366     24368
     24363     24366     24369     24367     24366     24368     24367     24366     24369
     24368     24366     24369     24366     24369     24370     24366     24369     24371
     24366     24369     24372     24370     24369     24371     24370     24369     24372
     24371     24369     24372     24369     24372     24373     24369     24372     24374
     24369     24372     24375     24373     24372     24374     24373     24372     24375
     24374     24372     24375     24372     24375     24376     24372     24375     24377
     24372     24375     24378     24376     24375     24377     24376     24375     24378
     24377     24375     24378     24375     24378     24379     24375     24378     24380
     24375     24378     24381     24379     24378     24380     24379     24378     24381
     24380     24378     24381     24378     24381     24382     24378     24381     24383
     24378     24381     24384     24382     24381     24383     24382     24381     24384
     24383     24381     24384     24381     24384     24385     24381     24384     24386
     24381     24384     24387     24385     24384     24386     24385     24384     24387
     24386     24384     24387     24384     24387     24388     24384     24387     24389
     24384     24387     24390     24388     24387     24389     24388     24387     24390
     24389     24387     24390     24392     24391     24395     24392     24391     24399
     24392     24391     24403     24395     24391     24399     24395     24391     24403
     24399     24391     24403     24391     24392     24393     24391     24392     24394
     24391     24392     24407     24393     24392     24394     24393     24392     24407
     24394     24392     24407     24391     24395     24396     24391     24395     24397
     24391     24395     24398     24396     24395     24397     24396     24395     24398
     24397     24395     24398     24391     24399     24400     24391     24399     24401
     24391     24399     24402     24400     24399     24401     24400     24399     24402
     24401     24399     24402     24391     24403     24404     24391     24403     24405
     24391     24403     24406     24404     24403     24405     24404     24403     24406
     24405     24403     24406     24392     24407     24408     24392     24407     24409
     24392     24407     24413     24408     24407     24409     24408     24407     24413
     24409     24407     24413     24411     24410     24412     24411     24410     24413
     24411     24410     24414     24412     24410     24413     24412     24410     24414
     24413     24410     24414     24407     24413     24410     24410     24414     24415
     24414     24415     24416     24414     24415     24417     24414     24415     24418
     24416     24415     24417     24416     24415     24418     24417     24415     24418
     24415     24418     24419     24415     24418     24420     24415     24418     24426
     24419     24418     24420     24419     24418     24426     24420     24418     24426
     24418     24420     24421     24420     24421     24422     24420     24421     24423
     24422     24421     24423     24421     24423     24424     24421     24423     24425
     24421     24423     24435     24424     24423     24425     24424     24423     24435
     24425     24423     24435     24418     24426     24427     24418     24426     24428
     24418     24426     24429     24427     24426     24428     24427     24426     24429
     24428     24426     24429     24426     24429     24430     24429     24430     24431
     24429     24430     24432     24431     24430     24432     24430     24432     24433
     24430     24432     24434     24430     24432     24482     24433     24432     24434
     24433     24432     24482     24434     24432     24482     24423     24435     24436
     24423     24435     24437     24423     24435     24438     24436     24435     24437
     24436     24435     24438     24437     24435     24438     24435     24438     24439
     24435     24438     24440     24435     24438     24441     24439     24438     24440
     24439     24438     24441     24440     24438     24441     24438     24441     24442
     24438     24441     24443     24438     24441     24444     24442     24441     24443
     24442     24441     24444     24443     24441     24444     24441     24444     24445
     24441     24444     24446     24441     24444     24447     24445     24444     24446
     24445     24444     24447     24446     24444     24447     24444     24447     24448
     24444     24447     24449     24444     24447     24450     24448     24447     24449
     24448     24447     24450     24449     24447     24450     24447     24450     24451
     24447     24450     24452     24447     24450     24453     24451     24450     24452
     24451     24450     24453     24452     24450     24453     24450     24453     24454
     24450     24453     24455     24454     24453     24455     24453     24455     24456
     24453     24455     24457     24456     24455     24457     24455     24457     24458
     24455     24457     24459     24455     24457     24460     24458     24457     24459
     24458     24457     24460     24459     24457     24460     24457     24460     24461
     24457     24460     24462     24457     24460     24463     24461     24460     24462
     24461     24460     24463     24462     24460     24463     24460     24463     24464
     24460     24463     24465     24460     24463     24466     24464     24463     24465
     24464     24463     24466     24465     24463     24466     24463     24466     24467
     24463     24466     24468     24463     24466     24469     24467     24466     24468
     24467     24466     24469     24468     24466     24469     24466     24469     24470
     24466     24469     24471     24466     24469     24472     24470     24469     24471
     24470     24469     24472     24471     24469     24472     24469     24472     24473
     24469     24472     24474     24469     24472     24475     24473     24472     24474
     24473     24472     24475     24474     24472     24475     24472     24475     24476
     24472     24475     24477     24472     24475     24478     24476     24475     24477
     24476     24475     24478     24477     24475     24478     24475     24478     24479
     24475     24478     24480     24475     24478     24481     24479     24478     24480
     24479     24478     24481     24480     24478     24481     24432     24482     24483
     24432     24482     24484     24432     24482     24485     24483     24482     24484
     24483     24482     24485     24484     24482     24485     24482     24485     24486
     24482     24485     24487     24482     24485     24488     24486     24485     24487
     24486     24485     24488     24487     24485     24488     24485     24488     24489
     24485     24488     24490     24485     24488     24491     24489     24488     24490
     24489     24488     24491     24490     24488     24491     24488     24491     24492
     24488     24491     24493     24488     24491     24494     24492     24491     24493
     24492     24491     24494     24493     24491     24494     24491     24494     24495
     24491     24494     24496     24491     24494     24497     24495     24494     24496
     24495     24494     24497     24496     24494     24497     24494     24497     24498
     24494     24497     24499     24494     24497     24500     24498     24497     24499
     24498     24497     24500     24499     24497     24500     24497     24500     24501
     24497     24500     24502     24497     24500     24503     24501     24500     24502
     24501     24500     24503     24502     24500     24503     24500     24503     24504
     24500     24503     24505     24500     24503     24506     24504     24503     24505
     24504     24503     24506     24505     24503     24506     24503     24506     24507
     24503     24506     24508     24503     24506     24509     24507     24506     24508
     24507     24506     24509     24508     24506     24509     24506     24509     24510
     24506     24509     24511     24506     24509     24512     24510     24509     24511
     24510     24509     24512     24511     24509     24512     24509     24512     24513
     24509     24512     24514     24509     24512     24515     24513     24512     24514
     24513     24512     24515     24514     24512     24515     24512     24515     24516
     24512     24515     24517     24512     24515     24518     24516     24515     24517
     24516     24515     24518     24517     24515     24518     24515     24518     24519
     24515     24518     24520     24515     24518     24521     24519     24518     24520
     24519     24518     24521     24520     24518     24521     24518     24521     24522
     24518     24521     24523     24518     24521     24524     24522     24521     24523
     24522     24521     24524     24523     24521     24524     24526     24525     24529
     24526     24525     24533     24526     24525     24537     24529     24525     24533
     24529     24525     24537     24533     24525     24537     24525     24526     24527
     24525     24526     24528     24525     24526     24541     24527     24526     24528
     24527     24526     24541     24528     24526     24541     24525     24529     24530
     24525     24529     24531     24525     24529     24532     24530     24529     24531
     24530     24529     24532     24531     24529     24532     24525     24533     24534
     24525     24533     24535     24525     24533     24536     24534     24533     24535
     24534     24533     24536     24535     24533     24536     24525     24537     24538
     24525     24537     24539     24525     24537     24540     24538     24537     24539
     24538     24537     24540     24539     24537     24540     24526     24541     24542
     24526     24541     24543     24526     24541     24547     24542     24541     24543
     24542     24541     24547     24543     24541     24547     24545     24544     24546
     24545     24544     24547     24545     24544     24548     24546     24544     24547
     24546     24544     24548     24547     24544     24548     24541     24547     24544
     24544     24548     24549     24548     24549     24550     24548     24549     24551
     24548     24549     24552     24550     24549     24551     24550     24549     24552
     24551     24549     24552     24549     24552     24553     24549     24552     24554
     24549     24552     24560     24553     24552     24554     24553     24552     24560
     24554     24552     24560     24552     24554     24555     24554     24555     24556
     24554     24555     24557     24556     24555     24557     24555     24557     24558
     24555     24557     24559     24555     24557     24569     24558     24557     24559
     24558     24557     24569     24559     24557     24569     24552     24560     24561
     24552     24560     24562     24552     24560     24563     24561     24560     24562
     24561     24560     24563     24562     24560     24563     24560     24563     24564
     24563     24564     24565     24563     24564     24566     24565     24564     24566
     24564     24566     24567     24564     24566     24568     24564     24566     24616
     24567     24566     24568     24567     24566     24616     24568     24566     24616
     24557     24569     24570     24557     24569     24571     24557     24569     24572
     24570     24569     24571     24570     24569     24572     24571     24569     24572
     24569     24572     24573     24569     24572     24574     24569     24572     24575
     24573     24572     24574     24573     24572     24575     24574     24572     24575
     24572     24575     24576     24572     24575     24577     24572     24575     24578
     24576     24575     24577     24576     24575     24578     24577     24575     24578
     24575     24578     24579     24575     24578     24580     24575     24578     24581
     24579     24578     24580     24579     24578     24581     24580     24578     24581
     24578     24581     24582     24578     24581     24583     24578     24581     24584
     24582     24581     24583     24582     24581     24584     24583     24581     24584
     24581     24584     24585     24581     24584     24586     24581     24584     24587
     24585     24584     24586     24585     24584     24587     24586     24584     24587
     24584     24587     24588     24584     24587     24589     24588     24587     24589
     24587     24589     24590     24587     24589     24591     24590     24589     24591
     24589     24591     24592     24589     24591     24593     24589     24591     24594
     24592     24591     24593     24592     24591     24594     24593     24591     24594
     24591     24594     24595     24591     24594     24596     24591     24594     24597
     24595     24594     24596     24595     24594     24597     24596     24594     24597
     24594     24597     24598     24594     24597     24599     24594     24597     24600
     24598     24597     24599     24598     24597     24600     24599     24597     24600
     24597     24600     24601     24597     24600     24602     24597     24600     24603
     24601     24600     24602     24601     24600     24603     24602     24600     24603
     24600     24603     24604     24600     24603     24605     24600     24603     24606
     24604     24603     24605     24604     24603     24606     24605     24603     24606
     24603     24606     24607     24603     24606     24608     24603     24606     24609
     24607     24606     24608     24607     24606     24609     24608     24606     24609
     24606     24609     24610     24606     24609     24611     24606     24609     24612
     24610     24609     24611     24610     24609     24612     24611     24609     24612
     24609     24612     24613     24609     24612     24614     24609     24612     24615
     24613     24612     24614     24613     24612     24615     24614     24612     24615
     24566     24616     24617     24566     24616     24618     24566     24616     24619
     24617     24616     24618     24617     24616     24619     24618     24616     24619
     24616     24619     24620     24616     24619     24621     24616     24619     24622
     24620     24619     24621     24620     24619     24622     24621     24619     24622
     24619     24622     24623     24619     24622     24624     24619     24622     24625
     24623     24622     24624     24623     24622     24625     24624     24622     24625
     24622     24625     24626     24622     24625     24627     24622     24625     24628
     24626     24625     24627     24626     24625     24628     24627     24625     24628
     24625     24628     24629     24625     24628     24630     24625     24628     24631
     24629     24628     24630     24629     24628     24631     24630     24628     24631
     24628     24631     24632     24628     24631     24633     24628     24631     24634
     24632     24631     24633     24632     24631     24634     24633     24631     24634
     24631     24634     24635     24631     24634     24636     24631     24634     24637
     24635     24634     24636     24635     24634     24637     24636     24634     24637
     24634     24637     24638     24634     24637     24639     24634     24637     24640
     24638     24637     24639     24638     24637     24640     24639     24637     24640
     24637     24640     24641     24637     24640     24642     24637     24640     24643
     24641     24640     24642     24641     24640     24643     24642     24640     24643
     24640     24643     24644     24640     24643     24645     24640     24643     24646
     24644     24643     24645     24644     24643     24646     24645     24643     24646
     24643     24646     24647     24643     24646     24648     24643     24646     24649
     24647     24646     24648     24647     24646     24649     24648     24646     24649
     24646     24649     24650     24646     24649     24651     24646     24649     24652
     24650     24649     24651     24650     24649     24652     24651     24649     24652
     24649     24652     24653     24649     24652     24654     24649     24652     24655
     24653     24652     24654     24653     24652     24655     24654     24652     24655
     24652     24655     24656     24652     24655     24657     24652     24655     24658
     24656     24655     24657     24656     24655     24658     24657     24655     24658
     24660     24659     24663     24660     24659     24667     24660     24659     24671
     24663     24659     24667     24663     24659     24671     24667     24659     24671
     24659     24660     24661     24659     24660     24662     24659     24660     24675
     24661     24660     24662     24661     24660     24675     24662     24660     24675
     24659     24663     24664     24659     24663     24665     24659     24663     24666
     24664     24663     24665     24664     24663     24666     24665     24663     24666
     24659     24667     24668     24659     24667     24669     24659     24667     24670
     24668     24667     24669     24668     24667     24670     24669     24667     24670
     24659     24671     24672     24659     24671     24673     24659     24671     24674
     24672     24671     24673     24672     24671     24674     24673     24671     24674
     24660     24675     24676     24660     24675     24677     24660     24675     24681
     24676     24675     24677     24676     24675     24681     24677     24675     24681
     24679     24678     24680     24679     24678     24681     24679     24678     24682
     24680     24678     24681     24680     24678     24682     24681     24678     24682
     24675     24681     24678     24678     24682     24683     24682     24683     24684
     24682     24683     24685     24682     24683     24686     24684     24683     24685
     24684     24683     24686     24685     24683     24686     24683     24686     24687
     24683     24686     24688     24683     24686     24694     24687     24686     24688
     24687     24686     24694     24688     24686     24694     24686     24688     24689
     24688     24689     24690     24688     24689     24691     24690     24689     24691
     24689     24691     24692     24689     24691     24693     24689     24691     24703
     24692     24691     24693     24692     24691     24703     24693     24691     24703
     24686     24694     24695     24686     24694     24696     24686     24694     24697
     24695     24694     24696     24695     24694     24697     24696     24694     24697
     24694     24697     24698     24697     24698     24699     24697     24698     24700
     24699     24698     24700     24698     24700     24701     24698     24700     24702
     24698     24700     24750     24701     24700     24702     24701     24700     24750
     24702     24700     24750     24691     24703     24704     24691     24703     24705
     24691     24703     24706     24704     24703     24705     24704     24703     24706
     24705     24703     24706     24703     24706     24707     24703     24706     24708
     24703     24706     24709     24707     24706     24708     24707     24706     24709
     24708     24706     24709     24706     24709     24710     24706     24709     24711
     24706     24709     24712     24710     24709     24711     24710     24709     24712
     24711     24709     24712     24709     24712     24713     24709     24712     24714
     24709     24712     24715     24713     24712     24714     24713     24712     24715
     24714     24712     24715     24712     24715     24716     24712     24715     24717
     24712     24715     24718     24716     24715     24717     24716     24715     24718
     24717     24715     24718     24715     24718     24719     24715     24718     24720
     24715     24718     24721     24719     24718     24720     24719     24718     24721
     24720     24718     24721     24718     24721     24722     24718     24721     24723
     24722     24721     24723     24721     24723     24724     24721     24723     24725
     24724     24723     24725     24723     24725     24726     24723     24725     24727
     24723     24725     24728     24726     24725     24727     24726     24725     24728
     24727     24725     24728     24725     24728     24729     24725     24728     24730
     24725     24728     24731     24729     24728     24730     24729     24728     24731
     24730     24728     24731     24728     24731     24732     24728     24731     24733
     24728     24731     24734     24732     24731     24733     24732     24731     24734
     24733     24731     24734     24731     24734     24735     24731     24734     24736
     24731     24734     24737     24735     24734     24736     24735     24734     24737
     24736     24734     24737     24734     24737     24738     24734     24737     24739
     24734     24737     24740     24738     24737     24739     24738     24737     24740
     24739     24737     24740     24737     24740     24741     24737     24740     24742
     24737     24740     24743     24741     24740     24742     24741     24740     24743
     24742     24740     24743     24740     24743     24744     24740     24743     24745
     24740     24743     24746     24744     24743     24745     24744     24743     24746
     24745     24743     24746     24743     24746     24747     24743     24746     24748
     24743     24746     24749     24747     24746     24748     24747     24746     24749
     24748     24746     24749     24700     24750     24751     24700     24750     24752
     24700     24750     24753     24751     24750     24752     24751     24750     24753
     24752     24750     24753     24750     24753     24754     24750     24753     24755
     24750     24753     24756     24754     24753     24755     24754     24753     24756
     24755     24753     24756     24753     24756     24757     24753     24756     24758
     24753     24756     24759     24757     24756     24758     24757     24756     24759
     24758     24756     24759     24756     24759     24760     24756     24759     24761
     24756     24759     24762     24760     24759     24761     24760     24759     24762
     24761     24759     24762     24759     24762     24763     24759     24762     24764
     24759     24762     24765     24763     24762     24764     24763     24762     24765
     24764     24762     24765     24762     24765     24766     24762     24765     24767
     24762     24765     24768     24766     24765     24767     24766     24765     24768
     24767     24765     24768     24765     24768     24769     24765     24768     24770
     24765     24768     24771     24769     24768     24770     24769     24768     24771
     24770     24768     24771     24768     24771     24772     24768     24771     24773
     24768     24771     24774     24772     24771     24773     24772     24771     24774
     24773     24771     24774     24771     24774     24775     24771     24774     24776
     24771     24774     24777     24775     24774     24776     24775     24774     24777
     24776     24774     24777     24774     24777     24778     24774     24777     24779
     24774     24777     24780     24778     24777     24779     24778     24777     24780
     24779     24777     24780     24777     24780     24781     24777     24780     24782
     24777     24780     24783     24781     24780     24782     24781     24780     24783
     24782     24780     24783     24780     24783     24784     24780     24783     24785
     24780     24783     24786     24784     24783     24785     24784     24783     24786
     24785     24783     24786     24783     24786     24787     24783     24786     24788
     24783     24786     24789     24787     24786     24788     24787     24786     24789
     24788     24786     24789     24786     24789     24790     24786     24789     24791
     24786     24789     24792     24790     24789     24791     24790     24789     24792
     24791     24789     24792     24794     24793     24797     24794     24793     24801
     24794     24793     24805     24797     24793     24801     24797     24793     24805
     24801     24793     24805     24793     24794     24795     24793     24794     24796
     24793     24794     24809     24795     24794     24796     24795     24794     24809
     24796     24794     24809     24793     24797     24798     24793     24797     24799
     24793     24797     24800     24798     24797     24799     24798     24797     24800
     24799     24797     24800     24793     24801     24802     24793     24801     24803
     24793     24801     24804     24802     24801     24803     24802     24801     24804
     24803     24801     24804     24793     24805     24806     24793     24805     24807
     24793     24805     24808     24806     24805     24807     24806     24805     24808
     24807     24805     24808     24794     24809     24810     24794     24809     24811
     24794     24809     24815     24810     24809     24811     24810     24809     24815
     24811     24809     24815     24813     24812     24814     24813     24812     24815
     24813     24812     24816     24814     24812     24815     24814     24812     24816
     24815     24812     24816     24809     24815     24812     24812     24816     24817
     24816     24817     24818     24816     24817     24819     24816     24817     24820
     24818     24817     24819     24818     24817     24820     24819     24817     24820
     24817     24820     24821     24817     24820     24822     24817     24820     24828
     24821     24820     24822     24821     24820     24828     24822     24820     24828
     24820     24822     24823     24822     24823     24824     24822     24823     24825
     24824     24823     24825     24823     24825     24826     24823     24825     24827
     24823     24825     24837     24826     24825     24827     24826     24825     24837
     24827     24825     24837     24820     24828     24829     24820     24828     24830
     24820     24828     24831     24829     24828     24830     24829     24828     24831
     24830     24828     24831     24828     24831     24832     24831     24832     24833
     24831     24832     24834     24833     24832     24834     24832     24834     24835
     24832     24834     24836     24832     24834     24884     24835     24834     24836
     24835     24834     24884     24836     24834     24884     24825     24837     24838
     24825     24837     24839     24825     24837     24840     24838     24837     24839
     24838     24837     24840     24839     24837     24840     24837     24840     24841
     24837     24840     24842     24837     24840     24843     24841     24840     24842
     24841     24840     24843     24842     24840     24843     24840     24843     24844
     24840     24843     24845     24840     24843     24846     24844     24843     24845
     24844     24843     24846     24845     24843     24846     24843     24846     24847
     24843     24846     24848     24843     24846     24849     24847     24846     24848
     24847     24846     24849     24848     24846     24849     24846     24849     24850
     24846     24849     24851     24846     24849     24852     24850     24849     24851
     24850     24849     24852     24851     24849     24852     24849     24852     24853
     24849     24852     24854     24849     24852     24855     24853     24852     24854
     24853     24852     24855     24854     24852     24855     24852     24855     24856
     24852     24855     24857     24856     24855     24857     24855     24857     24858
     24855     24857     24859     24858     24857     24859     24857     24859     24860
     24857     24859     24861     24857     24859     24862     24860     24859     24861
     24860     24859     24862     24861     24859     24862     24859     24862     24863
     24859     24862     24864     24859     24862     24865     24863     24862     24864
     24863     24862     24865     24864     24862     24865     24862     24865     24866
     24862     24865     24867     24862     24865     24868     24866     24865     24867
     24866     24865     24868     24867     24865     24868     24865     24868     24869
     24865     24868     24870     24865     24868     24871     24869     24868     24870
     24869     24868     24871     24870     24868     24871     24868     24871     24872
     24868     24871     24873     24868     24871     24874     24872     24871     24873
     24872     24871     24874     24873     24871     24874     24871     24874     24875
     24871     24874     24876     24871     24874     24877     24875     24874     24876
     24875     24874     24877     24876     24874     24877     24874     24877     24878
     24874     24877     24879     24874     24877     24880     24878     24877     24879
     24878     24877     24880     24879     24877     24880     24877     24880     24881
     24877     24880     24882     24877     24880     24883     24881     24880     24882
     24881     24880     24883     24882     24880     24883     24834     24884     24885
     24834     24884     24886     24834     24884     24887     24885     24884     24886
     24885     24884     24887     24886     24884     24887     24884     24887     24888
     24884     24887     24889     24884     24887     24890     24888     24887     24889
     24888     24887     24890     24889     24887     24890     24887     24890     24891
     24887     24890     24892     24887     24890     24893     24891     24890     24892
     24891     24890     24893     24892     24890     24893     24890     24893     24894
     24890     24893     24895     24890     24893     24896     24894     24893     24895
     24894     24893     24896     24895     24893     24896     24893     24896     24897
     24893     24896     24898     24893     24896     24899     24897     24896     24898
     24897     24896     24899     24898     24896     24899     24896     24899     24900
     24896     24899     24901     24896     24899     24902     24900     24899     24901
     24900     24899     24902     24901     24899     24902     24899     24902     24903
     24899     24902     24904     24899     24902     24905     24903     24902     24904
     24903     24902     24905     24904     24902     24905     24902     24905     24906
     24902     24905     24907     24902     24905     24908     24906     24905     24907
     24906     24905     24908     24907     24905     24908     24905     24908     24909
     24905     24908     24910     24905     24908     24911     24909     24908     24910
     24909     24908     24911     24910     24908     24911     24908     24911     24912
     24908     24911     24913     24908     24911     24914     24912     24911     24913
     24912     24911     24914     24913     24911     24914     24911     24914     24915
     24911     24914     24916     24911     24914     24917     24915     24914     24916
     24915     24914     24917     24916     24914     24917     24914     24917     24918
     24914     24917     24919     24914     24917     24920     24918     24917     24919
     24918     24917     24920     24919     24917     24920     24917     24920     24921
     24917     24920     24922     24917     24920     24923     24921     24920     24922
     24921     24920     24923     24922     24920     24923     24920     24923     24924
     24920     24923     24925     24920     24923     24926     24924     24923     24925
     24924     24923     24926     24925     24923     24926     24928     24927     24931
     24928     24927     24935     24928     24927     24939     24931     24927     24935
     24931     24927     24939     24935     24927     24939     24927     24928     24929
     24927     24928     24930     24927     24928     24943     24929     24928     24930
     24929     24928     24943     24930     24928     24943     24927     24931     24932
     24927     24931     24933     24927     24931     24934     24932     24931     24933
     24932     24931     24934     24933     24931     24934     24927     24935     24936
     24927     24935     24937     24927     24935     24938     24936     24935     24937
     24936     24935     24938     24937     24935     24938     24927     24939     24940
     24927     24939     24941     24927     24939     24942     24940     24939     24941
     24940     24939     24942     24941     24939     24942     24928     24943     24944
     24928     24943     24945     24928     24943     24949     24944     24943     24945
     24944     24943     24949     24945     24943     24949     24947     24946     24948
     24947     24946     24949     24947     24946     24950     24948     24946     24949
     24948     24946     24950     24949     24946     24950     24943     24949     24946
     24946     24950     24951     24950     24951     24952     24950     24951     24953
     24950     24951     24954     24952     24951     24953     24952     24951     24954
     24953     24951     24954     24951     24954     24955     24951     24954     24956
     24951     24954     24962     24955     24954     24956     24955     24954     24962
     24956     24954     24962     24954     24956     24957     24956     24957     24958
     24956     24957     24959     24958     24957     24959     24957     24959     24960
     24957     24959     24961     24957     24959     24971     24960     24959     24961
     24960     24959     24971     24961     24959     24971     24954     24962     24963
     24954     24962     24964     24954     24962     24965     24963     24962     24964
     24963     24962     24965     24964     24962     24965     24962     24965     24966
     24965     24966     24967     24965     24966     24968     24967     24966     24968
     24966     24968     24969     24966     24968     24970     24966     24968     25018
     24969     24968     24970     24969     24968     25018     24970     24968     25018
     24959     24971     24972     24959     24971     24973     24959     24971     24974
     24972     24971     24973     24972     24971     24974     24973     24971     24974
     24971     24974     24975     24971     24974     24976     24971     24974     24977
     24975     24974     24976     24975     24974     24977     24976     24974     24977
     24974     24977     24978     24974     24977     24979     24974     24977     24980
     24978     24977     24979     24978     24977     24980     24979     24977     24980
     24977     24980     24981     24977     24980     24982     24977     24980     24983
     24981     24980     24982     24981     24980     24983     24982     24980     24983
     24980     24983     24984     24980     24983     24985     24980     24983     24986
     24984     24983     24985     24984     24983     24986     24985     24983     24986
     24983     24986     24987     24983     24986     24988     24983     24986     24989
     24987     24986     24988     24987     24986     24989     24988     24986     24989
     24986     24989     24990     24986     24989     24991     24990     24989     24991
     24989     24991     24992     24989     24991     24993     24992     24991     24993
     24991     24993     24994     24991     24993     24995     24991     24993     24996
     24994     24993     24995     24994     24993     24996     24995     24993     24996
     24993     24996     24997     24993     24996     24998     24993     24996     24999
     24997     24996     24998     24997     24996     24999     24998     24996     24999
     24996     24999     25000     24996     24999     25001     24996     24999     25002
     25000     24999     25001     25000     24999     25002     25001     24999     25002
     24999     25002     25003     24999     25002     25004     24999     25002     25005
     25003     25002     25004     25003     25002     25005     25004     25002     25005
     25002     25005     25006     25002     25005     25007     25002     25005     25008
     25006     25005     25007     25006     25005     25008     25007     25005     25008
     25005     25008     25009     25005     25008     25010     25005     25008     25011
     25009     25008     25010     25009     25008     25011     25010     25008     25011
     25008     25011     25012     25008     25011     25013     25008     25011     25014
     25012     25011     25013     25012     25011     25014     25013     25011     25014
     25011     25014     25015     25011     25014     25016     25011     25014     25017
     25015     25014     25016     25015     25014     25017     25016     25014     25017
     24968     25018     25019     24968     25018     25020     24968     25018     25021
     25019     25018     25020     25019     25018     25021     25020     25018     25021
     25018     25021     25022     25018     25021     25023     25018     25021     25024
     25022     25021     25023     25022     25021     25024     25023     25021     25024
     25021     25024     25025     25021     25024     25026     25021     25024     25027
     25025     25024     25026     25025     25024     25027     25026     25024     25027
     25024     25027     25028     25024     25027     25029     25024     25027     25030
     25028     25027     25029     25028     25027     25030     25029     25027     25030
     25027     25030     25031     25027     25030     25032     25027     25030     25033
     25031     25030     25032     25031     25030     25033     25032     25030     25033
     25030     25033     25034     25030     25033     25035     25030     25033     25036
     25034     25033     25035     25034     25033     25036     25035     25033     25036
     25033     25036     25037     25033     25036     25038     25033     25036     25039
     25037     25036     25038     25037     25036     25039     25038     25036     25039
     25036     25039     25040     25036     25039     25041     25036     25039     25042
     25040     25039     25041     25040     25039     25042     25041     25039     25042
     25039     25042     25043     25039     25042     25044     25039     25042     25045
     25043     25042     25044     25043     25042     25045     25044     25042     25045
     25042     25045     25046     25042     25045     25047     25042     25045     25048
     25046     25045     25047     25046     25045     25048     25047     25045     25048
     25045     25048     25049     25045     25048     25050     25045     25048     25051
     25049     25048     25050     25049     25048     25051     25050     25048     25051
     25048     25051     25052     25048     25051     25053     25048     25051     25054
     25052     25051     25053     25052     25051     25054     25053     25051     25054
     25051     25054     25055     25051     25054     25056     25051     25054     25057
     25055     25054     25056     25055     25054     25057     25056     25054     25057
     25054     25057     25058     25054     25057     25059     25054     25057     25060
     25058     25057     25059     25058     25057     25060     25059     25057     25060
     25062     25061     25065     25062     25061     25069     25062     25061     25073
     25065     25061     25069     25065     25061     25073     25069     25061     25073
     25061     25062     25063     25061     25062     25064     25061     25062     25077
     25063     25062     25064     25063     25062     25077     25064     25062     25077
     25061     25065     25066     25061     25065     25067     25061     25065     25068
     25066     25065     25067     25066     25065     25068     25067     25065     25068
     25061     25069     25070     25061     25069     25071     25061     25069     25072
     25070     25069     25071     25070     25069     25072     25071     25069     25072
     25061     25073     25074     25061     25073     25075     25061     25073     25076
     25074     25073     25075     25074     25073     25076     25075     25073     25076
     25062     25077     25078     25062     25077     25079     25062     25077     25083
     25078     25077     25079     25078     25077     25083     25079     25077     25083
     25081     25080     25082     25081     25080     25083     25081     25080     25084
     25082     25080     25083     25082     25080     25084     25083     25080     25084
     25077     25083     25080     25080     25084     25085     25084     25085     25086
     25084     25085     25087     25084     25085     25088     25086     25085     25087
     25086     25085     25088     25087     25085     25088     25085     25088     25089
     25085     25088     25090     25085     25088     25096     25089     25088     25090
     25089     25088     25096     25090     25088     25096     25088     25090     25091
     25090     25091     25092     25090     25091     25093     25092     25091     25093
     25091     25093     25094     25091     25093     25095     25091     25093     25105
     25094     25093     25095     25094     25093     25105     25095     25093     25105
     25088     25096     25097     25088     25096     25098     25088     25096     25099
     25097     25096     25098     25097     25096     25099     25098     25096     25099
     25096     25099     25100     25099     25100     25101     25099     25100     25102
     25101     25100     25102     25100     25102     25103     25100     25102     25104
     25100     25102     25152     25103     25102     25104     25103     25102     25152
     25104     25102     25152     25093     25105     25106     25093     25105     25107
     25093     25105     25108     25106     25105     25107     25106     25105     25108
     25107     25105     25108     25105     25108     25109     25105     25108     25110
     25105     25108     25111     25109     25108     25110     25109     25108     25111
     25110     25108     25111     25108     25111     25112     25108     25111     25113
     25108     25111     25114     25112     25111     25113     25112     25111     25114
     25113     25111     25114     25111     25114     25115     25111     25114     25116
     25111     25114     25117     25115     25114     25116     25115     25114     25117
     25116     25114     25117     25114     25117     25118     25114     25117     25119
     25114     25117     25120     25118     25117     25119     25118     25117     25120
     25119     25117     25120     25117     25120     25121     25117     25120     25122
     25117     25120     25123     25121     25120     25122     25121     25120     25123
     25122     25120     25123     25120     25123     25124     25120     25123     25125
     25124     25123     25125     25123     25125     25126     25123     25125     25127
     25126     25125     25127     25125     25127     25128     25125     25127     25129
     25125     25127     25130     25128     25127     25129     25128     25127     25130
     25129     25127     25130     25127     25130     25131     25127     25130     25132
     25127     25130     25133     25131     25130     25132     25131     25130     25133
     25132     25130     25133     25130     25133     25134     25130     25133     25135
     25130     25133     25136     25134     25133     25135     25134     25133     25136
     25135     25133     25136     25133     25136     25137     25133     25136     25138
     25133     25136     25139     25137     25136     25138     25137     25136     25139
     25138     25136     25139     25136     25139     25140     25136     25139     25141
     25136     25139     25142     25140     25139     25141     25140     25139     25142
     25141     25139     25142     25139     25142     25143     25139     25142     25144
     25139     25142     25145     25143     25142     25144     25143     25142     25145
     25144     25142     25145     25142     25145     25146     25142     25145     25147
     25142     25145     25148     25146     25145     25147     25146     25145     25148
     25147     25145     25148     25145     25148     25149     25145     25148     25150
     25145     25148     25151     25149     25148     25150     25149     25148     25151
     25150     25148     25151     25102     25152     25153     25102     25152     25154
     25102     25152     25155     25153     25152     25154     25153     25152     25155
     25154     25152     25155     25152     25155     25156     25152     25155     25157
     25152     25155     25158     25156     25155     25157     25156     25155     25158
     25157     25155     25158     25155     25158     25159     25155     25158     25160
     25155     25158     25161     25159     25158     25160     25159     25158     25161
     25160     25158     25161     25158     25161     25162     25158     25161     25163
     25158     25161     25164     25162     25161     25163     25162     25161     25164
     25163     25161     25164     25161     25164     25165     25161     25164     25166
     25161     25164     25167     25165     25164     25166     25165     25164     25167
     25166     25164     25167     25164     25167     25168     25164     25167     25169
     25164     25167     25170     25168     25167     25169     25168     25167     25170
     25169     25167     25170     25167     25170     25171     25167     25170     25172
     25167     25170     25173     25171     25170     25172     25171     25170     25173
     25172     25170     25173     25170     25173     25174     25170     25173     25175
     25170     25173     25176     25174     25173     25175     25174     25173     25176
     25175     25173     25176     25173     25176     25177     25173     25176     25178
     25173     25176     25179     25177     25176     25178     25177     25176     25179
     25178     25176     25179     25176     25179     25180     25176     25179     25181
     25176     25179     25182     25180     25179     25181     25180     25179     25182
     25181     25179     25182     25179     25182     25183     25179     25182     25184
     25179     25182     25185     25183     25182     25184     25183     25182     25185
     25184     25182     25185     25182     25185     25186     25182     25185     25187
     25182     25185     25188     25186     25185     25187     25186     25185     25188
     25187     25185     25188     25185     25188     25189     25185     25188     25190
     25185     25188     25191     25189     25188     25190     25189     25188     25191
     25190     25188     25191     25188     25191     25192     25188     25191     25193
     25188     25191     25194     25192     25191     25193     25192     25191     25194
     25193     25191     25194     25196     25195     25199     25196     25195     25203
     25196     25195     25207     25199     25195     25203     25199     25195     25207
     25203     25195     25207     25195     25196     25197     25195     25196     25198
     25195     25196     25211     25197     25196     25198     25197     25196     25211
     25198     25196     25211     25195     25199     25200     25195     25199     25201
     25195     25199     25202     25200     25199     25201     25200     25199     25202
     25201     25199     25202     25195     25203     25204     25195     25203     25205
     25195     25203     25206     25204     25203     25205     25204     25203     25206
     25205     25203     25206     25195     25207     25208     25195     25207     25209
     25195     25207     25210     25208     25207     25209     25208     25207     25210
     25209     25207     25210     25196     25211     25212     25196     25211     25213
     25196     25211     25217     25212     25211     25213     25212     25211     25217
     25213     25211     25217     25215     25214     25216     25215     25214     25217
     25215     25214     25218     25216     25214     25217     25216     25214     25218
     25217     25214     25218     25211     25217     25214     25214     25218     25219
     25218     25219     25220     25218     25219     25221     25218     25219     25222
     25220     25219     25221     25220     25219     25222     25221     25219     25222
     25219     25222     25223     25219     25222     25224     25219     25222     25230
     25223     25222     25224     25223     25222     25230     25224     25222     25230
     25222     25224     25225     25224     25225     25226     25224     25225     25227
     25226     25225     25227     25225     25227     25228     25225     25227     25229
     25225     25227     25239     25228     25227     25229     25228     25227     25239
     25229     25227     25239     25222     25230     25231     25222     25230     25232
     25222     25230     25233     25231     25230     25232     25231     25230     25233
     25232     25230     25233     25230     25233     25234     25233     25234     25235
     25233     25234     25236     25235     25234     25236     25234     25236     25237
     25234     25236     25238     25234     25236     25286     25237     25236     25238
     25237     25236     25286     25238     25236     25286     25227     25239     25240
     25227     25239     25241     25227     25239     25242     25240     25239     25241
     25240     25239     25242     25241     25239     25242     25239     25242     25243
     25239     25242     25244     25239     25242     25245     25243     25242     25244
     25243     25242     25245     25244     25242     25245     25242     25245     25246
     25242     25245     25247     25242     25245     25248     25246     25245     25247
     25246     25245     25248     25247     25245     25248     25245     25248     25249
     25245     25248     25250     25245     25248     25251     25249     25248     25250
     25249     25248     25251     25250     25248     25251     25248     25251     25252
     25248     25251     25253     25248     25251     25254     25252     25251     25253
     25252     25251     25254     25253     25251     25254     25251     25254     25255
     25251     25254     25256     25251     25254     25257     25255     25254     25256
     25255     25254     25257     25256     25254     25257     25254     25257     25258
     25254     25257     25259     25258     25257     25259     25257     25259     25260
     25257     25259     25261     25260     25259     25261     25259     25261     25262
     25259     25261     25263     25259     25261     25264     25262     25261     25263
     25262     25261     25264     25263     25261     25264     25261     25264     25265
     25261     25264     25266     25261     25264     25267     25265     25264     25266
     25265     25264     25267     25266     25264     25267     25264     25267     25268
     25264     25267     25269     25264     25267     25270     25268     25267     25269
     25268     25267     25270     25269     25267     25270     25267     25270     25271
     25267     25270     25272     25267     25270     25273     25271     25270     25272
     25271     25270     25273     25272     25270     25273     25270     25273     25274
     25270     25273     25275     25270     25273     25276     25274     25273     25275
     25274     25273     25276     25275     25273     25276     25273     25276     25277
     25273     25276     25278     25273     25276     25279     25277     25276     25278
     25277     25276     25279     25278     25276     25279     25276     25279     25280
     25276     25279     25281     25276     25279     25282     25280     25279     25281
     25280     25279     25282     25281     25279     25282     25279     25282     25283
     25279     25282     25284     25279     25282     25285     25283     25282     25284
     25283     25282     25285     25284     25282     25285     25236     25286     25287
     25236     25286     25288     25236     25286     25289     25287     25286     25288
     25287     25286     25289     25288     25286     25289     25286     25289     25290
     25286     25289     25291     25286     25289     25292     25290     25289     25291
     25290     25289     25292     25291     25289     25292     25289     25292     25293
     25289     25292     25294     25289     25292     25295     25293     25292     25294
     25293     25292     25295     25294     25292     25295     25292     25295     25296
     25292     25295     25297     25292     25295     25298     25296     25295     25297
     25296     25295     25298     25297     25295     25298     25295     25298     25299
     25295     25298     25300     25295     25298     25301     25299     25298     25300
     25299     25298     25301     25300     25298     25301     25298     25301     25302
     25298     25301     25303     25298     25301     25304     25302     25301     25303
     25302     25301     25304     25303     25301     25304     25301     25304     25305
     25301     25304     25306     25301     25304     25307     25305     25304     25306
     25305     25304     25307     25306     25304     25307     25304     25307     25308
     25304     25307     25309     25304     25307     25310     25308     25307     25309
     25308     25307     25310     25309     25307     25310     25307     25310     25311
     25307     25310     25312     25307     25310     25313     25311     25310     25312
     25311     25310     25313     25312     25310     25313     25310     25313     25314
     25310     25313     25315     25310     25313     25316     25314     25313     25315
     25314     25313     25316     25315     25313     25316     25313     25316     25317
     25313     25316     25318     25313     25316     25319     25317     25316     25318
     25317     25316     25319     25318     25316     25319     25316     25319     25320
     25316     25319     25321     25316     25319     25322     25320     25319     25321
     25320     25319     25322     25321     25319     25322     25319     25322     25323
     25319     25322     25324     25319     25322     25325     25323     25322     25324
     25323     25322     25325     25324     25322     25325     25322     25325     25326
     25322     25325     25327     25322     25325     25328     25326     25325     25327
     25326     25325     25328     25327     25325     25328     25330     25329     25333
     25330     25329     25337     25330     25329     25341     25333     25329     25337
     25333     25329     25341     25337     25329     25341     25329     25330     25331
     25329     25330     25332     25329     25330     25345     25331     25330     25332
     25331     25330     25345     25332     25330     25345     25329     25333     25334
     25329     25333     25335     25329     25333     25336     25334     25333     25335
     25334     25333     25336     25335     25333     25336     25329     25337     25338
     25329     25337     25339     25329     25337     25340     25338     25337     25339
     25338     25337     25340     25339     25337     25340     25329     25341     25342
     25329     25341     25343     25329     25341     25344     25342     25341     25343
     25342     25341     25344     25343     25341     25344     25330     25345     25346
     25330     25345     25347     25330     25345     25351     25346     25345     25347
     25346     25345     25351     25347     25345     25351     25349     25348     25350
     25349     25348     25351     25349     25348     25352     25350     25348     25351
     25350     25348     25352     25351     25348     25352     25345     25351     25348
     25348     25352     25353     25352     25353     25354     25352     25353     25355
     25352     25353     25356     25354     25353     25355     25354     25353     25356
     25355     25353     25356     25353     25356     25357     25353     25356     25358
     25353     25356     25364     25357     25356     25358     25357     25356     25364
     25358     25356     25364     25356     25358     25359     25358     25359     25360
     25358     25359     25361     25360     25359     25361     25359     25361     25362
     25359     25361     25363     25359     25361     25373     25362     25361     25363
     25362     25361     25373     25363     25361     25373     25356     25364     25365
     25356     25364     25366     25356     25364     25367     25365     25364     25366
     25365     25364     25367     25366     25364     25367     25364     25367     25368
     25367     25368     25369     25367     25368     25370     25369     25368     25370
     25368     25370     25371     25368     25370     25372     25368     25370     25420
     25371     25370     25372     25371     25370     25420     25372     25370     25420
     25361     25373     25374     25361     25373     25375     25361     25373     25376
     25374     25373     25375     25374     25373     25376     25375     25373     25376
     25373     25376     25377     25373     25376     25378     25373     25376     25379
     25377     25376     25378     25377     25376     25379     25378     25376     25379
     25376     25379     25380     25376     25379     25381     25376     25379     25382
     25380     25379     25381     25380     25379     25382     25381     25379     25382
     25379     25382     25383     25379     25382     25384     25379     25382     25385
     25383     25382     25384     25383     25382     25385     25384     25382     25385
     25382     25385     25386     25382     25385     25387     25382     25385     25388
     25386     25385     25387     25386     25385     25388     25387     25385     25388
     25385     25388     25389     25385     25388     25390     25385     25388     25391
     25389     25388     25390     25389     25388     25391     25390     25388     25391
     25388     25391     25392     25388     25391     25393     25392     25391     25393
     25391     25393     25394     25391     25393     25395     25394     25393     25395
     25393     25395     25396     25393     25395     25397     25393     25395     25398
     25396     25395     25397     25396     25395     25398     25397     25395     25398
     25395     25398     25399     25395     25398     25400     25395     25398     25401
     25399     25398     25400     25399     25398     25401     25400     25398     25401
     25398     25401     25402     25398     25401     25403     25398     25401     25404
     25402     25401     25403     25402     25401     25404     25403     25401     25404
     25401     25404     25405     25401     25404     25406     25401     25404     25407
     25405     25404     25406     25405     25404     25407     25406     25404     25407
     25404     25407     25408     25404     25407     25409     25404     25407     25410
     25408     25407     25409     25408     25407     25410     25409     25407     25410
     25407     25410     25411     25407     25410     25412     25407     25410     25413
     25411     25410     25412     25411     25410     25413     25412     25410     25413
     25410     25413     25414     25410     25413     25415     25410     25413     25416
     25414     25413     25415     25414     25413     25416     25415     25413     25416
     25413     25416     25417     25413     25416     25418     25413     25416     25419
     25417     25416     25418     25417     25416     25419     25418     25416     25419
     25370     25420     25421     25370     25420     25422     25370     25420     25423
     25421     25420     25422     25421     25420     25423     25422     25420     25423
     25420     25423     25424     25420     25423     25425     25420     25423     25426
     25424     25423     25425     25424     25423     25426     25425     25423     25426
     25423     25426     25427     25423     25426     25428     25423     25426     25429
     25427     25426     25428     25427     25426     25429     25428     25426     25429
     25426     25429     25430     25426     25429     25431     25426     25429     25432
     25430     25429     25431     25430     25429     25432     25431     25429     25432
     25429     25432     25433     25429     25432     25434     25429     25432     25435
     25433     25432     25434     25433     25432     25435     25434     25432     25435
     25432     25435     25436     25432     25435     25437     25432     25435     25438
     25436     25435     25437     25436     25435     25438     25437     25435     25438
     25435     25438     25439     25435     25438     25440     25435     25438     25441
     25439     25438     25440     25439     25438     25441     25440     25438     25441
     25438     25441     25442     25438     25441     25443     25438     25441     25444
     25442     25441     25443     25442     25441     25444     25443     25441     25444
     25441     25444     25445     25441     25444     25446     25441     25444     25447
     25445     25444     25446     25445     25444     25447     25446     25444     25447
     25444     25447     25448     25444     25447     25449     25444     25447     25450
     25448     25447     25449     25448     25447     25450     25449     25447     25450
     25447     25450     25451     25447     25450     25452     25447     25450     25453
     25451     25450     25452     25451     25450     25453     25452     25450     25453
     25450     25453     25454     25450     25453     25455     25450     25453     25456
     25454     25453     25455     25454     25453     25456     25455     25453     25456
     25453     25456     25457     25453     25456     25458     25453     25456     25459
     25457     25456     25458     25457     25456     25459     25458     25456     25459
     25456     25459     25460     25456     25459     25461     25456     25459     25462
     25460     25459     25461     25460     25459     25462     25461     25459     25462
     25464     25463     25467     25464     25463     25471     25464     25463     25475
     25467     25463     25471     25467     25463     25475     25471     25463     25475
     25463     25464     25465     25463     25464     25466     25463     25464     25479
     25465     25464     25466     25465     25464     25479     25466     25464     25479
     25463     25467     25468     25463     25467     25469     25463     25467     25470
     25468     25467     25469     25468     25467     25470     25469     25467     25470
     25463     25471     25472     25463     25471     25473     25463     25471     25474
     25472     25471     25473     25472     25471     25474     25473     25471     25474
     25463     25475     25476     25463     25475     25477     25463     25475     25478
     25476     25475     25477     25476     25475     25478     25477     25475     25478
     25464     25479     25480     25464     25479     25481     25464     25479     25485
     25480     25479     25481     25480     25479     25485     25481     25479     25485
     25483     25482     25484     25483     25482     25485     25483     25482     25486
     25484     25482     25485     25484     25482     25486     25485     25482     25486
     25479     25485     25482     25482     25486     25487     25486     25487     25488
     25486     25487     25489     25486     25487     25490     25488     25487     25489
     25488     25487     25490     25489     25487     25490     25487     25490     25491
     25487     25490     25492     25487     25490     25498     25491     25490     25492
     25491     25490     25498     25492     25490     25498     25490     25492     25493
     25492     25493     25494     25492     25493     25495     25494     25493     25495
     25493     25495     25496     25493     25495     25497     25493     25495     25507
     25496     25495     25497     25496     25495     25507     25497     25495     25507
     25490     25498     25499     25490     25498     25500     25490     25498     25501
     25499     25498     25500     25499     25498     25501     25500     25498     25501
     25498     25501     25502     25501     25502     25503     25501     25502     25504
     25503     25502     25504     25502     25504     25505     25502     25504     25506
     25502     25504     25554     25505     25504     25506     25505     25504     25554
     25506     25504     25554     25495     25507     25508     25495     25507     25509
     25495     25507     25510     25508     25507     25509     25508     25507     25510
     25509     25507     25510     25507     25510     25511     25507     25510     25512
     25507     25510     25513     25511     25510     25512     25511     25510     25513
     25512     25510     25513     25510     25513     25514     25510     25513     25515
     25510     25513     25516     25514     25513     25515     25514     25513     25516
     25515     25513     25516     25513     25516     25517     25513     25516     25518
     25513     25516     25519     25517     25516     25518     25517     25516     25519
     25518     25516     25519     25516     25519     25520     25516     25519     25521
     25516     25519     25522     25520     25519     25521     25520     25519     25522
     25521     25519     25522     25519     25522     25523     25519     25522     25524
     25519     25522     25525     25523     25522     25524     25523     25522     25525
     25524     25522     25525     25522     25525     25526     25522     25525     25527
     25526     25525     25527     25525     25527     25528     25525     25527     25529
     25528     25527     25529     25527     25529     25530     25527     25529     25531
     25527     25529     25532     25530     25529     25531     25530     25529     25532
     25531     25529     25532     25529     25532     25533     25529     25532     25534
     25529     25532     25535     25533     25532     25534     25533     25532     25535
     25534     25532     25535     25532     25535     25536     25532     25535     25537
     25532     25535     25538     25536     25535     25537     25536     25535     25538
     25537     25535     25538     25535     25538     25539     25535     25538     25540
     25535     25538     25541     25539     25538     25540     25539     25538     25541
     25540     25538     25541     25538     25541     25542     25538     25541     25543
     25538     25541     25544     25542     25541     25543     25542     25541     25544
     25543     25541     25544     25541     25544     25545     25541     25544     25546
     25541     25544     25547     25545     25544     25546     25545     25544     25547
     25546     25544     25547     25544     25547     25548     25544     25547     25549
     25544     25547     25550     25548     25547     25549     25548     25547     25550
     25549     25547     25550     25547     25550     25551     25547     25550     25552
     25547     25550     25553     25551     25550     25552     25551     25550     25553
     25552     25550     25553     25504     25554     25555     25504     25554     25556
     25504     25554     25557     25555     25554     25556     25555     25554     25557
     25556     25554     25557     25554     25557     25558     25554     25557     25559
     25554     25557     25560     25558     25557     25559     25558     25557     25560
     25559     25557     25560     25557     25560     25561     25557     25560     25562
     25557     25560     25563     25561     25560     25562     25561     25560     25563
     25562     25560     25563     25560     25563     25564     25560     25563     25565
     25560     25563     25566     25564     25563     25565     25564     25563     25566
     25565     25563     25566     25563     25566     25567     25563     25566     25568
     25563     25566     25569     25567     25566     25568     25567     25566     25569
     25568     25566     25569     25566     25569     25570     25566     25569     25571
     25566     25569     25572     25570     25569     25571     25570     25569     25572
     25571     25569     25572     25569     25572     25573     25569     25572     25574
     25569     25572     25575     25573     25572     25574     25573     25572     25575
     25574     25572     25575     25572     25575     25576     25572     25575     25577
     25572     25575     25578     25576     25575     25577     25576     25575     25578
     25577     25575     25578     25575     25578     25579     25575     25578     25580
     25575     25578     25581     25579     25578     25580     25579     25578     25581
     25580     25578     25581     25578     25581     25582     25578     25581     25583
     25578     25581     25584     25582     25581     25583     25582     25581     25584
     25583     25581     25584     25581     25584     25585     25581     25584     25586
     25581     25584     25587     25585     25584     25586     25585     25584     25587
     25586     25584     25587     25584     25587     25588     25584     25587     25589
     25584     25587     25590     25588     25587     25589     25588     25587     25590
     25589     25587     25590     25587     25590     25591     25587     25590     25592
     25587     25590     25593     25591     25590     25592     25591     25590     25593
     25592     25590     25593     25590     25593     25594     25590     25593     25595
     25590     25593     25596     25594     25593     25595     25594     25593     25596
     25595     25593     25596     25598     25597     25601     25598     25597     25605
     25598     25597     25609     25601     25597     25605     25601     25597     25609
     25605     25597     25609     25597     25598     25599     25597     25598     25600
     25597     25598     25613     25599     25598     25600     25599     25598     25613
     25600     25598     25613     25597     25601     25602     25597     25601     25603
     25597     25601     25604     25602     25601     25603     25602     25601     25604
     25603     25601     25604     25597     25605     25606     25597     25605     25607
     25597     25605     25608     25606     25605     25607     25606     25605     25608
     25607     25605     25608     25597     25609     25610     25597     25609     25611
     25597     25609     25612     25610     25609     25611     25610     25609     25612
     25611     25609     25612     25598     25613     25614     25598     25613     25615
     25598     25613     25619     25614     25613     25615     25614     25613     25619
     25615     25613     25619     25617     25616     25618     25617     25616     25619
     25617     25616     25620     25618     25616     25619     25618     25616     25620
     25619     25616     25620     25613     25619     25616     25616     25620     25621
     25620     25621     25622     25620     25621     25623     25620     25621     25624
     25622     25621     25623     25622     25621     25624     25623     25621     25624
     25621     25624     25625     25621     25624     25626     25621     25624     25632
     25625     25624     25626     25625     25624     25632     25626     25624     25632
     25624     25626     25627     25626     25627     25628     25626     25627     25629
     25628     25627     25629     25627     25629     25630     25627     25629     25631
     25627     25629     25641     25630     25629     25631     25630     25629     25641
     25631     25629     25641     25624     25632     25633     25624     25632     25634
     25624     25632     25635     25633     25632     25634     25633     25632     25635
     25634     25632     25635     25632     25635     25636     25635     25636     25637
     25635     25636     25638     25637     25636     25638     25636     25638     25639
     25636     25638     25640     25636     25638     25688     25639     25638     25640
     25639     25638     25688     25640     25638     25688     25629     25641     25642
     25629     25641     25643     25629     25641     25644     25642     25641     25643
     25642     25641     25644     25643     25641     25644     25641     25644     25645
     25641     25644     25646     25641     25644     25647     25645     25644     25646
     25645     25644     25647     25646     25644     25647     25644     25647     25648
     25644     25647     25649     25644     25647     25650     25648     25647     25649
     25648     25647     25650     25649     25647     25650     25647     25650     25651
     25647     25650     25652     25647     25650     25653     25651     25650     25652
     25651     25650     25653     25652     25650     25653     25650     25653     25654
     25650     25653     25655     25650     25653     25656     25654     25653     25655
     25654     25653     25656     25655     25653     25656     25653     25656     25657
     25653     25656     25658     25653     25656     25659     25657     25656     25658
     25657     25656     25659     25658     25656     25659     25656     25659     25660
     25656     25659     25661     25660     25659     25661     25659     25661     25662
     25659     25661     25663     25662     25661     25663     25661     25663     25664
     25661     25663     25665     25661     25663     25666     25664     25663     25665
     25664     25663     25666     25665     25663     25666     25663     25666     25667
     25663     25666     25668     25663     25666     25669     25667     25666     25668
     25667     25666     25669     25668     25666     25669     25666     25669     25670
     25666     25669     25671     25666     25669     25672     25670     25669     25671
     25670     25669     25672     25671     25669     25672     25669     25672     25673
     25669     25672     25674     25669     25672     25675     25673     25672     25674
     25673     25672     25675     25674     25672     25675     25672     25675     25676
     25672     25675     25677     25672     25675     25678     25676     25675     25677
     25676     25675     25678     25677     25675     25678     25675     25678     25679
     25675     25678     25680     25675     25678     25681     25679     25678     25680
     25679     25678     25681     25680     25678     25681     25678     25681     25682
     25678     25681     25683     25678     25681     25684     25682     25681     25683
     25682     25681     25684     25683     25681     25684     25681     25684     25685
     25681     25684     25686     25681     25684     25687     25685     25684     25686
     25685     25684     25687     25686     25684     25687     25638     25688     25689
     25638     25688     25690     25638     25688     25691     25689     25688     25690
     25689     25688     25691     25690     25688     25691     25688     25691     25692
     25688     25691     25693     25688     25691     25694     25692     25691     25693
     25692     25691     25694     25693     25691     25694     25691     25694     25695
     25691     25694     25696     25691     25694     25697     25695     25694     25696
     25695     25694     25697     25696     25694     25697     25694     25697     25698
     25694     25697     25699     25694     25697     25700     25698     25697     25699
     25698     25697     25700     25699     25697     25700     25697     25700     25701
     25697     25700     25702     25697     25700     25703     25701     25700     25702
     25701     25700     25703     25702     25700     25703     25700     25703     25704
     25700     25703     25705     25700     25703     25706     25704     25703     25705
     25704     25703     25706     25705     25703     25706     25703     25706     25707
     25703     25706     25708     25703     25706     25709     25707     25706     25708
     25707     25706     25709     25708     25706     25709     25706     25709     25710
     25706     25709     25711     25706     25709     25712     25710     25709     25711
     25710     25709     25712     25711     25709     25712     25709     25712     25713
     25709     25712     25714     25709     25712     25715     25713     25712     25714
     25713     25712     25715     25714     25712     25715     25712     25715     25716
     25712     25715     25717     25712     25715     25718     25716     25715     25717
     25716     25715     25718     25717     25715     25718     25715     25718     25719
     25715     25718     25720     25715     25718     25721     25719     25718     25720
     25719     25718     25721     25720     25718     25721     25718     25721     25722
     25718     25721     25723     25718     25721     25724     25722     25721     25723
     25722     25721     25724     25723     25721     25724     25721     25724     25725
     25721     25724     25726     25721     25724     25727     25725     25724     25726
     25725     25724     25727     25726     25724     25727     25724     25727     25728
     25724     25727     25729     25724     25727     25730     25728     25727     25729
     25728     25727     25730     25729     25727     25730     25732     25731     25735
     25732     25731     25739     25732     25731     25743     25735     25731     25739
     25735     25731     25743     25739     25731     25743     25731     25732     25733
     25731     25732     25734     25731     25732     25747     25733     25732     25734
     25733     25732     25747     25734     25732     25747     25731     25735     25736
     25731     25735     25737     25731     25735     25738     25736     25735     25737
     25736     25735     25738     25737     25735     25738     25731     25739     25740
     25731     25739     25741     25731     25739     25742     25740     25739     25741
     25740     25739     25742     25741     25739     25742     25731     25743     25744
     25731     25743     25745     25731     25743     25746     25744     25743     25745
     25744     25743     25746     25745     25743     25746     25732     25747     25748
     25732     25747     25749     25732     25747     25753     25748     25747     25749
     25748     25747     25753     25749     25747     25753     25751     25750     25752
     25751     25750     25753     25751     25750     25754     25752     25750     25753
     25752     25750     25754     25753     25750     25754     25747     25753     25750
     25750     25754     25755     25754     25755     25756     25754     25755     25757
     25754     25755     25758     25756     25755     25757     25756     25755     25758
     25757     25755     25758     25755     25758     25759     25755     25758     25760
     25755     25758     25766     25759     25758     25760     25759     25758     25766
     25760     25758     25766     25758     25760     25761     25760     25761     25762
     25760     25761     25763     25762     25761     25763     25761     25763     25764
     25761     25763     25765     25761     25763     25775     25764     25763     25765
     25764     25763     25775     25765     25763     25775     25758     25766     25767
     25758     25766     25768     25758     25766     25769     25767     25766     25768
     25767     25766     25769     25768     25766     25769     25766     25769     25770
     25769     25770     25771     25769     25770     25772     25771     25770     25772
     25770     25772     25773     25770     25772     25774     25770     25772     25822
     25773     25772     25774     25773     25772     25822     25774     25772     25822
     25763     25775     25776     25763     25775     25777     25763     25775     25778
     25776     25775     25777     25776     25775     25778     25777     25775     25778
     25775     25778     25779     25775     25778     25780     25775     25778     25781
     25779     25778     25780     25779     25778     25781     25780     25778     25781
     25778     25781     25782     25778     25781     25783     25778     25781     25784
     25782     25781     25783     25782     25781     25784     25783     25781     25784
     25781     25784     25785     25781     25784     25786     25781     25784     25787
     25785     25784     25786     25785     25784     25787     25786     25784     25787
     25784     25787     25788     25784     25787     25789     25784     25787     25790
     25788     25787     25789     25788     25787     25790     25789     25787     25790
     25787     25790     25791     25787     25790     25792     25787     25790     25793
     25791     25790     25792     25791     25790     25793     25792     25790     25793
     25790     25793     25794     25790     25793     25795     25794     25793     25795
     25793     25795     25796     25793     25795     25797     25796     25795     25797
     25795     25797     25798     25795     25797     25799     25795     25797     25800
     25798     25797     25799     25798     25797     25800     25799     25797     25800
     25797     25800     25801     25797     25800     25802     25797     25800     25803
     25801     25800     25802     25801     25800     25803     25802     25800     25803
     25800     25803     25804     25800     25803     25805     25800     25803     25806
     25804     25803     25805     25804     25803     25806     25805     25803     25806
     25803     25806     25807     25803     25806     25808     25803     25806     25809
     25807     25806     25808     25807     25806     25809     25808     25806     25809
     25806     25809     25810     25806     25809     25811     25806     25809     25812
     25810     25809     25811     25810     25809     25812     25811     25809     25812
     25809     25812     25813     25809     25812     25814     25809     25812     25815
     25813     25812     25814     25813     25812     25815     25814     25812     25815
     25812     25815     25816     25812     25815     25817     25812     25815     25818
     25816     25815     25817     25816     25815     25818     25817     25815     25818
     25815     25818     25819     25815     25818     25820     25815     25818     25821
     25819     25818     25820     25819     25818     25821     25820     25818     25821
     25772     25822     25823     25772     25822     25824     25772     25822     25825
     25823     25822     25824     25823     25822     25825     25824     25822     25825
     25822     25825     25826     25822     25825     25827     25822     25825     25828
     25826     25825     25827     25826     25825     25828     25827     25825     25828
     25825     25828     25829     25825     25828     25830     25825     25828     25831
     25829     25828     25830     25829     25828     25831     25830     25828     25831
     25828     25831     25832     25828     25831     25833     25828     25831     25834
     25832     25831     25833     25832     25831     25834     25833     25831     25834
     25831     25834     25835     25831     25834     25836     25831     25834     25837
     25835     25834     25836     25835     25834     25837     25836     25834     25837
     25834     25837     25838     25834     25837     25839     25834     25837     25840
     25838     25837     25839     25838     25837     25840     25839     25837     25840
     25837     25840     25841     25837     25840     25842     25837     25840     25843
     25841     25840     25842     25841     25840     25843     25842     25840     25843
     25840     25843     25844     25840     25843     25845     25840     25843     25846
     25844     25843     25845     25844     25843     25846     25845     25843     25846
     25843     25846     25847     25843     25846     25848     25843     25846     25849
     25847     25846     25848     25847     25846     25849     25848     25846     25849
     25846     25849     25850     25846     25849     25851     25846     25849     25852
     25850     25849     25851     25850     25849     25852     25851     25849     25852
     25849     25852     25853     25849     25852     25854     25849     25852     25855
     25853     25852     25854     25853     25852     25855     25854     25852     25855
     25852     25855     25856     25852     25855     25857     25852     25855     25858
     25856     25855     25857     25856     25855     25858     25857     25855     25858
     25855     25858     25859     25855     25858     25860     25855     25858     25861
     25859     25858     25860     25859     25858     25861     25860     25858     25861
     25858     25861     25862     25858     25861     25863     25858     25861     25864
     25862     25861     25863     25862     25861     25864     25863     25861     25864
     25866     25865     25869     25866     25865     25873     25866     25865     25877
     25869     25865     25873     25869     25865     25877     25873     25865     25877
     25865     25866     25867     25865     25866     25868     25865     25866     25881
     25867     25866     25868     25867     25866     25881     25868     25866     25881
     25865     25869     25870     25865     25869     25871     25865     25869     25872
     25870     25869     25871     25870     25869     25872     25871     25869     25872
     25865     25873     25874     25865     25873     25875     25865     25873     25876
     25874     25873     25875     25874     25873     25876     25875     25873     25876
     25865     25877     25878     25865     25877     25879     25865     25877     25880
     25878     25877     25879     25878     25877     25880     25879     25877     25880
     25866     25881     25882     25866     25881     25883     25866     25881     25887
     25882     25881     25883     25882     25881     25887     25883     25881     25887
     25885     25884     25886     25885     25884     25887     25885     25884     25888
     25886     25884     25887     25886     25884     25888     25887     25884     25888
     25881     25887     25884     25884     25888     25889     25888     25889     25890
     25888     25889     25891     25888     25889     25892     25890     25889     25891
     25890     25889     25892     25891     25889     25892     25889     25892     25893
     25889     25892     25894     25889     25892     25900     25893     25892     25894
     25893     25892     25900     25894     25892     25900     25892     25894     25895
     25894     25895     25896     25894     25895     25897     25896     25895     25897
     25895     25897     25898     25895     25897     25899     25895     25897     25909
     25898     25897     25899     25898     25897     25909     25899     25897     25909
     25892     25900     25901     25892     25900     25902     25892     25900     25903
     25901     25900     25902     25901     25900     25903     25902     25900     25903
     25900     25903     25904     25903     25904     25905     25903     25904     25906
     25905     25904     25906     25904     25906     25907     25904     25906     25908
     25904     25906     25956     25907     25906     25908     25907     25906     25956
     25908     25906     25956     25897     25909     25910     25897     25909     25911
     25897     25909     25912     25910     25909     25911     25910     25909     25912
     25911     25909     25912     25909     25912     25913     25909     25912     25914
     25909     25912     25915     25913     25912     25914     25913     25912     25915
     25914     25912     25915     25912     25915     25916     25912     25915     25917
     25912     25915     25918     25916     25915     25917     25916     25915     25918
     25917     25915     25918     25915     25918     25919     25915     25918     25920
     25915     25918     25921     25919     25918     25920     25919     25918     25921
     25920     25918     25921     25918     25921     25922     25918     25921     25923
     25918     25921     25924     25922     25921     25923     25922     25921     25924
     25923     25921     25924     25921     25924     25925     25921     25924     25926
     25921     25924     25927     25925     25924     25926     25925     25924     25927
     25926     25924     25927     25924     25927     25928     25924     25927     25929
     25928     25927     25929     25927     25929     25930     25927     25929     25931
     25930     25929     25931     25929     25931     25932     25929     25931     25933
     25929     25931     25934     25932     25931     25933     25932     25931     25934
     25933     25931     25934     25931     25934     25935     25931     25934     25936
     25931     25934     25937     25935     25934     25936     25935     25934     25937
     25936     25934     25937     25934     25937     25938     25934     25937     25939
     25934     25937     25940     25938     25937     25939     25938     25937     25940
     25939     25937     25940     25937     25940     25941     25937     25940     25942
     25937     25940     25943     25941     25940     25942     25941     25940     25943
     25942     25940     25943     25940     25943     25944     25940     25943     25945
     25940     25943     25946     25944     25943     25945     25944     25943     25946
     25945     25943     25946     25943     25946     25947     25943     25946     25948
     25943     25946     25949     25947     25946     25948     25947     25946     25949
     25948     25946     25949     25946     25949     25950     25946     25949     25951
     25946     25949     25952     25950     25949     25951     25950     25949     25952
     25951     25949     25952     25949     25952     25953     25949     25952     25954
     25949     25952     25955     25953     25952     25954     25953     25952     25955
     25954     25952     25955     25906     25956     25957     25906     25956     25958
     25906     25956     25959     25957     25956     25958     25957     25956     25959
     25958     25956     25959     25956     25959     25960     25956     25959     25961
     25956     25959     25962     25960     25959     25961     25960     25959     25962
     25961     25959     25962     25959     25962     25963     25959     25962     25964
     25959     25962     25965     25963     25962     25964     25963     25962     25965
     25964     25962     25965     25962     25965     25966     25962     25965     25967
     25962     25965     25968     25966     25965     25967     25966     25965     25968
     25967     25965     25968     25965     25968     25969     25965     25968     25970
     25965     25968     25971     25969     25968     25970     25969     25968     25971
     25970     25968     25971     25968     25971     25972     25968     25971     25973
     25968     25971     25974     25972     25971     25973     25972     25971     25974
     25973     25971     25974     25971     25974     25975     25971     25974     25976
     25971     25974     25977     25975     25974     25976     25975     25974     25977
     25976     25974     25977     25974     25977     25978     25974     25977     25979
     25974     25977     25980     25978     25977     25979     25978     25977     25980
     25979     25977     25980     25977     25980     25981     25977     25980     25982
     25977     25980     25983     25981     25980     25982     25981     25980     25983
     25982     25980     25983     25980     25983     25984     25980     25983     25985
     25980     25983     25986     25984     25983     25985     25984     25983     25986
     25985     25983     25986     25983     25986     25987     25983     25986     25988
     25983     25986     25989     25987     25986     25988     25987     25986     25989
     25988     25986     25989     25986     25989     25990     25986     25989     25991
     25986     25989     25992     25990     25989     25991     25990     25989     25992
     25991     25989     25992     25989     25992     25993     25989     25992     25994
     25989     25992     25995     25993     25992     25994     25993     25992     25995
     25994     25992     25995     25992     25995     25996     25992     25995     25997
     25992     25995     25998     25996     25995     25997     25996     25995     25998
     25997     25995     25998     26000     25999     26001     26000     25999     26002
     26000     25999     26003     26001     25999     26002     26001     25999     26003
     26002     25999     26003     25999     26003     26004     25999     26003     26005
     25999     26003     26008     26004     26003     26005     26004     26003     26008
     26005     26003     26008     26003     26005     26006     26003     26005     26007
     26006     26005     26007     26003     26008     26009     26003     26008     26010
     26003     26008     26014     26009     26008     26010     26009     26008     26014
     26010     26008     26014     26012     26011     26013     26012     26011     26014
     26012     26011     26015     26013     26011     26014     26013     26011     26015
     26014     26011     26015     26008     26014     26011     26011     26015     26016
     26015     26016     26017     26015     26016     26018     26015     26016     26019
     26017     26016     26018     26017     26016     26019     26018     26016     26019
     26016     26019     26020     26016     26019     26021     26016     26019     26027
     26020     26019     26021     26020     26019     26027     26021     26019     26027
     26019     26021     26022     26021     26022     26023     26021     26022     26024
     26023     26022     26024     26022     26024     26025     26022     26024     26026
     26022     26024     26036     26025     26024     26026     26025     26024     26036
     26026     26024     26036     26019     26027     26028     26019     26027     26029
     26019     26027     26030     26028     26027     26029     26028     26027     26030
     26029     26027     26030     26027     26030     26031     26030     26031     26032
     26030     26031     26033     26032     26031     26033     26031     26033     26034
     26031     26033     26035     26031     26033     26083     26034     26033     26035
     26034     26033     26083     26035     26033     26083     26024     26036     26037
     26024     26036     26038     26024     26036     26039     26037     26036     26038
     26037     26036     26039     26038     26036     26039     26036     26039     26040
     26036     26039     26041     26036     26039     26042     26040     26039     26041
     26040     26039     26042     26041     26039     26042     26039     26042     26043
     26039     26042     26044     26039     26042     26045     26043     26042     26044
     26043     26042     26045     26044     26042     26045     26042     26045     26046
     26042     26045     26047     26042     26045     26048     26046     26045     26047
     26046     26045     26048     26047     26045     26048     26045     26048     26049
     26045     26048     26050     26045     26048     26051     26049     26048     26050
     26049     26048     26051     26050     26048     26051     26048     26051     26052
     26048     26051     26053     26048     26051     26054     26052     26051     26053
     26052     26051     26054     26053     26051     26054     26051     26054     26055
     26051     26054     26056     26055     26054     26056     26054     26056     26057
     26054     26056     26058     26057     26056     26058     26056     26058     26059
     26056     26058     26060     26056     26058     26061     26059     26058     26060
     26059     26058     26061     26060     26058     26061     26058     26061     26062
     26058     26061     26063     26058     26061     26064     26062     26061     26063
     26062     26061     26064     26063     26061     26064     26061     26064     26065
     26061     26064     26066     26061     26064     26067     26065     26064     26066
     26065     26064     26067     26066     26064     26067     26064     26067     26068
     26064     26067     26069     26064     26067     26070     26068     26067     26069
     26068     26067     26070     26069     26067     26070     26067     26070     26071
     26067     26070     26072     26067     26070     26073     26071     26070     26072
     26071     26070     26073     26072     26070     26073     26070     26073     26074
     26070     26073     26075     26070     26073     26076     26074     26073     26075
     26074     26073     26076     26075     26073     26076     26073     26076     26077
     26073     26076     26078     26073     26076     26079     26077     26076     26078
     26077     26076     26079     26078     26076     26079     26076     26079     26080
     26076     26079     26081     26076     26079     26082     26080     26079     26081
     26080     26079     26082     26081     26079     26082     26033     26083     26084
     26033     26083     26085     26033     26083     26086     26084     26083     26085
     26084     26083     26086     26085     26083     26086     26083     26086     26087
     26083     26086     26088     26083     26086     26089     26087     26086     26088
     26087     26086     26089     26088     26086     26089     26086     26089     26090
     26086     26089     26091     26086     26089     26092     26090     26089     26091
     26090     26089     26092     26091     26089     26092     26089     26092     26093
     26089     26092     26094     26089     26092     26095     26093     26092     26094
     26093     26092     26095     26094     26092     26095     26092     26095     26096
     26092     26095     26097     26092     26095     26098     26096     26095     26097
     26096     26095     26098     26097     26095     26098     26095     26098     26099
     26095     26098     26100     26095     26098     26101     26099     26098     26100
     26099     26098     26101     26100     26098     26101     26098     26101     26102
     26098     26101     26103     26098     26101     26104     26102     26101     26103
     26102     26101     26104     26103     26101     26104     26101     26104     26105
     26101     26104     26106     26101     26104     26107     26105     26104     26106
     26105     26104     26107     26106     26104     26107     26104     26107     26108
     26104     26107     26109     26104     26107     26110     26108     26107     26109
     26108     26107     26110     26109     26107     26110     26107     26110     26111
     26107     26110     26112     26107     26110     26113     26111     26110     26112
     26111     26110     26113     26112     26110     26113     26110     26113     26114
     26110     26113     26115     26110     26113     26116     26114     26113     26115
     26114     26113     26116     26115     26113     26116     26113     26116     26117
     26113     26116     26118     26113     26116     26119     26117     26116     26118
     26117     26116     26119     26118     26116     26119     26116     26119     26120
     26116     26119     26121     26116     26119     26122     26120     26119     26121
     26120     26119     26122     26121     26119     26122     26119     26122     26123
     26119     26122     26124     26119     26122     26125     26123     26122     26124
     26123     26122     26125     26124     26122     26125     26127     26126     26130
     26127     26126     26134     26127     26126     26138     26130     26126     26134
     26130     26126     26138     26134     26126     26138     26126     26127     26128
     26126     26127     26129     26126     26127     26142     26128     26127     26129
     26128     26127     26142     26129     26127     26142     26126     26130     26131
     26126     26130     26132     26126     26130     26133     26131     26130     26132
     26131     26130     26133     26132     26130     26133     26126     26134     26135
     26126     26134     26136     26126     26134     26137     26135     26134     26136
     26135     26134     26137     26136     26134     26137     26126     26138     26139
     26126     26138     26140     26126     26138     26141     26139     26138     26140
     26139     26138     26141     26140     26138     26141     26127     26142     26143
     26127     26142     26144     26127     26142     26148     26143     26142     26144
     26143     26142     26148     26144     26142     26148     26146     26145     26147
     26146     26145     26148     26146     26145     26149     26147     26145     26148
     26147     26145     26149     26148     26145     26149     26142     26148     26145
     26145     26149     26150     26149     26150     26151     26149     26150     26152
     26149     26150     26153     26151     26150     26152     26151     26150     26153
     26152     26150     26153     26150     26153     26154     26150     26153     26155
     26150     26153     26161     26154     26153     26155     26154     26153     26161
     26155     26153     26161     26153     26155     26156     26155     26156     26157
     26155     26156     26158     26157     26156     26158     26156     26158     26159
     26156     26158     26160     26156     26158     26170     26159     26158     26160
     26159     26158     26170     26160     26158     26170     26153     26161     26162
     26153     26161     26163     26153     26161     26164     26162     26161     26163
     26162     26161     26164     26163     26161     26164     26161     26164     26165
     26164     26165     26166     26164     26165     26167     26166     26165     26167
     26165     26167     26168     26165     26167     26169     26165     26167     26217
     26168     26167     26169     26168     26167     26217     26169     26167     26217
     26158     26170     26171     26158     26170     26172     26158     26170     26173
     26171     26170     26172     26171     26170     26173     26172     26170     26173
     26170     26173     26174     26170     26173     26175     26170     26173     26176
     26174     26173     26175     26174     26173     26176     26175     26173     26176
     26173     26176     26177     26173     26176     26178     26173     26176     26179
     26177     26176     26178     26177     26176     26179     26178     26176     26179
     26176     26179     26180     26176     26179     26181     26176     26179     26182
     26180     26179     26181     26180     26179     26182     26181     26179     26182
     26179     26182     26183     26179     26182     26184     26179     26182     26185
     26183     26182     26184     26183     26182     26185     26184     26182     26185
     26182     26185     26186     26182     26185     26187     26182     26185     26188
     26186     26185     26187     26186     26185     26188     26187     26185     26188
     26185     26188     26189     26185     26188     26190     26189     26188     26190
     26188     26190     26191     26188     26190     26192     26191     26190     26192
     26190     26192     26193     26190     26192     26194     26190     26192     26195
     26193     26192     26194     26193     26192     26195     26194     26192     26195
     26192     26195     26196     26192     26195     26197     26192     26195     26198
     26196     26195     26197     26196     26195     26198     26197     26195     26198
     26195     26198     26199     26195     26198     26200     26195     26198     26201
     26199     26198     26200     26199     26198     26201     26200     26198     26201
     26198     26201     26202     26198     26201     26203     26198     26201     26204
     26202     26201     26203     26202     26201     26204     26203     26201     26204
     26201     26204     26205     26201     26204     26206     26201     26204     26207
     26205     26204     26206     26205     26204     26207     26206     26204     26207
     26204     26207     26208     26204     26207     26209     26204     26207     26210
     26208     26207     26209     26208     26207     26210     26209     26207     26210
     26207     26210     26211     26207     26210     26212     26207     26210     26213
     26211     26210     26212     26211     26210     26213     26212     26210     26213
     26210     26213     26214     26210     26213     26215     26210     26213     26216
     26214     26213     26215     26214     26213     26216     26215     26213     26216
     26167     26217     26218     26167     26217     26219     26167     26217     26220
     26218     26217     26219     26218     26217     26220     26219     26217     26220
     26217     26220     26221     26217     26220     26222     26217     26220     26223
     26221     26220     26222     26221     26220     26223     26222     26220     26223
     26220     26223     26224     26220     26223     26225     26220     26223     26226
     26224     26223     26225     26224     26223     26226     26225     26223     26226
     26223     26226     26227     26223     26226     26228     26223     26226     26229
     26227     26226     26228     26227     26226     26229     26228     26226     26229
     26226     26229     26230     26226     26229     26231     26226     26229     26232
     26230     26229     26231     26230     26229     26232     26231     26229     26232
     26229     26232     26233     26229     26232     26234     26229     26232     26235
     26233     26232     26234     26233     26232     26235     26234     26232     26235
     26232     26235     26236     26232     26235     26237     26232     26235     26238
     26236     26235     26237     26236     26235     26238     26237     26235     26238
     26235     26238     26239     26235     26238     26240     26235     26238     26241
     26239     26238     26240     26239     26238     26241     26240     26238     26241
     26238     26241     26242     26238     26241     26243     26238     26241     26244
     26242     26241     26243     26242     26241     26244     26243     26241     26244
     26241     26244     26245     26241     26244     26246     26241     26244     26247
     26245     26244     26246     26245     26244     26247     26246     26244     26247
     26244     26247     26248     26244     26247     26249     26244     26247     26250
     26248     26247     26249     26248     26247     26250     26249     26247     26250
     26247     26250     26251     26247     26250     26252     26247     26250     26253
     26251     26250     26252     26251     26250     26253     26252     26250     26253
     26250     26253     26254     26250     26253     26255     26250     26253     26256
     26254     26253     26255     26254     26253     26256     26255     26253     26256
     26253     26256     26257     26253     26256     26258     26253     26256     26259
     26257     26256     26258     26257     26256     26259     26258     26256     26259
     26261     26260     26262     26261     26260     26263     26261     26260     26264
     26262     26260     26263     26262     26260     26264     26263     26260     26264
     26260     26264     26265     26260     26264     26266     26260     26264     26269
     26265     26264     26266     26265     26264     26269     26266     26264     26269
     26264     26266     26267     26264     26266     26268     26267     26266     26268
     26264     26269     26270     26264     26269     26271     26264     26269     26275
     26270     26269     26271     26270     26269     26275     26271     26269     26275
     26273     26272     26274     26273     26272     26275     26273     26272     26276
     26274     26272     26275     26274     26272     26276     26275     26272     26276
     26269     26275     26272     26272     26276     26277     26276     26277     26278
     26276     26277     26279     26276     26277     26280     26278     26277     26279
     26278     26277     26280     26279     26277     26280     26277     26280     26281
     26277     26280     26282     26277     26280     26288     26281     26280     26282
     26281     26280     26288     26282     26280     26288     26280     26282     26283
     26282     26283     26284     26282     26283     26285     26284     26283     26285
     26283     26285     26286     26283     26285     26287     26283     26285     26297
     26286     26285     26287     26286     26285     26297     26287     26285     26297
     26280     26288     26289     26280     26288     26290     26280     26288     26291
     26289     26288     26290     26289     26288     26291     26290     26288     26291
     26288     26291     26292     26291     26292     26293     26291     26292     26294
     26293     26292     26294     26292     26294     26295     26292     26294     26296
     26292     26294     26344     26295     26294     26296     26295     26294     26344
     26296     26294     26344     26285     26297     26298     26285     26297     26299
     26285     26297     26300     26298     26297     26299     26298     26297     26300
     26299     26297     26300     26297     26300     26301     26297     26300     26302
     26297     26300     26303     26301     26300     26302     26301     26300     26303
     26302     26300     26303     26300     26303     26304     26300     26303     26305
     26300     26303     26306     26304     26303     26305     26304     26303     26306
     26305     26303     26306     26303     26306     26307     26303     26306     26308
     26303     26306     26309     26307     26306     26308     26307     26306     26309
     26308     26306     26309     26306     26309     26310     26306     26309     26311
     26306     26309     26312     26310     26309     26311     26310     26309     26312
     26311     26309     26312     26309     26312     26313     26309     26312     26314
     26309     26312     26315     26313     26312     26314     26313     26312     26315
     26314     26312     26315     26312     26315     26316     26312     26315     26317
     26316     26315     26317     26315     26317     26318     26315     26317     26319
     26318     26317     26319     26317     26319     26320     26317     26319     26321
     26317     26319     26322     26320     26319     26321     26320     26319     26322
     26321     26319     26322     26319     26322     26323     26319     26322     26324
     26319     26322     26325     26323     26322     26324     26323     26322     26325
     26324     26322     26325     26322     26325     26326     26322     26325     26327
     26322     26325     26328     26326     26325     26327     26326     26325     26328
     26327     26325     26328     26325     26328     26329     26325     26328     26330
     26325     26328     26331     26329     26328     26330     26329     26328     26331
     26330     26328     26331     26328     26331     26332     26328     26331     26333
     26328     26331     26334     26332     26331     26333     26332     26331     26334
     26333     26331     26334     26331     26334     26335     26331     26334     26336
     26331     26334     26337     26335     26334     26336     26335     26334     26337
     26336     26334     26337     26334     26337     26338     26334     26337     26339
     26334     26337     26340     26338     26337     26339     26338     26337     26340
     26339     26337     26340     26337     26340     26341     26337     26340     26342
     26337     26340     26343     26341     26340     26342     26341     26340     26343
     26342     26340     26343     26294     26344     26345     26294     26344     26346
     26294     26344     26347     26345     26344     26346     26345     26344     26347
     26346     26344     26347     26344     26347     26348     26344     26347     26349
     26344     26347     26350     26348     26347     26349     26348     26347     26350
     26349     26347     26350     26347     26350     26351     26347     26350     26352
     26347     26350     26353     26351     26350     26352     26351     26350     26353
     26352     26350     26353     26350     26353     26354     26350     26353     26355
     26350     26353     26356     26354     26353     26355     26354     26353     26356
     26355     26353     26356     26353     26356     26357     26353     26356     26358
     26353     26356     26359     26357     26356     26358     26357     26356     26359
     26358     26356     26359     26356     26359     26360     26356     26359     26361
     26356     26359     26362     26360     26359     26361     26360     26359     26362
     26361     26359     26362     26359     26362     26363     26359     26362     26364
     26359     26362     26365     26363     26362     26364     26363     26362     26365
     26364     26362     26365     26362     26365     26366     26362     26365     26367
     26362     26365     26368     26366     26365     26367     26366     26365     26368
     26367     26365     26368     26365     26368     26369     26365     26368     26370
     26365     26368     26371     26369     26368     26370     26369     26368     26371
     26370     26368     26371     26368     26371     26372     26368     26371     26373
     26368     26371     26374     26372     26371     26373     26372     26371     26374
     26373     26371     26374     26371     26374     26375     26371     26374     26376
     26371     26374     26377     26375     26374     26376     26375     26374     26377
     26376     26374     26377     26374     26377     26378     26374     26377     26379
     26374     26377     26380     26378     26377     26379     26378     26377     26380
     26379     26377     26380     26377     26380     26381     26377     26380     26382
     26377     26380     26383     26381     26380     26382     26381     26380     26383
     26382     26380     26383     26380     26383     26384     26380     26383     26385
     26380     26383     26386     26384     26383     26385     26384     26383     26386
     26385     26383     26386     26388     26387     26389     26388     26387     26390
     26388     26387     26391     26389     26387     26390     26389     26387     26391
     26390     26387     26391     26387     26391     26392     26387     26391     26393
     26387     26391     26396     26392     26391     26393     26392     26391     26396
     26393     26391     26396     26391     26393     26394     26391     26393     26395
     26394     26393     26395     26391     26396     26397     26391     26396     26398
     26391     26396     26402     26397     26396     26398     26397     26396     26402
     26398     26396     26402     26400     26399     26401     26400     26399     26402
     26400     26399     26403     26401     26399     26402     26401     26399     26403
     26402     26399     26403     26396     26402     26399     26399     26403     26404
     26403     26404     26405     26403     26404     26406     26403     26404     26407
     26405     26404     26406     26405     26404     26407     26406     26404     26407
     26404     26407     26408     26404     26407     26409     26404     26407     26415
     26408     26407     26409     26408     26407     26415     26409     26407     26415
     26407     26409     26410     26409     26410     26411     26409     26410     26412
     26411     26410     26412     26410     26412     26413     26410     26412     26414
     26410     26412     26424     26413     26412     26414     26413     26412     26424
     26414     26412     26424     26407     26415     26416     26407     26415     26417
     26407     26415     26418     26416     26415     26417     26416     26415     26418
     26417     26415     26418     26415     26418     26419     26418     26419     26420
     26418     26419     26421     26420     26419     26421     26419     26421     26422
     26419     26421     26423     26419     26421     26471     26422     26421     26423
     26422     26421     26471     26423     26421     26471     26412     26424     26425
     26412     26424     26426     26412     26424     26427     26425     26424     26426
     26425     26424     26427     26426     26424     26427     26424     26427     26428
     26424     26427     26429     26424     26427     26430     26428     26427     26429
     26428     26427     26430     26429     26427     26430     26427     26430     26431
     26427     26430     26432     26427     26430     26433     26431     26430     26432
     26431     26430     26433     26432     26430     26433     26430     26433     26434
     26430     26433     26435     26430     26433     26436     26434     26433     26435
     26434     26433     26436     26435     26433     26436     26433     26436     26437
     26433     26436     26438     26433     26436     26439     26437     26436     26438
     26437     26436     26439     26438     26436     26439     26436     26439     26440
     26436     26439     26441     26436     26439     26442     26440     26439     26441
     26440     26439     26442     26441     26439     26442     26439     26442     26443
     26439     26442     26444     26443     26442     26444     26442     26444     26445
     26442     26444     26446     26445     26444     26446     26444     26446     26447
     26444     26446     26448     26444     26446     26449     26447     26446     26448
     26447     26446     26449     26448     26446     26449     26446     26449     26450
     26446     26449     26451     26446     26449     26452     26450     26449     26451
     26450     26449     26452     26451     26449     26452     26449     26452     26453
     26449     26452     26454     26449     26452     26455     26453     26452     26454
     26453     26452     26455     26454     26452     26455     26452     26455     26456
     26452     26455     26457     26452     26455     26458     26456     26455     26457
     26456     26455     26458     26457     26455     26458     26455     26458     26459
     26455     26458     26460     26455     26458     26461     26459     26458     26460
     26459     26458     26461     26460     26458     26461     26458     26461     26462
     26458     26461     26463     26458     26461     26464     26462     26461     26463
     26462     26461     26464     26463     26461     26464     26461     26464     26465
     26461     26464     26466     26461     26464     26467     26465     26464     26466
     26465     26464     26467     26466     26464     26467     26464     26467     26468
     26464     26467     26469     26464     26467     26470     26468     26467     26469
     26468     26467     26470     26469     26467     26470     26421     26471     26472
     26421     26471     26473     26421     26471     26474     26472     26471     26473
     26472     26471     26474     26473     26471     26474     26471     26474     26475
     26471     26474     26476     26471     26474     26477     26475     26474     26476
     26475     26474     26477     26476     26474     26477     26474     26477     26478
     26474     26477     26479     26474     26477     26480     26478     26477     26479
     26478     26477     26480     26479     26477     26480     26477     26480     26481
     26477     26480     26482     26477     26480     26483     26481     26480     26482
     26481     26480     26483     26482     26480     26483     26480     26483     26484
     26480     26483     26485     26480     26483     26486     26484     26483     26485
     26484     26483     26486     26485     26483     26486     26483     26486     26487
     26483     26486     26488     26483     26486     26489     26487     26486     26488
     26487     26486     26489     26488     26486     26489     26486     26489     26490
     26486     26489     26491     26486     26489     26492     26490     26489     26491
     26490     26489     26492     26491     26489     26492     26489     26492     26493
     26489     26492     26494     26489     26492     26495     26493     26492     26494
     26493     26492     26495     26494     26492     26495     26492     26495     26496
     26492     26495     26497     26492     26495     26498     26496     26495     26497
     26496     26495     26498     26497     26495     26498     26495     26498     26499
     26495     26498     26500     26495     26498     26501     26499     26498     26500
     26499     26498     26501     26500     26498     26501     26498     26501     26502
     26498     26501     26503     26498     26501     26504     26502     26501     26503
     26502     26501     26504     26503     26501     26504     26501     26504     26505
     26501     26504     26506     26501     26504     26507     26505     26504     26506
     26505     26504     26507     26506     26504     26507     26504     26507     26508
     26504     26507     26509     26504     26507     26510     26508     26507     26509
     26508     26507     26510     26509     26507     26510     26507     26510     26511
     26507     26510     26512     26507     26510     26513     26511     26510     26512
     26511     26510     26513     26512     26510     26513     26515     26514     26518
     26515     26514     26522     26515     26514     26526     26518     26514     26522
     26518     26514     26526     26522     26514     26526     26514     26515     26516
     26514     26515     26517     26514     26515     26530     26516     26515     26517
     26516     26515     26530     26517     26515     26530     26514     26518     26519
     26514     26518     26520     26514     26518     26521     26519     26518     26520
     26519     26518     26521     26520     26518     26521     26514     26522     26523
     26514     26522     26524     26514     26522     26525     26523     26522     26524
     26523     26522     26525     26524     26522     26525     26514     26526     26527
     26514     26526     26528     26514     26526     26529     26527     26526     26528
     26527     26526     26529     26528     26526     26529     26515     26530     26531
     26515     26530     26532     26515     26530     26536     26531     26530     26532
     26531     26530     26536     26532     26530     26536     26534     26533     26535
     26534     26533     26536     26534     26533     26537     26535     26533     26536
     26535     26533     26537     26536     26533     26537     26530     26536     26533
     26533     26537     26538     26537     26538     26539     26537     26538     26540
     26537     26538     26541     26539     26538     26540     26539     26538     26541
     26540     26538     26541     26538     26541     26542     26538     26541     26543
     26538     26541     26549     26542     26541     26543     26542     26541     26549
     26543     26541     26549     26541     26543     26544     26543     26544     26545
     26543     26544     26546     26545     26544     26546     26544     26546     26547
     26544     26546     26548     26544     26546     26558     26547     26546     26548
     26547     26546     26558     26548     26546     26558     26541     26549     26550
     26541     26549     26551     26541     26549     26552     26550     26549     26551
     26550     26549     26552     26551     26549     26552     26549     26552     26553
     26552     26553     26554     26552     26553     26555     26554     26553     26555
     26553     26555     26556     26553     26555     26557     26553     26555     26605
     26556     26555     26557     26556     26555     26605     26557     26555     26605
     26546     26558     26559     26546     26558     26560     26546     26558     26561
     26559     26558     26560     26559     26558     26561     26560     26558     26561
     26558     26561     26562     26558     26561     26563     26558     26561     26564
     26562     26561     26563     26562     26561     26564     26563     26561     26564
     26561     26564     26565     26561     26564     26566     26561     26564     26567
     26565     26564     26566     26565     26564     26567     26566     26564     26567
     26564     26567     26568     26564     26567     26569     26564     26567     26570
     26568     26567     26569     26568     26567     26570     26569     26567     26570
     26567     26570     26571     26567     26570     26572     26567     26570     26573
     26571     26570     26572     26571     26570     26573     26572     26570     26573
     26570     26573     26574     26570     26573     26575     26570     26573     26576
     26574     26573     26575     26574     26573     26576     26575     26573     26576
     26573     26576     26577     26573     26576     26578     26577     26576     26578
     26576     26578     26579     26576     26578     26580     26579     26578     26580
     26578     26580     26581     26578     26580     26582     26578     26580     26583
     26581     26580     26582     26581     26580     26583     26582     26580     26583
     26580     26583     26584     26580     26583     26585     26580     26583     26586
     26584     26583     26585     26584     26583     26586     26585     26583     26586
     26583     26586     26587     26583     26586     26588     26583     26586     26589
     26587     26586     26588     26587     26586     26589     26588     26586     26589
     26586     26589     26590     26586     26589     26591     26586     26589     26592
     26590     26589     26591     26590     26589     26592     26591     26589     26592
     26589     26592     26593     26589     26592     26594     26589     26592     26595
     26593     26592     26594     26593     26592     26595     26594     26592     26595
     26592     26595     26596     26592     26595     26597     26592     26595     26598
     26596     26595     26597     26596     26595     26598     26597     26595     26598
     26595     26598     26599     26595     26598     26600     26595     26598     26601
     26599     26598     26600     26599     26598     26601     26600     26598     26601
     26598     26601     26602     26598     26601     26603     26598     26601     26604
     26602     26601     26603     26602     26601     26604     26603     26601     26604
     26555     26605     26606     26555     26605     26607     26555     26605     26608
     26606     26605     26607     26606     26605     26608     26607     26605     26608
     26605     26608     26609     26605     26608     26610     26605     26608     26611
     26609     26608     26610     26609     26608     26611     26610     26608     26611
     26608     26611     26612     26608     26611     26613     26608     26611     26614
     26612     26611     26613     26612     26611     26614     26613     26611     26614
     26611     26614     26615     26611     26614     26616     26611     26614     26617
     26615     26614     26616     26615     26614     26617     26616     26614     26617
     26614     26617     26618     26614     26617     26619     26614     26617     26620
     26618     26617     26619     26618     26617     26620     26619     26617     26620
     26617     26620     26621     26617     26620     26622     26617     26620     26623
     26621     26620     26622     26621     26620     26623     26622     26620     26623
     26620     26623     26624     26620     26623     26625     26620     26623     26626
     26624     26623     26625     26624     26623     26626     26625     26623     26626
     26623     26626     26627     26623     26626     26628     26623     26626     26629
     26627     26626     26628     26627     26626     26629     26628     26626     26629
     26626     26629     26630     26626     26629     26631     26626     26629     26632
     26630     26629     26631     26630     26629     26632     26631     26629     26632
     26629     26632     26633     26629     26632     26634     26629     26632     26635
     26633     26632     26634     26633     26632     26635     26634     26632     26635
     26632     26635     26636     26632     26635     26637     26632     26635     26638
     26636     26635     26637     26636     26635     26638     26637     26635     26638
     26635     26638     26639     26635     26638     26640     26635     26638     26641
     26639     26638     26640     26639     26638     26641     26640     26638     26641
     26638     26641     26642     26638     26641     26643     26638     26641     26644
     26642     26641     26643     26642     26641     26644     26643     26641     26644
     26641     26644     26645     26641     26644     26646     26641     26644     26647
     26645     26644     26646     26645     26644     26647     26646     26644     26647
     26649     26648     26652     26649     26648     26656     26649     26648     26660
     26652     26648     26656     26652     26648     26660     26656     26648     26660
     26648     26649     26650     26648     26649     26651     26648     26649     26664
     26650     26649     26651     26650     26649     26664     26651     26649     26664
     26648     26652     26653     26648     26652     26654     26648     26652     26655
     26653     26652     26654     26653     26652     26655     26654     26652     26655
     26648     26656     26657     26648     26656     26658     26648     26656     26659
     26657     26656     26658     26657     26656     26659     26658     26656     26659
     26648     26660     26661     26648     26660     26662     26648     26660     26663
     26661     26660     26662     26661     26660     26663     26662     26660     26663
     26649     26664     26665     26649     26664     26666     26649     26664     26670
     26665     26664     26666     26665     26664     26670     26666     26664     26670
     26668     26667     26669     26668     26667     26670     26668     26667     26671
     26669     26667     26670     26669     26667     26671     26670     26667     26671
     26664     26670     26667     26667     26671     26672     26671     26672     26673
     26671     26672     26674     26671     26672     26675     26673     26672     26674
     26673     26672     26675     26674     26672     26675     26672     26675     26676
     26672     26675     26677     26672     26675     26683     26676     26675     26677
     26676     26675     26683     26677     26675     26683     26675     26677     26678
     26677     26678     26679     26677     26678     26680     26679     26678     26680
     26678     26680     26681     26678     26680     26682     26678     26680     26692
     26681     26680     26682     26681     26680     26692     26682     26680     26692
     26675     26683     26684     26675     26683     26685     26675     26683     26686
     26684     26683     26685     26684     26683     26686     26685     26683     26686
     26683     26686     26687     26686     26687     26688     26686     26687     26689
     26688     26687     26689     26687     26689     26690     26687     26689     26691
     26687     26689     26739     26690     26689     26691     26690     26689     26739
     26691     26689     26739     26680     26692     26693     26680     26692     26694
     26680     26692     26695     26693     26692     26694     26693     26692     26695
     26694     26692     26695     26692     26695     26696     26692     26695     26697
     26692     26695     26698     26696     26695     26697     26696     26695     26698
     26697     26695     26698     26695     26698     26699     26695     26698     26700
     26695     26698     26701     26699     26698     26700     26699     26698     26701
     26700     26698     26701     26698     26701     26702     26698     26701     26703
     26698     26701     26704     26702     26701     26703     26702     26701     26704
     26703     26701     26704     26701     26704     26705     26701     26704     26706
     26701     26704     26707     26705     26704     26706     26705     26704     26707
     26706     26704     26707     26704     26707     26708     26704     26707     26709
     26704     26707     26710     26708     26707     26709     26708     26707     26710
     26709     26707     26710     26707     26710     26711     26707     26710     26712
     26711     26710     26712     26710     26712     26713     26710     26712     26714
     26713     26712     26714     26712     26714     26715     26712     26714     26716
     26712     26714     26717     26715     26714     26716     26715     26714     26717
     26716     26714     26717     26714     26717     26718     26714     26717     26719
     26714     26717     26720     26718     26717     26719     26718     26717     26720
     26719     26717     26720     26717     26720     26721     26717     26720     26722
     26717     26720     26723     26721     26720     26722     26721     26720     26723
     26722     26720     26723     26720     26723     26724     26720     26723     26725
     26720     26723     26726     26724     26723     26725     26724     26723     26726
     26725     26723     26726     26723     26726     26727     26723     26726     26728
     26723     26726     26729     26727     26726     26728     26727     26726     26729
     26728     26726     26729     26726     26729     26730     26726     26729     26731
     26726     26729     26732     26730     26729     26731     26730     26729     26732
     26731     26729     26732     26729     26732     26733     26729     26732     26734
     26729     26732     26735     26733     26732     26734     26733     26732     26735
     26734     26732     26735     26732     26735     26736     26732     26735     26737
     26732     26735     26738     26736     26735     26737     26736     26735     26738
     26737     26735     26738     26689     26739     26740     26689     26739     26741
     26689     26739     26742     26740     26739     26741     26740     26739     26742
     26741     26739     26742     26739     26742     26743     26739     26742     26744
     26739     26742     26745     26743     26742     26744     26743     26742     26745
     26744     26742     26745     26742     26745     26746     26742     26745     26747
     26742     26745     26748     26746     26745     26747     26746     26745     26748
     26747     26745     26748     26745     26748     26749     26745     26748     26750
     26745     26748     26751     26749     26748     26750     26749     26748     26751
     26750     26748     26751     26748     26751     26752     26748     26751     26753
     26748     26751     26754     26752     26751     26753     26752     26751     26754
     26753     26751     26754     26751     26754     26755     26751     26754     26756
     26751     26754     26757     26755     26754     26756     26755     26754     26757
     26756     26754     26757     26754     26757     26758     26754     26757     26759
     26754     26757     26760     26758     26757     26759     26758     26757     26760
     26759     26757     26760     26757     26760     26761     26757     26760     26762
     26757     26760     26763     26761     26760     26762     26761     26760     26763
     26762     26760     26763     26760     26763     26764     26760     26763     26765
     26760     26763     26766     26764     26763     26765     26764     26763     26766
     26765     26763     26766     26763     26766     26767     26763     26766     26768
     26763     26766     26769     26767     26766     26768     26767     26766     26769
     26768     26766     26769     26766     26769     26770     26766     26769     26771
     26766     26769     26772     26770     26769     26771     26770     26769     26772
     26771     26769     26772     26769     26772     26773     26769     26772     26774
     26769     26772     26775     26773     26772     26774     26773     26772     26775
     26774     26772     26775     26772     26775     26776     26772     26775     26777
     26772     26775     26778     26776     26775     26777     26776     26775     26778
     26777     26775     26778     26775     26778     26779     26775     26778     26780
     26775     26778     26781     26779     26778     26780     26779     26778     26781
     26780     26778     26781     26783     26782     26786     26783     26782     26790
     26783     26782     26794     26786     26782     26790     26786     26782     26794
     26790     26782     26794     26782     26783     26784     26782     26783     26785
     26782     26783     26798     26784     26783     26785     26784     26783     26798
     26785     26783     26798     26782     26786     26787     26782     26786     26788
     26782     26786     26789     26787     26786     26788     26787     26786     26789
     26788     26786     26789     26782     26790     26791     26782     26790     26792
     26782     26790     26793     26791     26790     26792     26791     26790     26793
     26792     26790     26793     26782     26794     26795     26782     26794     26796
     26782     26794     26797     26795     26794     26796     26795     26794     26797
     26796     26794     26797     26783     26798     26799     26783     26798     26800
     26783     26798     26804     26799     26798     26800     26799     26798     26804
     26800     26798     26804     26802     26801     26803     26802     26801     26804
     26802     26801     26805     26803     26801     26804     26803     26801     26805
     26804     26801     26805     26798     26804     26801     26801     26805     26806
     26805     26806     26807     26805     26806     26808     26805     26806     26809
     26807     26806     26808     26807     26806     26809     26808     26806     26809
     26806     26809     26810     26806     26809     26811     26806     26809     26817
     26810     26809     26811     26810     26809     26817     26811     26809     26817
     26809     26811     26812     26811     26812     26813     26811     26812     26814
     26813     26812     26814     26812     26814     26815     26812     26814     26816
     26812     26814     26826     26815     26814     26816     26815     26814     26826
     26816     26814     26826     26809     26817     26818     26809     26817     26819
     26809     26817     26820     26818     26817     26819     26818     26817     26820
     26819     26817     26820     26817     26820     26821     26820     26821     26822
     26820     26821     26823     26822     26821     26823     26821     26823     26824
     26821     26823     26825     26821     26823     26873     26824     26823     26825
     26824     26823     26873     26825     26823     26873     26814     26826     26827
     26814     26826     26828     26814     26826     26829     26827     26826     26828
     26827     26826     26829     26828     26826     26829     26826     26829     26830
     26826     26829     26831     26826     26829     26832     26830     26829     26831
     26830     26829     26832     26831     26829     26832     26829     26832     26833
     26829     26832     26834     26829     26832     26835     26833     26832     26834
     26833     26832     26835     26834     26832     26835     26832     26835     26836
     26832     26835     26837     26832     26835     26838     26836     26835     26837
     26836     26835     26838     26837     26835     26838     26835     26838     26839
     26835     26838     26840     26835     26838     26841     26839     26838     26840
     26839     26838     26841     26840     26838     26841     26838     26841     26842
     26838     26841     26843     26838     26841     26844     26842     26841     26843
     26842     26841     26844     26843     26841     26844     26841     26844     26845
     26841     26844     26846     26845     26844     26846     26844     26846     26847
     26844     26846     26848     26847     26846     26848     26846     26848     26849
     26846     26848     26850     26846     26848     26851     26849     26848     26850
     26849     26848     26851     26850     26848     26851     26848     26851     26852
     26848     26851     26853     26848     26851     26854     26852     26851     26853
     26852     26851     26854     26853     26851     26854     26851     26854     26855
     26851     26854     26856     26851     26854     26857     26855     26854     26856
     26855     26854     26857     26856     26854     26857     26854     26857     26858
     26854     26857     26859     26854     26857     26860     26858     26857     26859
     26858     26857     26860     26859     26857     26860     26857     26860     26861
     26857     26860     26862     26857     26860     26863     26861     26860     26862
     26861     26860     26863     26862     26860     26863     26860     26863     26864
     26860     26863     26865     26860     26863     26866     26864     26863     26865
     26864     26863     26866     26865     26863     26866     26863     26866     26867
     26863     26866     26868     26863     26866     26869     26867     26866     26868
     26867     26866     26869     26868     26866     26869     26866     26869     26870
     26866     26869     26871     26866     26869     26872     26870     26869     26871
     26870     26869     26872     26871     26869     26872     26823     26873     26874
     26823     26873     26875     26823     26873     26876     26874     26873     26875
     26874     26873     26876     26875     26873     26876     26873     26876     26877
     26873     26876     26878     26873     26876     26879     26877     26876     26878
     26877     26876     26879     26878     26876     26879     26876     26879     26880
     26876     26879     26881     26876     26879     26882     26880     26879     26881
     26880     26879     26882     26881     26879     26882     26879     26882     26883
     26879     26882     26884     26879     26882     26885     26883     26882     26884
     26883     26882     26885     26884     26882     26885     26882     26885     26886
     26882     26885     26887     26882     26885     26888     26886     26885     26887
     26886     26885     26888     26887     26885     26888     26885     26888     26889
     26885     26888     26890     26885     26888     26891     26889     26888     26890
     26889     26888     26891     26890     26888     26891     26888     26891     26892
     26888     26891     26893     26888     26891     26894     26892     26891     26893
     26892     26891     26894     26893     26891     26894     26891     26894     26895
     26891     26894     26896     26891     26894     26897     26895     26894     26896
     26895     26894     26897     26896     26894     26897     26894     26897     26898
     26894     26897     26899     26894     26897     26900     26898     26897     26899
     26898     26897     26900     26899     26897     26900     26897     26900     26901
     26897     26900     26902     26897     26900     26903     26901     26900     26902
     26901     26900     26903     26902     26900     26903     26900     26903     26904
     26900     26903     26905     26900     26903     26906     26904     26903     26905
     26904     26903     26906     26905     26903     26906     26903     26906     26907
     26903     26906     26908     26903     26906     26909     26907     26906     26908
     26907     26906     26909     26908     26906     26909     26906     26909     26910
     26906     26909     26911     26906     26909     26912     26910     26909     26911
     26910     26909     26912     26911     26909     26912     26909     26912     26913
     26909     26912     26914     26909     26912     26915     26913     26912     26914
     26913     26912     26915     26914     26912     26915     26917     26916     26920
     26917     26916     26924     26917     26916     26928     26920     26916     26924
     26920     26916     26928     26924     26916     26928     26916     26917     26918
     26916     26917     26919     26916     26917     26932     26918     26917     26919
     26918     26917     26932     26919     26917     26932     26916     26920     26921
     26916     26920     26922     26916     26920     26923     26921     26920     26922
     26921     26920     26923     26922     26920     26923     26916     26924     26925
     26916     26924     26926     26916     26924     26927     26925     26924     26926
     26925     26924     26927     26926     26924     26927     26916     26928     26929
     26916     26928     26930     26916     26928     26931     26929     26928     26930
     26929     26928     26931     26930     26928     26931     26917     26932     26933
     26917     26932     26934     26917     26932     26938     26933     26932     26934
     26933     26932     26938     26934     26932     26938     26936     26935     26937
     26936     26935     26938     26936     26935     26939     26937     26935     26938
     26937     26935     26939     26938     26935     26939     26932     26938     26935
     26935     26939     26940     26939     26940     26941     26939     26940     26942
     26939     26940     26943     26941     26940     26942     26941     26940     26943
     26942     26940     26943     26940     26943     26944     26940     26943     26945
     26940     26943     26951     26944     26943     26945     26944     26943     26951
     26945     26943     26951     26943     26945     26946     26945     26946     26947
     26945     26946     26948     26947     26946     26948     26946     26948     26949
     26946     26948     26950     26946     26948     26960     26949     26948     26950
     26949     26948     26960     26950     26948     26960     26943     26951     26952
     26943     26951     26953     26943     26951     26954     26952     26951     26953
     26952     26951     26954     26953     26951     26954     26951     26954     26955
     26954     26955     26956     26954     26955     26957     26956     26955     26957
     26955     26957     26958     26955     26957     26959     26955     26957     27007
     26958     26957     26959     26958     26957     27007     26959     26957     27007
     26948     26960     26961     26948     26960     26962     26948     26960     26963
     26961     26960     26962     26961     26960     26963     26962     26960     26963
     26960     26963     26964     26960     26963     26965     26960     26963     26966
     26964     26963     26965     26964     26963     26966     26965     26963     26966
     26963     26966     26967     26963     26966     26968     26963     26966     26969
     26967     26966     26968     26967     26966     26969     26968     26966     26969
     26966     26969     26970     26966     26969     26971     26966     26969     26972
     26970     26969     26971     26970     26969     26972     26971     26969     26972
     26969     26972     26973     26969     26972     26974     26969     26972     26975
     26973     26972     26974     26973     26972     26975     26974     26972     26975
     26972     26975     26976     26972     26975     26977     26972     26975     26978
     26976     26975     26977     26976     26975     26978     26977     26975     26978
     26975     26978     26979     26975     26978     26980     26979     26978     26980
     26978     26980     26981     26978     26980     26982     26981     26980     26982
     26980     26982     26983     26980     26982     26984     26980     26982     26985
     26983     26982     26984     26983     26982     26985     26984     26982     26985
     26982     26985     26986     26982     26985     26987     26982     26985     26988
     26986     26985     26987     26986     26985     26988     26987     26985     26988
     26985     26988     26989     26985     26988     26990     26985     26988     26991
     26989     26988     26990     26989     26988     26991     26990     26988     26991
     26988     26991     26992     26988     26991     26993     26988     26991     26994
     26992     26991     26993     26992     26991     26994     26993     26991     26994
     26991     26994     26995     26991     26994     26996     26991     26994     26997
     26995     26994     26996     26995     26994     26997     26996     26994     26997
     26994     26997     26998     26994     26997     26999     26994     26997     27000
     26998     26997     26999     26998     26997     27000     26999     26997     27000
     26997     27000     27001     26997     27000     27002     26997     27000     27003
     27001     27000     27002     27001     27000     27003     27002     27000     27003
     27000     27003     27004     27000     27003     27005     27000     27003     27006
     27004     27003     27005     27004     27003     27006     27005     27003     27006
     26957     27007     27008     26957     27007     27009     26957     27007     27010
     27008     27007     27009     27008     27007     27010     27009     27007     27010
     27007     27010     27011     27007     27010     27012     27007     27010     27013
     27011     27010     27012     27011     27010     27013     27012     27010     27013
     27010     27013     27014     27010     27013     27015     27010     27013     27016
     27014     27013     27015     27014     27013     27016     27015     27013     27016
     27013     27016     27017     27013     27016     27018     27013     27016     27019
     27017     27016     27018     27017     27016     27019     27018     27016     27019
     27016     27019     27020     27016     27019     27021     27016     27019     27022
     27020     27019     27021     27020     27019     27022     27021     27019     27022
     27019     27022     27023     27019     27022     27024     27019     27022     27025
     27023     27022     27024     27023     27022     27025     27024     27022     27025
     27022     27025     27026     27022     27025     27027     27022     27025     27028
     27026     27025     27027     27026     27025     27028     27027     27025     27028
     27025     27028     27029     27025     27028     27030     27025     27028     27031
     27029     27028     27030     27029     27028     27031     27030     27028     27031
     27028     27031     27032     27028     27031     27033     27028     27031     27034
     27032     27031     27033     27032     27031     27034     27033     27031     27034
     27031     27034     27035     27031     27034     27036     27031     27034     27037
     27035     27034     27036     27035     27034     27037     27036     27034     27037
     27034     27037     27038     27034     27037     27039     27034     27037     27040
     27038     27037     27039     27038     27037     27040     27039     27037     27040
     27037     27040     27041     27037     27040     27042     27037     27040     27043
     27041     27040     27042     27041     27040     27043     27042     27040     27043
     27040     27043     27044     27040     27043     27045     27040     27043     27046
     27044     27043     27045     27044     27043     27046     27045     27043     27046
     27043     27046     27047     27043     27046     27048     27043     27046     27049
     27047     27046     27048     27047     27046     27049     27048     27046     27049
     27051     27050     27052     27051     27050     27053     27051     27050     27054
     27052     27050     27053     27052     27050     27054     27053     27050     27054
     27050     27054     27055     27050     27054     27056     27050     27054     27059
     27055     27054     27056     27055     27054     27059     27056     27054     27059
     27054     27056     27057     27054     27056     27058     27057     27056     27058
     27054     27059     27060     27054     27059     27061     27054     27059     27065
     27060     27059     27061     27060     27059     27065     27061     27059     27065
     27063     27062     27064     27063     27062     27065     27063     27062     27066
     27064     27062     27065     27064     27062     27066     27065     27062     27066
     27059     27065     27062     27062     27066     27067     27066     27067     27068
     27066     27067     27069     27066     27067     27070     27068     27067     27069
     27068     27067     27070     27069     27067     27070     27067     27070     27071
     27067     27070     27072     27067     27070     27078     27071     27070     27072
     27071     27070     27078     27072     27070     27078     27070     27072     27073
     27072     27073     27074     27072     27073     27075     27074     27073     27075
     27073     27075     27076     27073     27075     27077     27073     27075     27087
     27076     27075     27077     27076     27075     27087     27077     27075     27087
     27070     27078     27079     27070     27078     27080     27070     27078     27081
     27079     27078     27080     27079     27078     27081     27080     27078     27081
     27078     27081     27082     27081     27082     27083     27081     27082     27084
     27083     27082     27084     27082     27084     27085     27082     27084     27086
     27082     27084     27134     27085     27084     27086     27085     27084     27134
     27086     27084     27134     27075     27087     27088     27075     27087     27089
     27075     27087     27090     27088     27087     27089     27088     27087     27090
     27089     27087     27090     27087     27090     27091     27087     27090     27092
     27087     27090     27093     27091     27090     27092     27091     27090     27093
     27092     27090     27093     27090     27093     27094     27090     27093     27095
     27090     27093     27096     27094     27093     27095     27094     27093     27096
     27095     27093     27096     27093     27096     27097     27093     27096     27098
     27093     27096     27099     27097     27096     27098     27097     27096     27099
     27098     27096     27099     27096     27099     27100     27096     27099     27101
     27096     27099     27102     27100     27099     27101     27100     27099     27102
     27101     27099     27102     27099     27102     27103     27099     27102     27104
     27099     27102     27105     27103     27102     27104     27103     27102     27105
     27104     27102     27105     27102     27105     27106     27102     27105     27107
     27106     27105     27107     27105     27107     27108     27105     27107     27109
     27108     27107     27109     27107     27109     27110     27107     27109     27111
     27107     27109     27112     27110     27109     27111     27110     27109     27112
     27111     27109     27112     27109     27112     27113     27109     27112     27114
     27109     27112     27115     27113     27112     27114     27113     27112     27115
     27114     27112     27115     27112     27115     27116     27112     27115     27117
     27112     27115     27118     27116     27115     27117     27116     27115     27118
     27117     27115     27118     27115     27118     27119     27115     27118     27120
     27115     27118     27121     27119     27118     27120     27119     27118     27121
     27120     27118     27121     27118     27121     27122     27118     27121     27123
     27118     27121     27124     27122     27121     27123     27122     27121     27124
     27123     27121     27124     27121     27124     27125     27121     27124     27126
     27121     27124     27127     27125     27124     27126     27125     27124     27127
     27126     27124     27127     27124     27127     27128     27124     27127     27129
     27124     27127     27130     27128     27127     27129     27128     27127     27130
     27129     27127     27130     27127     27130     27131     27127     27130     27132
     27127     27130     27133     27131     27130     27132     27131     27130     27133
     27132     27130     27133     27084     27134     27135     27084     27134     27136
     27084     27134     27137     27135     27134     27136     27135     27134     27137
     27136     27134     27137     27134     27137     27138     27134     27137     27139
     27134     27137     27140     27138     27137     27139     27138     27137     27140
     27139     27137     27140     27137     27140     27141     27137     27140     27142
     27137     27140     27143     27141     27140     27142     27141     27140     27143
     27142     27140     27143     27140     27143     27144     27140     27143     27145
     27140     27143     27146     27144     27143     27145     27144     27143     27146
     27145     27143     27146     27143     27146     27147     27143     27146     27148
     27143     27146     27149     27147     27146     27148     27147     27146     27149
     27148     27146     27149     27146     27149     27150     27146     27149     27151
     27146     27149     27152     27150     27149     27151     27150     27149     27152
     27151     27149     27152     27149     27152     27153     27149     27152     27154
     27149     27152     27155     27153     27152     27154     27153     27152     27155
     27154     27152     27155     27152     27155     27156     27152     27155     27157
     27152     27155     27158     27156     27155     27157     27156     27155     27158
     27157     27155     27158     27155     27158     27159     27155     27158     27160
     27155     27158     27161     27159     27158     27160     27159     27158     27161
     27160     27158     27161     27158     27161     27162     27158     27161     27163
     27158     27161     27164     27162     27161     27163     27162     27161     27164
     27163     27161     27164     27161     27164     27165     27161     27164     27166
     27161     27164     27167     27165     27164     27166     27165     27164     27167
     27166     27164     27167     27164     27167     27168     27164     27167     27169
     27164     27167     27170     27168     27167     27169     27168     27167     27170
     27169     27167     27170     27167     27170     27171     27167     27170     27172
     27167     27170     27173     27171     27170     27172     27171     27170     27173
     27172     27170     27173     27170     27173     27174     27170     27173     27175
     27170     27173     27176     27174     27173     27175     27174     27173     27176
     27175     27173     27176     27178     27177     27181     27178     27177     27185
     27178     27177     27189     27181     27177     27185     27181     27177     27189
     27185     27177     27189     27177     27178     27179     27177     27178     27180
     27177     27178     27193     27179     27178     27180     27179     27178     27193
     27180     27178     27193     27177     27181     27182     27177     27181     27183
     27177     27181     27184     27182     27181     27183     27182     27181     27184
     27183     27181     27184     27177     27185     27186     27177     27185     27187
     27177     27185     27188     27186     27185     27187     27186     27185     27188
     27187     27185     27188     27177     27189     27190     27177     27189     27191
     27177     27189     27192     27190     27189     27191     27190     27189     27192
     27191     27189     27192     27178     27193     27194     27178     27193     27195
     27178     27193     27199     27194     27193     27195     27194     27193     27199
     27195     27193     27199     27197     27196     27198     27197     27196     27199
     27197     27196     27200     27198     27196     27199     27198     27196     27200
     27199     27196     27200     27193     27199     27196     27196     27200     27201
     27200     27201     27202     27200     27201     27203     27200     27201     27204
     27202     27201     27203     27202     27201     27204     27203     27201     27204
     27201     27204     27205     27201     27204     27206     27201     27204     27212
     27205     27204     27206     27205     27204     27212     27206     27204     27212
     27204     27206     27207     27206     27207     27208     27206     27207     27209
     27208     27207     27209     27207     27209     27210     27207     27209     27211
     27207     27209     27221     27210     27209     27211     27210     27209     27221
     27211     27209     27221     27204     27212     27213     27204     27212     27214
     27204     27212     27215     27213     27212     27214     27213     27212     27215
     27214     27212     27215     27212     27215     27216     27215     27216     27217
     27215     27216     27218     27217     27216     27218     27216     27218     27219
     27216     27218     27220     27216     27218     27268     27219     27218     27220
     27219     27218     27268     27220     27218     27268     27209     27221     27222
     27209     27221     27223     27209     27221     27224     27222     27221     27223
     27222     27221     27224     27223     27221     27224     27221     27224     27225
     27221     27224     27226     27221     27224     27227     27225     27224     27226
     27225     27224     27227     27226     27224     27227     27224     27227     27228
     27224     27227     27229     27224     27227     27230     27228     27227     27229
     27228     27227     27230     27229     27227     27230     27227     27230     27231
     27227     27230     27232     27227     27230     27233     27231     27230     27232
     27231     27230     27233     27232     27230     27233     27230     27233     27234
     27230     27233     27235     27230     27233     27236     27234     27233     27235
     27234     27233     27236     27235     27233     27236     27233     27236     27237
     27233     27236     27238     27233     27236     27239     27237     27236     27238
     27237     27236     27239     27238     27236     27239     27236     27239     27240
     27236     27239     27241     27240     27239     27241     27239     27241     27242
     27239     27241     27243     27242     27241     27243     27241     27243     27244
     27241     27243     27245     27241     27243     27246     27244     27243     27245
     27244     27243     27246     27245     27243     27246     27243     27246     27247
     27243     27246     27248     27243     27246     27249     27247     27246     27248
     27247     27246     27249     27248     27246     27249     27246     27249     27250
     27246     27249     27251     27246     27249     27252     27250     27249     27251
     27250     27249     27252     27251     27249     27252     27249     27252     27253
     27249     27252     27254     27249     27252     27255     27253     27252     27254
     27253     27252     27255     27254     27252     27255     27252     27255     27256
     27252     27255     27257     27252     27255     27258     27256     27255     27257
     27256     27255     27258     27257     27255     27258     27255     27258     27259
     27255     27258     27260     27255     27258     27261     27259     27258     27260
     27259     27258     27261     27260     27258     27261     27258     27261     27262
     27258     27261     27263     27258     27261     27264     27262     27261     27263
     27262     27261     27264     27263     27261     27264     27261     27264     27265
     27261     27264     27266     27261     27264     27267     27265     27264     27266
     27265     27264     27267     27266     27264     27267     27218     27268     27269
     27218     27268     27270     27218     27268     27271     27269     27268     27270
     27269     27268     27271     27270     27268     27271     27268     27271     27272
     27268     27271     27273     27268     27271     27274     27272     27271     27273
     27272     27271     27274     27273     27271     27274     27271     27274     27275
     27271     27274     27276     27271     27274     27277     27275     27274     27276
     27275     27274     27277     27276     27274     27277     27274     27277     27278
     27274     27277     27279     27274     27277     27280     27278     27277     27279
     27278     27277     27280     27279     27277     27280     27277     27280     27281
     27277     27280     27282     27277     27280     27283     27281     27280     27282
     27281     27280     27283     27282     27280     27283     27280     27283     27284
     27280     27283     27285     27280     27283     27286     27284     27283     27285
     27284     27283     27286     27285     27283     27286     27283     27286     27287
     27283     27286     27288     27283     27286     27289     27287     27286     27288
     27287     27286     27289     27288     27286     27289     27286     27289     27290
     27286     27289     27291     27286     27289     27292     27290     27289     27291
     27290     27289     27292     27291     27289     27292     27289     27292     27293
     27289     27292     27294     27289     27292     27295     27293     27292     27294
     27293     27292     27295     27294     27292     27295     27292     27295     27296
     27292     27295     27297     27292     27295     27298     27296     27295     27297
     27296     27295     27298     27297     27295     27298     27295     27298     27299
     27295     27298     27300     27295     27298     27301     27299     27298     27300
     27299     27298     27301     27300     27298     27301     27298     27301     27302
     27298     27301     27303     27298     27301     27304     27302     27301     27303
     27302     27301     27304     27303     27301     27304     27301     27304     27305
     27301     27304     27306     27301     27304     27307     27305     27304     27306
     27305     27304     27307     27306     27304     27307     27304     27307     27308
     27304     27307     27309     27304     27307     27310     27308     27307     27309
     27308     27307     27310     27309     27307     27310     27312     27311     27315
     27312     27311     27319     27312     27311     27323     27315     27311     27319
     27315     27311     27323     27319     27311     27323     27311     27312     27313
     27311     27312     27314     27311     27312     27327     27313     27312     27314
     27313     27312     27327     27314     27312     27327     27311     27315     27316
     27311     27315     27317     27311     27315     27318     27316     27315     27317
     27316     27315     27318     27317     27315     27318     27311     27319     27320
     27311     27319     27321     27311     27319     27322     27320     27319     27321
     27320     27319     27322     27321     27319     27322     27311     27323     27324
     27311     27323     27325     27311     27323     27326     27324     27323     27325
     27324     27323     27326     27325     27323     27326     27312     27327     27328
     27312     27327     27329     27312     27327     27333     27328     27327     27329
     27328     27327     27333     27329     27327     27333     27331     27330     27332
     27331     27330     27333     27331     27330     27334     27332     27330     27333
     27332     27330     27334     27333     27330     27334     27327     27333     27330
     27330     27334     27335     27334     27335     27336     27334     27335     27337
     27334     27335     27338     27336     27335     27337     27336     27335     27338
     27337     27335     27338     27335     27338     27339     27335     27338     27340
     27335     27338     27346     27339     27338     27340     27339     27338     27346
     27340     27338     27346     27338     27340     27341     27340     27341     27342
     27340     27341     27343     27342     27341     27343     27341     27343     27344
     27341     27343     27345     27341     27343     27355     27344     27343     27345
     27344     27343     27355     27345     27343     27355     27338     27346     27347
     27338     27346     27348     27338     27346     27349     27347     27346     27348
     27347     27346     27349     27348     27346     27349     27346     27349     27350
     27349     27350     27351     27349     27350     27352     27351     27350     27352
     27350     27352     27353     27350     27352     27354     27350     27352     27402
     27353     27352     27354     27353     27352     27402     27354     27352     27402
     27343     27355     27356     27343     27355     27357     27343     27355     27358
     27356     27355     27357     27356     27355     27358     27357     27355     27358
     27355     27358     27359     27355     27358     27360     27355     27358     27361
     27359     27358     27360     27359     27358     27361     27360     27358     27361
     27358     27361     27362     27358     27361     27363     27358     27361     27364
     27362     27361     27363     27362     27361     27364     27363     27361     27364
     27361     27364     27365     27361     27364     27366     27361     27364     27367
     27365     27364     27366     27365     27364     27367     27366     27364     27367
     27364     27367     27368     27364     27367     27369     27364     27367     27370
     27368     27367     27369     27368     27367     27370     27369     27367     27370
     27367     27370     27371     27367     27370     27372     27367     27370     27373
     27371     27370     27372     27371     27370     27373     27372     27370     27373
     27370     27373     27374     27370     27373     27375     27374     27373     27375
     27373     27375     27376     27373     27375     27377     27376     27375     27377
     27375     27377     27378     27375     27377     27379     27375     27377     27380
     27378     27377     27379     27378     27377     27380     27379     27377     27380
     27377     27380     27381     27377     27380     27382     27377     27380     27383
     27381     27380     27382     27381     27380     27383     27382     27380     27383
     27380     27383     27384     27380     27383     27385     27380     27383     27386
     27384     27383     27385     27384     27383     27386     27385     27383     27386
     27383     27386     27387     27383     27386     27388     27383     27386     27389
     27387     27386     27388     27387     27386     27389     27388     27386     27389
     27386     27389     27390     27386     27389     27391     27386     27389     27392
     27390     27389     27391     27390     27389     27392     27391     27389     27392
     27389     27392     27393     27389     27392     27394     27389     27392     27395
     27393     27392     27394     27393     27392     27395     27394     27392     27395
     27392     27395     27396     27392     27395     27397     27392     27395     27398
     27396     27395     27397     27396     27395     27398     27397     27395     27398
     27395     27398     27399     27395     27398     27400     27395     27398     27401
     27399     27398     27400     27399     27398     27401     27400     27398     27401
     27352     27402     27403     27352     27402     27404     27352     27402     27405
     27403     27402     27404     27403     27402     27405     27404     27402     27405
     27402     27405     27406     27402     27405     27407     27402     27405     27408
     27406     27405     27407     27406     27405     27408     27407     27405     27408
     27405     27408     27409     27405     27408     27410     27405     27408     27411
     27409     27408     27410     27409     27408     27411     27410     27408     27411
     27408     27411     27412     27408     27411     27413     27408     27411     27414
     27412     27411     27413     27412     27411     27414     27413     27411     27414
     27411     27414     27415     27411     27414     27416     27411     27414     27417
     27415     27414     27416     27415     27414     27417     27416     27414     27417
     27414     27417     27418     27414     27417     27419     27414     27417     27420
     27418     27417     27419     27418     27417     27420     27419     27417     27420
     27417     27420     27421     27417     27420     27422     27417     27420     27423
     27421     27420     27422     27421     27420     27423     27422     27420     27423
     27420     27423     27424     27420     27423     27425     27420     27423     27426
     27424     27423     27425     27424     27423     27426     27425     27423     27426
     27423     27426     27427     27423     27426     27428     27423     27426     27429
     27427     27426     27428     27427     27426     27429     27428     27426     27429
     27426     27429     27430     27426     27429     27431     27426     27429     27432
     27430     27429     27431     27430     27429     27432     27431     27429     27432
     27429     27432     27433     27429     27432     27434     27429     27432     27435
     27433     27432     27434     27433     27432     27435     27434     27432     27435
     27432     27435     27436     27432     27435     27437     27432     27435     27438
     27436     27435     27437     27436     27435     27438     27437     27435     27438
     27435     27438     27439     27435     27438     27440     27435     27438     27441
     27439     27438     27440     27439     27438     27441     27440     27438     27441
     27438     27441     27442     27438     27441     27443     27438     27441     27444
     27442     27441     27443     27442     27441     27444     27443     27441     27444
     27446     27445     27449     27446     27445     27453     27446     27445     27457
     27449     27445     27453     27449     27445     27457     27453     27445     27457
     27445     27446     27447     27445     27446     27448     27445     27446     27461
     27447     27446     27448     27447     27446     27461     27448     27446     27461
     27445     27449     27450     27445     27449     27451     27445     27449     27452
     27450     27449     27451     27450     27449     27452     27451     27449     27452
     27445     27453     27454     27445     27453     27455     27445     27453     27456
     27454     27453     27455     27454     27453     27456     27455     27453     27456
     27445     27457     27458     27445     27457     27459     27445     27457     27460
     27458     27457     27459     27458     27457     27460     27459     27457     27460
     27446     27461     27462     27446     27461     27463     27446     27461     27467
     27462     27461     27463     27462     27461     27467     27463     27461     27467
     27465     27464     27466     27465     27464     27467     27465     27464     27468
     27466     27464     27467     27466     27464     27468     27467     27464     27468
     27461     27467     27464     27464     27468     27469     27468     27469     27470
     27468     27469     27471     27468     27469     27472     27470     27469     27471
     27470     27469     27472     27471     27469     27472     27469     27472     27473
     27469     27472     27474     27469     27472     27480     27473     27472     27474
     27473     27472     27480     27474     27472     27480     27472     27474     27475
     27474     27475     27476     27474     27475     27477     27476     27475     27477
     27475     27477     27478     27475     27477     27479     27475     27477     27489
     27478     27477     27479     27478     27477     27489     27479     27477     27489
     27472     27480     27481     27472     27480     27482     27472     27480     27483
     27481     27480     27482     27481     27480     27483     27482     27480     27483
     27480     27483     27484     27483     27484     27485     27483     27484     27486
     27485     27484     27486     27484     27486     27487     27484     27486     27488
     27484     27486     27536     27487     27486     27488     27487     27486     27536
     27488     27486     27536     27477     27489     27490     27477     27489     27491
     27477     27489     27492     27490     27489     27491     27490     27489     27492
     27491     27489     27492     27489     27492     27493     27489     27492     27494
     27489     27492     27495     27493     27492     27494     27493     27492     27495
     27494     27492     27495     27492     27495     27496     27492     27495     27497
     27492     27495     27498     27496     27495     27497     27496     27495     27498
     27497     27495     27498     27495     27498     27499     27495     27498     27500
     27495     27498     27501     27499     27498     27500     27499     27498     27501
     27500     27498     27501     27498     27501     27502     27498     27501     27503
     27498     27501     27504     27502     27501     27503     27502     27501     27504
     27503     27501     27504     27501     27504     27505     27501     27504     27506
     27501     27504     27507     27505     27504     27506     27505     27504     27507
     27506     27504     27507     27504     27507     27508     27504     27507     27509
     27508     27507     27509     27507     27509     27510     27507     27509     27511
     27510     27509     27511     27509     27511     27512     27509     27511     27513
     27509     27511     27514     27512     27511     27513     27512     27511     27514
     27513     27511     27514     27511     27514     27515     27511     27514     27516
     27511     27514     27517     27515     27514     27516     27515     27514     27517
     27516     27514     27517     27514     27517     27518     27514     27517     27519
     27514     27517     27520     27518     27517     27519     27518     27517     27520
     27519     27517     27520     27517     27520     27521     27517     27520     27522
     27517     27520     27523     27521     27520     27522     27521     27520     27523
     27522     27520     27523     27520     27523     27524     27520     27523     27525
     27520     27523     27526     27524     27523     27525     27524     27523     27526
     27525     27523     27526     27523     27526     27527     27523     27526     27528
     27523     27526     27529     27527     27526     27528     27527     27526     27529
     27528     27526     27529     27526     27529     27530     27526     27529     27531
     27526     27529     27532     27530     27529     27531     27530     27529     27532
     27531     27529     27532     27529     27532     27533     27529     27532     27534
     27529     27532     27535     27533     27532     27534     27533     27532     27535
     27534     27532     27535     27486     27536     27537     27486     27536     27538
     27486     27536     27539     27537     27536     27538     27537     27536     27539
     27538     27536     27539     27536     27539     27540     27536     27539     27541
     27536     27539     27542     27540     27539     27541     27540     27539     27542
     27541     27539     27542     27539     27542     27543     27539     27542     27544
     27539     27542     27545     27543     27542     27544     27543     27542     27545
     27544     27542     27545     27542     27545     27546     27542     27545     27547
     27542     27545     27548     27546     27545     27547     27546     27545     27548
     27547     27545     27548     27545     27548     27549     27545     27548     27550
     27545     27548     27551     27549     27548     27550     27549     27548     27551
     27550     27548     27551     27548     27551     27552     27548     27551     27553
     27548     27551     27554     27552     27551     27553     27552     27551     27554
     27553     27551     27554     27551     27554     27555     27551     27554     27556
     27551     27554     27557     27555     27554     27556     27555     27554     27557
     27556     27554     27557     27554     27557     27558     27554     27557     27559
     27554     27557     27560     27558     27557     27559     27558     27557     27560
     27559     27557     27560     27557     27560     27561     27557     27560     27562
     27557     27560     27563     27561     27560     27562     27561     27560     27563
     27562     27560     27563     27560     27563     27564     27560     27563     27565
     27560     27563     27566     27564     27563     27565     27564     27563     27566
     27565     27563     27566     27563     27566     27567     27563     27566     27568
     27563     27566     27569     27567     27566     27568     27567     27566     27569
     27568     27566     27569     27566     27569     27570     27566     27569     27571
     27566     27569     27572     27570     27569     27571     27570     27569     27572
     27571     27569     27572     27569     27572     27573     27569     27572     27574
     27569     27572     27575     27573     27572     27574     27573     27572     27575
     27574     27572     27575     27572     27575     27576     27572     27575     27577
     27572     27575     27578     27576     27575     27577     27576     27575     27578
     27577     27575     27578     27580     27579     27583     27580     27579     27587
     27580     27579     27591     27583     27579     27587     27583     27579     27591
     27587     27579     27591     27579     27580     27581     27579     27580     27582
     27579     27580     27595     27581     27580     27582     27581     27580     27595
     27582     27580     27595     27579     27583     27584     27579     27583     27585
     27579     27583     27586     27584     27583     27585     27584     27583     27586
     27585     27583     27586     27579     27587     27588     27579     27587     27589
     27579     27587     27590     27588     27587     27589     27588     27587     27590
     27589     27587     27590     27579     27591     27592     27579     27591     27593
     27579     27591     27594     27592     27591     27593     27592     27591     27594
     27593     27591     27594     27580     27595     27596     27580     27595     27597
     27580     27595     27601     27596     27595     27597     27596     27595     27601
     27597     27595     27601     27599     27598     27600     27599     27598     27601
     27599     27598     27602     27600     27598     27601     27600     27598     27602
     27601     27598     27602     27595     27601     27598     27598     27602     27603
     27602     27603     27604     27602     27603     27605     27602     27603     27606
     27604     27603     27605     27604     27603     27606     27605     27603     27606
     27603     27606     27607     27603     27606     27608     27603     27606     27614
     27607     27606     27608     27607     27606     27614     27608     27606     27614
     27606     27608     27609     27608     27609     27610     27608     27609     27611
     27610     27609     27611     27609     27611     27612     27609     27611     27613
     27609     27611     27623     27612     27611     27613     27612     27611     27623
     27613     27611     27623     27606     27614     27615     27606     27614     27616
     27606     27614     27617     27615     27614     27616     27615     27614     27617
     27616     27614     27617     27614     27617     27618     27617     27618     27619
     27617     27618     27620     27619     27618     27620     27618     27620     27621
     27618     27620     27622     27618     27620     27670     27621     27620     27622
     27621     27620     27670     27622     27620     27670     27611     27623     27624
     27611     27623     27625     27611     27623     27626     27624     27623     27625
     27624     27623     27626     27625     27623     27626     27623     27626     27627
     27623     27626     27628     27623     27626     27629     27627     27626     27628
     27627     27626     27629     27628     27626     27629     27626     27629     27630
     27626     27629     27631     27626     27629     27632     27630     27629     27631
     27630     27629     27632     27631     27629     27632     27629     27632     27633
     27629     27632     27634     27629     27632     27635     27633     27632     27634
     27633     27632     27635     27634     27632     27635     27632     27635     27636
     27632     27635     27637     27632     27635     27638     27636     27635     27637
     27636     27635     27638     27637     27635     27638     27635     27638     27639
     27635     27638     27640     27635     27638     27641     27639     27638     27640
     27639     27638     27641     27640     27638     27641     27638     27641     27642
     27638     27641     27643     27642     27641     27643     27641     27643     27644
     27641     27643     27645     27644     27643     27645     27643     27645     27646
     27643     27645     27647     27643     27645     27648     27646     27645     27647
     27646     27645     27648     27647     27645     27648     27645     27648     27649
     27645     27648     27650     27645     27648     27651     27649     27648     27650
     27649     27648     27651     27650     27648     27651     27648     27651     27652
     27648     27651     27653     27648     27651     27654     27652     27651     27653
     27652     27651     27654     27653     27651     27654     27651     27654     27655
     27651     27654     27656     27651     27654     27657     27655     27654     27656
     27655     27654     27657     27656     27654     27657     27654     27657     27658
     27654     27657     27659     27654     27657     27660     27658     27657     27659
     27658     27657     27660     27659     27657     27660     27657     27660     27661
     27657     27660     27662     27657     27660     27663     27661     27660     27662
     27661     27660     27663     27662     27660     27663     27660     27663     27664
     27660     27663     27665     27660     27663     27666     27664     27663     27665
     27664     27663     27666     27665     27663     27666     27663     27666     27667
     27663     27666     27668     27663     27666     27669     27667     27666     27668
     27667     27666     27669     27668     27666     27669     27620     27670     27671
     27620     27670     27672     27620     27670     27673     27671     27670     27672
     27671     27670     27673     27672     27670     27673     27670     27673     27674
     27670     27673     27675     27670     27673     27676     27674     27673     27675
     27674     27673     27676     27675     27673     27676     27673     27676     27677
     27673     27676     27678     27673     27676     27679     27677     27676     27678
     27677     27676     27679     27678     27676     27679     27676     27679     27680
     27676     27679     27681     27676     27679     27682     27680     27679     27681
     27680     27679     27682     27681     27679     27682     27679     27682     27683
     27679     27682     27684     27679     27682     27685     27683     27682     27684
     27683     27682     27685     27684     27682     27685     27682     27685     27686
     27682     27685     27687     27682     27685     27688     27686     27685     27687
     27686     27685     27688     27687     27685     27688     27685     27688     27689
     27685     27688     27690     27685     27688     27691     27689     27688     27690
     27689     27688     27691     27690     27688     27691     27688     27691     27692
     27688     27691     27693     27688     27691     27694     27692     27691     27693
     27692     27691     27694     27693     27691     27694     27691     27694     27695
     27691     27694     27696     27691     27694     27697     27695     27694     27696
     27695     27694     27697     27696     27694     27697     27694     27697     27698
     27694     27697     27699     27694     27697     27700     27698     27697     27699
     27698     27697     27700     27699     27697     27700     27697     27700     27701
     27697     27700     27702     27697     27700     27703     27701     27700     27702
     27701     27700     27703     27702     27700     27703     27700     27703     27704
     27700     27703     27705     27700     27703     27706     27704     27703     27705
     27704     27703     27706     27705     27703     27706     27703     27706     27707
     27703     27706     27708     27703     27706     27709     27707     27706     27708
     27707     27706     27709     27708     27706     27709     27706     27709     27710
     27706     27709     27711     27706     27709     27712     27710     27709     27711
     27710     27709     27712     27711     27709     27712     27714     27713     27715
     27714     27713     27716     27714     27713     27717     27715     27713     27716
     27715     27713     27717     27716     27713     27717     27713     27717     27718
     27713     27717     27719     27713     27717     27722     27718     27717     27719
     27718     27717     27722     27719     27717     27722     27717     27719     27720
     27717     27719     27721     27720     27719     27721     27717     27722     27723
     27717     27722     27724     27717     27722     27728     27723     27722     27724
     27723     27722     27728     27724     27722     27728     27726     27725     27727
     27726     27725     27728     27726     27725     27729     27727     27725     27728
     27727     27725     27729     27728     27725     27729     27722     27728     27725
     27725     27729     27730     27729     27730     27731     27729     27730     27732
     27729     27730     27733     27731     27730     27732     27731     27730     27733
     27732     27730     27733     27730     27733     27734     27730     27733     27735
     27730     27733     27741     27734     27733     27735     27734     27733     27741
     27735     27733     27741     27733     27735     27736     27735     27736     27737
     27735     27736     27738     27737     27736     27738     27736     27738     27739
     27736     27738     27740     27736     27738     27750     27739     27738     27740
     27739     27738     27750     27740     27738     27750     27733     27741     27742
     27733     27741     27743     27733     27741     27744     27742     27741     27743
     27742     27741     27744     27743     27741     27744     27741     27744     27745
     27744     27745     27746     27744     27745     27747     27746     27745     27747
     27745     27747     27748     27745     27747     27749     27745     27747     27797
     27748     27747     27749     27748     27747     27797     27749     27747     27797
     27738     27750     27751     27738     27750     27752     27738     27750     27753
     27751     27750     27752     27751     27750     27753     27752     27750     27753
     27750     27753     27754     27750     27753     27755     27750     27753     27756
     27754     27753     27755     27754     27753     27756     27755     27753     27756
     27753     27756     27757     27753     27756     27758     27753     27756     27759
     27757     27756     27758     27757     27756     27759     27758     27756     27759
     27756     27759     27760     27756     27759     27761     27756     27759     27762
     27760     27759     27761     27760     27759     27762     27761     27759     27762
     27759     27762     27763     27759     27762     27764     27759     27762     27765
     27763     27762     27764     27763     27762     27765     27764     27762     27765
     27762     27765     27766     27762     27765     27767     27762     27765     27768
     27766     27765     27767     27766     27765     27768     27767     27765     27768
     27765     27768     27769     27765     27768     27770     27769     27768     27770
     27768     27770     27771     27768     27770     27772     27771     27770     27772
     27770     27772     27773     27770     27772     27774     27770     27772     27775
     27773     27772     27774     27773     27772     27775     27774     27772     27775
     27772     27775     27776     27772     27775     27777     27772     27775     27778
     27776     27775     27777     27776     27775     27778     27777     27775     27778
     27775     27778     27779     27775     27778     27780     27775     27778     27781
     27779     27778     27780     27779     27778     27781     27780     27778     27781
     27778     27781     27782     27778     27781     27783     27778     27781     27784
     27782     27781     27783     27782     27781     27784     27783     27781     27784
     27781     27784     27785     27781     27784     27786     27781     27784     27787
     27785     27784     27786     27785     27784     27787     27786     27784     27787
     27784     27787     27788     27784     27787     27789     27784     27787     27790
     27788     27787     27789     27788     27787     27790     27789     27787     27790
     27787     27790     27791     27787     27790     27792     27787     27790     27793
     27791     27790     27792     27791     27790     27793     27792     27790     27793
     27790     27793     27794     27790     27793     27795     27790     27793     27796
     27794     27793     27795     27794     27793     27796     27795     27793     27796
     27747     27797     27798     27747     27797     27799     27747     27797     27800
     27798     27797     27799     27798     27797     27800     27799     27797     27800
     27797     27800     27801     27797     27800     27802     27797     27800     27803
     27801     27800     27802     27801     27800     27803     27802     27800     27803
     27800     27803     27804     27800     27803     27805     27800     27803     27806
     27804     27803     27805     27804     27803     27806     27805     27803     27806
     27803     27806     27807     27803     27806     27808     27803     27806     27809
     27807     27806     27808     27807     27806     27809     27808     27806     27809
     27806     27809     27810     27806     27809     27811     27806     27809     27812
     27810     27809     27811     27810     27809     27812     27811     27809     27812
     27809     27812     27813     27809     27812     27814     27809     27812     27815
     27813     27812     27814     27813     27812     27815     27814     27812     27815
     27812     27815     27816     27812     27815     27817     27812     27815     27818
     27816     27815     27817     27816     27815     27818     27817     27815     27818
     27815     27818     27819     27815     27818     27820     27815     27818     27821
     27819     27818     27820     27819     27818     27821     27820     27818     27821
     27818     27821     27822     27818     27821     27823     27818     27821     27824
     27822     27821     27823     27822     27821     27824     27823     27821     27824
     27821     27824     27825     27821     27824     27826     27821     27824     27827
     27825     27824     27826     27825     27824     27827     27826     27824     27827
     27824     27827     27828     27824     27827     27829     27824     27827     27830
     27828     27827     27829     27828     27827     27830     27829     27827     27830
     27827     27830     27831     27827     27830     27832     27827     27830     27833
     27831     27830     27832     27831     27830     27833     27832     27830     27833
     27830     27833     27834     27830     27833     27835     27830     27833     27836
     27834     27833     27835     27834     27833     27836     27835     27833     27836
     27833     27836     27837     27833     27836     27838     27833     27836     27839
     27837     27836     27838     27837     27836     27839     27838     27836     27839
     27841     27840     27844     27841     27840     27848     27841     27840     27852
     27844     27840     27848     27844     27840     27852     27848     27840     27852
     27840     27841     27842     27840     27841     27843     27840     27841     27856
     27842     27841     27843     27842     27841     27856     27843     27841     27856
     27840     27844     27845     27840     27844     27846     27840     27844     27847
     27845     27844     27846     27845     27844     27847     27846     27844     27847
     27840     27848     27849     27840     27848     27850     27840     27848     27851
     27849     27848     27850     27849     27848     27851     27850     27848     27851
     27840     27852     27853     27840     27852     27854     27840     27852     27855
     27853     27852     27854     27853     27852     27855     27854     27852     27855
     27841     27856     27857     27841     27856     27858     27841     27856     27862
     27857     27856     27858     27857     27856     27862     27858     27856     27862
     27860     27859     27861     27860     27859     27862     27860     27859     27863
     27861     27859     27862     27861     27859     27863     27862     27859     27863
     27856     27862     27859     27859     27863     27864     27863     27864     27865
     27863     27864     27866     27863     27864     27867     27865     27864     27866
     27865     27864     27867     27866     27864     27867     27864     27867     27868
     27864     27867     27869     27864     27867     27875     27868     27867     27869
     27868     27867     27875     27869     27867     27875     27867     27869     27870
     27869     27870     27871     27869     27870     27872     27871     27870     27872
     27870     27872     27873     27870     27872     27874     27870     27872     27884
     27873     27872     27874     27873     27872     27884     27874     27872     27884
     27867     27875     27876     27867     27875     27877     27867     27875     27878
     27876     27875     27877     27876     27875     27878     27877     27875     27878
     27875     27878     27879     27878     27879     27880     27878     27879     27881
     27880     27879     27881     27879     27881     27882     27879     27881     27883
     27879     27881     27931     27882     27881     27883     27882     27881     27931
     27883     27881     27931     27872     27884     27885     27872     27884     27886
     27872     27884     27887     27885     27884     27886     27885     27884     27887
     27886     27884     27887     27884     27887     27888     27884     27887     27889
     27884     27887     27890     27888     27887     27889     27888     27887     27890
     27889     27887     27890     27887     27890     27891     27887     27890     27892
     27887     27890     27893     27891     27890     27892     27891     27890     27893
     27892     27890     27893     27890     27893     27894     27890     27893     27895
     27890     27893     27896     27894     27893     27895     27894     27893     27896
     27895     27893     27896     27893     27896     27897     27893     27896     27898
     27893     27896     27899     27897     27896     27898     27897     27896     27899
     27898     27896     27899     27896     27899     27900     27896     27899     27901
     27896     27899     27902     27900     27899     27901     27900     27899     27902
     27901     27899     27902     27899     27902     27903     27899     27902     27904
     27903     27902     27904     27902     27904     27905     27902     27904     27906
     27905     27904     27906     27904     27906     27907     27904     27906     27908
     27904     27906     27909     27907     27906     27908     27907     27906     27909
     27908     27906     27909     27906     27909     27910     27906     27909     27911
     27906     27909     27912     27910     27909     27911     27910     27909     27912
     27911     27909     27912     27909     27912     27913     27909     27912     27914
     27909     27912     27915     27913     27912     27914     27913     27912     27915
     27914     27912     27915     27912     27915     27916     27912     27915     27917
     27912     27915     27918     27916     27915     27917     27916     27915     27918
     27917     27915     27918     27915     27918     27919     27915     27918     27920
     27915     27918     27921     27919     27918     27920     27919     27918     27921
     27920     27918     27921     27918     27921     27922     27918     27921     27923
     27918     27921     27924     27922     27921     27923     27922     27921     27924
     27923     27921     27924     27921     27924     27925     27921     27924     27926
     27921     27924     27927     27925     27924     27926     27925     27924     27927
     27926     27924     27927     27924     27927     27928     27924     27927     27929
     27924     27927     27930     27928     27927     27929     27928     27927     27930
     27929     27927     27930     27881     27931     27932     27881     27931     27933
     27881     27931     27934     27932     27931     27933     27932     27931     27934
     27933     27931     27934     27931     27934     27935     27931     27934     27936
     27931     27934     27937     27935     27934     27936     27935     27934     27937
     27936     27934     27937     27934     27937     27938     27934     27937     27939
     27934     27937     27940     27938     27937     27939     27938     27937     27940
     27939     27937     27940     27937     27940     27941     27937     27940     27942
     27937     27940     27943     27941     27940     27942     27941     27940     27943
     27942     27940     27943     27940     27943     27944     27940     27943     27945
     27940     27943     27946     27944     27943     27945     27944     27943     27946
     27945     27943     27946     27943     27946     27947     27943     27946     27948
     27943     27946     27949     27947     27946     27948     27947     27946     27949
     27948     27946     27949     27946     27949     27950     27946     27949     27951
     27946     27949     27952     27950     27949     27951     27950     27949     27952
     27951     27949     27952     27949     27952     27953     27949     27952     27954
     27949     27952     27955     27953     27952     27954     27953     27952     27955
     27954     27952     27955     27952     27955     27956     27952     27955     27957
     27952     27955     27958     27956     27955     27957     27956     27955     27958
     27957     27955     27958     27955     27958     27959     27955     27958     27960
     27955     27958     27961     27959     27958     27960     27959     27958     27961
     27960     27958     27961     27958     27961     27962     27958     27961     27963
     27958     27961     27964     27962     27961     27963     27962     27961     27964
     27963     27961     27964     27961     27964     27965     27961     27964     27966
     27961     27964     27967     27965     27964     27966     27965     27964     27967
     27966     27964     27967     27964     27967     27968     27964     27967     27969
     27964     27967     27970     27968     27967     27969     27968     27967     27970
     27969     27967     27970     27967     27970     27971     27967     27970     27972
     27967     27970     27973     27971     27970     27972     27971     27970     27973
     27972     27970     27973     27975     27974     27976     27975     27974     27977
     27975     27974     27978     27976     27974     27977     27976     27974     27978
     27977     27974     27978     27974     27978     27979     27974     27978     27980
     27974     27978     27983     27979     27978     27980     27979     27978     27983
     27980     27978     27983     27978     27980     27981     27978     27980     27982
     27981     27980     27982     27978     27983     27984     27978     27983     27985
     27978     27983     27989     27984     27983     27985     27984     27983     27989
     27985     27983     27989     27987     27986     27988     27987     27986     27989
     27987     27986     27990     27988     27986     27989     27988     27986     27990
     27989     27986     27990     27983     27989     27986     27986     27990     27991
     27990     27991     27992     27990     27991     27993     27990     27991     27994
     27992     27991     27993     27992     27991     27994     27993     27991     27994
     27991     27994     27995     27991     27994     27996     27991     27994     28002
     27995     27994     27996     27995     27994     28002     27996     27994     28002
     27994     27996     27997     27996     27997     27998     27996     27997     27999
     27998     27997     27999     27997     27999     28000     27997     27999     28001
     27997     27999     28011     28000     27999     28001     28000     27999     28011
     28001     27999     28011     27994     28002     28003     27994     28002     28004
     27994     28002     28005     28003     28002     28004     28003     28002     28005
     28004     28002     28005     28002     28005     28006     28005     28006     28007
     28005     28006     28008     28007     28006     28008     28006     28008     28009
     28006     28008     28010     28006     28008     28058     28009     28008     28010
     28009     28008     28058     28010     28008     28058     27999     28011     28012
     27999     28011     28013     27999     28011     28014     28012     28011     28013
     28012     28011     28014     28013     28011     28014     28011     28014     28015
     28011     28014     28016     28011     28014     28017     28015     28014     28016
     28015     28014     28017     28016     28014     28017     28014     28017     28018
     28014     28017     28019     28014     28017     28020     28018     28017     28019
     28018     28017     28020     28019     28017     28020     28017     28020     28021
     28017     28020     28022     28017     28020     28023     28021     28020     28022
     28021     28020     28023     28022     28020     28023     28020     28023     28024
     28020     28023     28025     28020     28023     28026     28024     28023     28025
     28024     28023     28026     28025     28023     28026     28023     28026     28027
     28023     28026     28028     28023     28026     28029     28027     28026     28028
     28027     28026     28029     28028     28026     28029     28026     28029     28030
     28026     28029     28031     28030     28029     28031     28029     28031     28032
     28029     28031     28033     28032     28031     28033     28031     28033     28034
     28031     28033     28035     28031     28033     28036     28034     28033     28035
     28034     28033     28036     28035     28033     28036     28033     28036     28037
     28033     28036     28038     28033     28036     28039     28037     28036     28038
     28037     28036     28039     28038     28036     28039     28036     28039     28040
     28036     28039     28041     28036     28039     28042     28040     28039     28041
     28040     28039     28042     28041     28039     28042     28039     28042     28043
     28039     28042     28044     28039     28042     28045     28043     28042     28044
     28043     28042     28045     28044     28042     28045     28042     28045     28046
     28042     28045     28047     28042     28045     28048     28046     28045     28047
     28046     28045     28048     28047     28045     28048     28045     28048     28049
     28045     28048     28050     28045     28048     28051     28049     28048     28050
     28049     28048     28051     28050     28048     28051     28048     28051     28052
     28048     28051     28053     28048     28051     28054     28052     28051     28053
     28052     28051     28054     28053     28051     28054     28051     28054     28055
     28051     28054     28056     28051     28054     28057     28055     28054     28056
     28055     28054     28057     28056     28054     28057     28008     28058     28059
     28008     28058     28060     28008     28058     28061     28059     28058     28060
     28059     28058     28061     28060     28058     28061     28058     28061     28062
     28058     28061     28063     28058     28061     28064     28062     28061     28063
     28062     28061     28064     28063     28061     28064     28061     28064     28065
     28061     28064     28066     28061     28064     28067     28065     28064     28066
     28065     28064     28067     28066     28064     28067     28064     28067     28068
     28064     28067     28069     28064     28067     28070     28068     28067     28069
     28068     28067     28070     28069     28067     28070     28067     28070     28071
     28067     28070     28072     28067     28070     28073     28071     28070     28072
     28071     28070     28073     28072     28070     28073     28070     28073     28074
     28070     28073     28075     28070     28073     28076     28074     28073     28075
     28074     28073     28076     28075     28073     28076     28073     28076     28077
     28073     28076     28078     28073     28076     28079     28077     28076     28078
     28077     28076     28079     28078     28076     28079     28076     28079     28080
     28076     28079     28081     28076     28079     28082     28080     28079     28081
     28080     28079     28082     28081     28079     28082     28079     28082     28083
     28079     28082     28084     28079     28082     28085     28083     28082     28084
     28083     28082     28085     28084     28082     28085     28082     28085     28086
     28082     28085     28087     28082     28085     28088     28086     28085     28087
     28086     28085     28088     28087     28085     28088     28085     28088     28089
     28085     28088     28090     28085     28088     28091     28089     28088     28090
     28089     28088     28091     28090     28088     28091     28088     28091     28092
     28088     28091     28093     28088     28091     28094     28092     28091     28093
     28092     28091     28094     28093     28091     28094     28091     28094     28095
     28091     28094     28096     28091     28094     28097     28095     28094     28096
     28095     28094     28097     28096     28094     28097     28094     28097     28098
     28094     28097     28099     28094     28097     28100     28098     28097     28099
     28098     28097     28100     28099     28097     28100     28102     28101     28105
     28102     28101     28109     28102     28101     28113     28105     28101     28109
     28105     28101     28113     28109     28101     28113     28101     28102     28103
     28101     28102     28104     28101     28102     28117     28103     28102     28104
     28103     28102     28117     28104     28102     28117     28101     28105     28106
     28101     28105     28107     28101     28105     28108     28106     28105     28107
     28106     28105     28108     28107     28105     28108     28101     28109     28110
     28101     28109     28111     28101     28109     28112     28110     28109     28111
     28110     28109     28112     28111     28109     28112     28101     28113     28114
     28101     28113     28115     28101     28113     28116     28114     28113     28115
     28114     28113     28116     28115     28113     28116     28102     28117     28118
     28102     28117     28119     28102     28117     28123     28118     28117     28119
     28118     28117     28123     28119     28117     28123     28121     28120     28122
     28121     28120     28123     28121     28120     28124     28122     28120     28123
     28122     28120     28124     28123     28120     28124     28117     28123     28120
     28120     28124     28125     28124     28125     28126     28124     28125     28127
     28124     28125     28128     28126     28125     28127     28126     28125     28128
     28127     28125     28128     28125     28128     28129     28125     28128     28130
     28125     28128     28136     28129     28128     28130     28129     28128     28136
     28130     28128     28136     28128     28130     28131     28130     28131     28132
     28130     28131     28133     28132     28131     28133     28131     28133     28134
     28131     28133     28135     28131     28133     28145     28134     28133     28135
     28134     28133     28145     28135     28133     28145     28128     28136     28137
     28128     28136     28138     28128     28136     28139     28137     28136     28138
     28137     28136     28139     28138     28136     28139     28136     28139     28140
     28139     28140     28141     28139     28140     28142     28141     28140     28142
     28140     28142     28143     28140     28142     28144     28140     28142     28192
     28143     28142     28144     28143     28142     28192     28144     28142     28192
     28133     28145     28146     28133     28145     28147     28133     28145     28148
     28146     28145     28147     28146     28145     28148     28147     28145     28148
     28145     28148     28149     28145     28148     28150     28145     28148     28151
     28149     28148     28150     28149     28148     28151     28150     28148     28151
     28148     28151     28152     28148     28151     28153     28148     28151     28154
     28152     28151     28153     28152     28151     28154     28153     28151     28154
     28151     28154     28155     28151     28154     28156     28151     28154     28157
     28155     28154     28156     28155     28154     28157     28156     28154     28157
     28154     28157     28158     28154     28157     28159     28154     28157     28160
     28158     28157     28159     28158     28157     28160     28159     28157     28160
     28157     28160     28161     28157     28160     28162     28157     28160     28163
     28161     28160     28162     28161     28160     28163     28162     28160     28163
     28160     28163     28164     28160     28163     28165     28164     28163     28165
     28163     28165     28166     28163     28165     28167     28166     28165     28167
     28165     28167     28168     28165     28167     28169     28165     28167     28170
     28168     28167     28169     28168     28167     28170     28169     28167     28170
     28167     28170     28171     28167     28170     28172     28167     28170     28173
     28171     28170     28172     28171     28170     28173     28172     28170     28173
     28170     28173     28174     28170     28173     28175     28170     28173     28176
     28174     28173     28175     28174     28173     28176     28175     28173     28176
     28173     28176     28177     28173     28176     28178     28173     28176     28179
     28177     28176     28178     28177     28176     28179     28178     28176     28179
     28176     28179     28180     28176     28179     28181     28176     28179     28182
     28180     28179     28181     28180     28179     28182     28181     28179     28182
     28179     28182     28183     28179     28182     28184     28179     28182     28185
     28183     28182     28184     28183     28182     28185     28184     28182     28185
     28182     28185     28186     28182     28185     28187     28182     28185     28188
     28186     28185     28187     28186     28185     28188     28187     28185     28188
     28185     28188     28189     28185     28188     28190     28185     28188     28191
     28189     28188     28190     28189     28188     28191     28190     28188     28191
     28142     28192     28193     28142     28192     28194     28142     28192     28195
     28193     28192     28194     28193     28192     28195     28194     28192     28195
     28192     28195     28196     28192     28195     28197     28192     28195     28198
     28196     28195     28197     28196     28195     28198     28197     28195     28198
     28195     28198     28199     28195     28198     28200     28195     28198     28201
     28199     28198     28200     28199     28198     28201     28200     28198     28201
     28198     28201     28202     28198     28201     28203     28198     28201     28204
     28202     28201     28203     28202     28201     28204     28203     28201     28204
     28201     28204     28205     28201     28204     28206     28201     28204     28207
     28205     28204     28206     28205     28204     28207     28206     28204     28207
     28204     28207     28208     28204     28207     28209     28204     28207     28210
     28208     28207     28209     28208     28207     28210     28209     28207     28210
     28207     28210     28211     28207     28210     28212     28207     28210     28213
     28211     28210     28212     28211     28210     28213     28212     28210     28213
     28210     28213     28214     28210     28213     28215     28210     28213     28216
     28214     28213     28215     28214     28213     28216     28215     28213     28216
     28213     28216     28217     28213     28216     28218     28213     28216     28219
     28217     28216     28218     28217     28216     28219     28218     28216     28219
     28216     28219     28220     28216     28219     28221     28216     28219     28222
     28220     28219     28221     28220     28219     28222     28221     28219     28222
     28219     28222     28223     28219     28222     28224     28219     28222     28225
     28223     28222     28224     28223     28222     28225     28224     28222     28225
     28222     28225     28226     28222     28225     28227     28222     28225     28228
     28226     28225     28227     28226     28225     28228     28227     28225     28228
     28225     28228     28229     28225     28228     28230     28225     28228     28231
     28229     28228     28230     28229     28228     28231     28230     28228     28231
     28228     28231     28232     28228     28231     28233     28228     28231     28234
     28232     28231     28233     28232     28231     28234     28233     28231     28234
     28236     28235     28239     28236     28235     28243     28236     28235     28247
     28239     28235     28243     28239     28235     28247     28243     28235     28247
     28235     28236     28237     28235     28236     28238     28235     28236     28251
     28237     28236     28238     28237     28236     28251     28238     28236     28251
     28235     28239     28240     28235     28239     28241     28235     28239     28242
     28240     28239     28241     28240     28239     28242     28241     28239     28242
     28235     28243     28244     28235     28243     28245     28235     28243     28246
     28244     28243     28245     28244     28243     28246     28245     28243     28246
     28235     28247     28248     28235     28247     28249     28235     28247     28250
     28248     28247     28249     28248     28247     28250     28249     28247     28250
     28236     28251     28252     28236     28251     28253     28236     28251     28257
     28252     28251     28253     28252     28251     28257     28253     28251     28257
     28255     28254     28256     28255     28254     28257     28255     28254     28258
     28256     28254     28257     28256     28254     28258     28257     28254     28258
     28251     28257     28254     28254     28258     28259     28258     28259     28260
     28258     28259     28261     28258     28259     28262     28260     28259     28261
     28260     28259     28262     28261     28259     28262     28259     28262     28263
     28259     28262     28264     28259     28262     28270     28263     28262     28264
     28263     28262     28270     28264     28262     28270     28262     28264     28265
     28264     28265     28266     28264     28265     28267     28266     28265     28267
     28265     28267     28268     28265     28267     28269     28265     28267     28279
     28268     28267     28269     28268     28267     28279     28269     28267     28279
     28262     28270     28271     28262     28270     28272     28262     28270     28273
     28271     28270     28272     28271     28270     28273     28272     28270     28273
     28270     28273     28274     28273     28274     28275     28273     28274     28276
     28275     28274     28276     28274     28276     28277     28274     28276     28278
     28274     28276     28326     28277     28276     28278     28277     28276     28326
     28278     28276     28326     28267     28279     28280     28267     28279     28281
     28267     28279     28282     28280     28279     28281     28280     28279     28282
     28281     28279     28282     28279     28282     28283     28279     28282     28284
     28279     28282     28285     28283     28282     28284     28283     28282     28285
     28284     28282     28285     28282     28285     28286     28282     28285     28287
     28282     28285     28288     28286     28285     28287     28286     28285     28288
     28287     28285     28288     28285     28288     28289     28285     28288     28290
     28285     28288     28291     28289     28288     28290     28289     28288     28291
     28290     28288     28291     28288     28291     28292     28288     28291     28293
     28288     28291     28294     28292     28291     28293     28292     28291     28294
     28293     28291     28294     28291     28294     28295     28291     28294     28296
     28291     28294     28297     28295     28294     28296     28295     28294     28297
     28296     28294     28297     28294     28297     28298     28294     28297     28299
     28298     28297     28299     28297     28299     28300     28297     28299     28301
     28300     28299     28301     28299     28301     28302     28299     28301     28303
     28299     28301     28304     28302     28301     28303     28302     28301     28304
     28303     28301     28304     28301     28304     28305     28301     28304     28306
     28301     28304     28307     28305     28304     28306     28305     28304     28307
     28306     28304     28307     28304     28307     28308     28304     28307     28309
     28304     28307     28310     28308     28307     28309     28308     28307     28310
     28309     28307     28310     28307     28310     28311     28307     28310     28312
     28307     28310     28313     28311     28310     28312     28311     28310     28313
     28312     28310     28313     28310     28313     28314     28310     28313     28315
     28310     28313     28316     28314     28313     28315     28314     28313     28316
     28315     28313     28316     28313     28316     28317     28313     28316     28318
     28313     28316     28319     28317     28316     28318     28317     28316     28319
     28318     28316     28319     28316     28319     28320     28316     28319     28321
     28316     28319     28322     28320     28319     28321     28320     28319     28322
     28321     28319     28322     28319     28322     28323     28319     28322     28324
     28319     28322     28325     28323     28322     28324     28323     28322     28325
     28324     28322     28325     28276     28326     28327     28276     28326     28328
     28276     28326     28329     28327     28326     28328     28327     28326     28329
     28328     28326     28329     28326     28329     28330     28326     28329     28331
     28326     28329     28332     28330     28329     28331     28330     28329     28332
     28331     28329     28332     28329     28332     28333     28329     28332     28334
     28329     28332     28335     28333     28332     28334     28333     28332     28335
     28334     28332     28335     28332     28335     28336     28332     28335     28337
     28332     28335     28338     28336     28335     28337     28336     28335     28338
     28337     28335     28338     28335     28338     28339     28335     28338     28340
     28335     28338     28341     28339     28338     28340     28339     28338     28341
     28340     28338     28341     28338     28341     28342     28338     28341     28343
     28338     28341     28344     28342     28341     28343     28342     28341     28344
     28343     28341     28344     28341     28344     28345     28341     28344     28346
     28341     28344     28347     28345     28344     28346     28345     28344     28347
     28346     28344     28347     28344     28347     28348     28344     28347     28349
     28344     28347     28350     28348     28347     28349     28348     28347     28350
     28349     28347     28350     28347     28350     28351     28347     28350     28352
     28347     28350     28353     28351     28350     28352     28351     28350     28353
     28352     28350     28353     28350     28353     28354     28350     28353     28355
     28350     28353     28356     28354     28353     28355     28354     28353     28356
     28355     28353     28356     28353     28356     28357     28353     28356     28358
     28353     28356     28359     28357     28356     28358     28357     28356     28359
     28358     28356     28359     28356     28359     28360     28356     28359     28361
     28356     28359     28362     28360     28359     28361     28360     28359     28362
     28361     28359     28362     28359     28362     28363     28359     28362     28364
     28359     28362     28365     28363     28362     28364     28363     28362     28365
     28364     28362     28365     28362     28365     28366     28362     28365     28367
     28362     28365     28368     28366     28365     28367     28366     28365     28368
     28367     28365     28368     28370     28369     28373     28370     28369     28377
     28370     28369     28381     28373     28369     28377     28373     28369     28381
     28377     28369     28381     28369     28370     28371     28369     28370     28372
     28369     28370     28385     28371     28370     28372     28371     28370     28385
     28372     28370     28385     28369     28373     28374     28369     28373     28375
     28369     28373     28376     28374     28373     28375     28374     28373     28376
     28375     28373     28376     28369     28377     28378     28369     28377     28379
     28369     28377     28380     28378     28377     28379     28378     28377     28380
     28379     28377     28380     28369     28381     28382     28369     28381     28383
     28369     28381     28384     28382     28381     28383     28382     28381     28384
     28383     28381     28384     28370     28385     28386     28370     28385     28387
     28370     28385     28391     28386     28385     28387     28386     28385     28391
     28387     28385     28391     28389     28388     28390     28389     28388     28391
     28389     28388     28392     28390     28388     28391     28390     28388     28392
     28391     28388     28392     28385     28391     28388     28388     28392     28393
     28392     28393     28394     28392     28393     28395     28392     28393     28396
     28394     28393     28395     28394     28393     28396     28395     28393     28396
     28393     28396     28397     28393     28396     28398     28393     28396     28404
     28397     28396     28398     28397     28396     28404     28398     28396     28404
     28396     28398     28399     28398     28399     28400     28398     28399     28401
     28400     28399     28401     28399     28401     28402     28399     28401     28403
     28399     28401     28413     28402     28401     28403     28402     28401     28413
     28403     28401     28413     28396     28404     28405     28396     28404     28406
     28396     28404     28407     28405     28404     28406     28405     28404     28407
     28406     28404     28407     28404     28407     28408     28407     28408     28409
     28407     28408     28410     28409     28408     28410     28408     28410     28411
     28408     28410     28412     28408     28410     28460     28411     28410     28412
     28411     28410     28460     28412     28410     28460     28401     28413     28414
     28401     28413     28415     28401     28413     28416     28414     28413     28415
     28414     28413     28416     28415     28413     28416     28413     28416     28417
     28413     28416     28418     28413     28416     28419     28417     28416     28418
     28417     28416     28419     28418     28416     28419     28416     28419     28420
     28416     28419     28421     28416     28419     28422     28420     28419     28421
     28420     28419     28422     28421     28419     28422     28419     28422     28423
     28419     28422     28424     28419     28422     28425     28423     28422     28424
     28423     28422     28425     28424     28422     28425     28422     28425     28426
     28422     28425     28427     28422     28425     28428     28426     28425     28427
     28426     28425     28428     28427     28425     28428     28425     28428     28429
     28425     28428     28430     28425     28428     28431     28429     28428     28430
     28429     28428     28431     28430     28428     28431     28428     28431     28432
     28428     28431     28433     28432     28431     28433     28431     28433     28434
     28431     28433     28435     28434     28433     28435     28433     28435     28436
     28433     28435     28437     28433     28435     28438     28436     28435     28437
     28436     28435     28438     28437     28435     28438     28435     28438     28439
     28435     28438     28440     28435     28438     28441     28439     28438     28440
     28439     28438     28441     28440     28438     28441     28438     28441     28442
     28438     28441     28443     28438     28441     28444     28442     28441     28443
     28442     28441     28444     28443     28441     28444     28441     28444     28445
     28441     28444     28446     28441     28444     28447     28445     28444     28446
     28445     28444     28447     28446     28444     28447     28444     28447     28448
     28444     28447     28449     28444     28447     28450     28448     28447     28449
     28448     28447     28450     28449     28447     28450     28447     28450     28451
     28447     28450     28452     28447     28450     28453     28451     28450     28452
     28451     28450     28453     28452     28450     28453     28450     28453     28454
     28450     28453     28455     28450     28453     28456     28454     28453     28455
     28454     28453     28456     28455     28453     28456     28453     28456     28457
     28453     28456     28458     28453     28456     28459     28457     28456     28458
     28457     28456     28459     28458     28456     28459     28410     28460     28461
     28410     28460     28462     28410     28460     28463     28461     28460     28462
     28461     28460     28463     28462     28460     28463     28460     28463     28464
     28460     28463     28465     28460     28463     28466     28464     28463     28465
     28464     28463     28466     28465     28463     28466     28463     28466     28467
     28463     28466     28468     28463     28466     28469     28467     28466     28468
     28467     28466     28469     28468     28466     28469     28466     28469     28470
     28466     28469     28471     28466     28469     28472     28470     28469     28471
     28470     28469     28472     28471     28469     28472     28469     28472     28473
     28469     28472     28474     28469     28472     28475     28473     28472     28474
     28473     28472     28475     28474     28472     28475     28472     28475     28476
     28472     28475     28477     28472     28475     28478     28476     28475     28477
     28476     28475     28478     28477     28475     28478     28475     28478     28479
     28475     28478     28480     28475     28478     28481     28479     28478     28480
     28479     28478     28481     28480     28478     28481     28478     28481     28482
     28478     28481     28483     28478     28481     28484     28482     28481     28483
     28482     28481     28484     28483     28481     28484     28481     28484     28485
     28481     28484     28486     28481     28484     28487     28485     28484     28486
     28485     28484     28487     28486     28484     28487     28484     28487     28488
     28484     28487     28489     28484     28487     28490     28488     28487     28489
     28488     28487     28490     28489     28487     28490     28487     28490     28491
     28487     28490     28492     28487     28490     28493     28491     28490     28492
     28491     28490     28493     28492     28490     28493     28490     28493     28494
     28490     28493     28495     28490     28493     28496     28494     28493     28495
     28494     28493     28496     28495     28493     28496     28493     28496     28497
     28493     28496     28498     28493     28496     28499     28497     28496     28498
     28497     28496     28499     28498     28496     28499     28496     28499     28500
     28496     28499     28501     28496     28499     28502     28500     28499     28501
     28500     28499     28502     28501     28499     28502     28504     28503     28507
     28504     28503     28511     28504     28503     28515     28507     28503     28511
     28507     28503     28515     28511     28503     28515     28503     28504     28505
     28503     28504     28506     28503     28504     28519     28505     28504     28506
     28505     28504     28519     28506     28504     28519     28503     28507     28508
     28503     28507     28509     28503     28507     28510     28508     28507     28509
     28508     28507     28510     28509     28507     28510     28503     28511     28512
     28503     28511     28513     28503     28511     28514     28512     28511     28513
     28512     28511     28514     28513     28511     28514     28503     28515     28516
     28503     28515     28517     28503     28515     28518     28516     28515     28517
     28516     28515     28518     28517     28515     28518     28504     28519     28520
     28504     28519     28521     28504     28519     28525     28520     28519     28521
     28520     28519     28525     28521     28519     28525     28523     28522     28524
     28523     28522     28525     28523     28522     28526     28524     28522     28525
     28524     28522     28526     28525     28522     28526     28519     28525     28522
     28522     28526     28527     28526     28527     28528     28526     28527     28529
     28526     28527     28530     28528     28527     28529     28528     28527     28530
     28529     28527     28530     28527     28530     28531     28527     28530     28532
     28527     28530     28538     28531     28530     28532     28531     28530     28538
     28532     28530     28538     28530     28532     28533     28532     28533     28534
     28532     28533     28535     28534     28533     28535     28533     28535     28536
     28533     28535     28537     28533     28535     28547     28536     28535     28537
     28536     28535     28547     28537     28535     28547     28530     28538     28539
     28530     28538     28540     28530     28538     28541     28539     28538     28540
     28539     28538     28541     28540     28538     28541     28538     28541     28542
     28541     28542     28543     28541     28542     28544     28543     28542     28544
     28542     28544     28545     28542     28544     28546     28542     28544     28594
     28545     28544     28546     28545     28544     28594     28546     28544     28594
     28535     28547     28548     28535     28547     28549     28535     28547     28550
     28548     28547     28549     28548     28547     28550     28549     28547     28550
     28547     28550     28551     28547     28550     28552     28547     28550     28553
     28551     28550     28552     28551     28550     28553     28552     28550     28553
     28550     28553     28554     28550     28553     28555     28550     28553     28556
     28554     28553     28555     28554     28553     28556     28555     28553     28556
     28553     28556     28557     28553     28556     28558     28553     28556     28559
     28557     28556     28558     28557     28556     28559     28558     28556     28559
     28556     28559     28560     28556     28559     28561     28556     28559     28562
     28560     28559     28561     28560     28559     28562     28561     28559     28562
     28559     28562     28563     28559     28562     28564     28559     28562     28565
     28563     28562     28564     28563     28562     28565     28564     28562     28565
     28562     28565     28566     28562     28565     28567     28566     28565     28567
     28565     28567     28568     28565     28567     28569     28568     28567     28569
     28567     28569     28570     28567     28569     28571     28567     28569     28572
     28570     28569     28571     28570     28569     28572     28571     28569     28572
     28569     28572     28573     28569     28572     28574     28569     28572     28575
     28573     28572     28574     28573     28572     28575     28574     28572     28575
     28572     28575     28576     28572     28575     28577     28572     28575     28578
     28576     28575     28577     28576     28575     28578     28577     28575     28578
     28575     28578     28579     28575     28578     28580     28575     28578     28581
     28579     28578     28580     28579     28578     28581     28580     28578     28581
     28578     28581     28582     28578     28581     28583     28578     28581     28584
     28582     28581     28583     28582     28581     28584     28583     28581     28584
     28581     28584     28585     28581     28584     28586     28581     28584     28587
     28585     28584     28586     28585     28584     28587     28586     28584     28587
     28584     28587     28588     28584     28587     28589     28584     28587     28590
     28588     28587     28589     28588     28587     28590     28589     28587     28590
     28587     28590     28591     28587     28590     28592     28587     28590     28593
     28591     28590     28592     28591     28590     28593     28592     28590     28593
     28544     28594     28595     28544     28594     28596     28544     28594     28597
     28595     28594     28596     28595     28594     28597     28596     28594     28597
     28594     28597     28598     28594     28597     28599     28594     28597     28600
     28598     28597     28599     28598     28597     28600     28599     28597     28600
     28597     28600     28601     28597     28600     28602     28597     28600     28603
     28601     28600     28602     28601     28600     28603     28602     28600     28603
     28600     28603     28604     28600     28603     28605     28600     28603     28606
     28604     28603     28605     28604     28603     28606     28605     28603     28606
     28603     28606     28607     28603     28606     28608     28603     28606     28609
     28607     28606     28608     28607     28606     28609     28608     28606     28609
     28606     28609     28610     28606     28609     28611     28606     28609     28612
     28610     28609     28611     28610     28609     28612     28611     28609     28612
     28609     28612     28613     28609     28612     28614     28609     28612     28615
     28613     28612     28614     28613     28612     28615     28614     28612     28615
     28612     28615     28616     28612     28615     28617     28612     28615     28618
     28616     28615     28617     28616     28615     28618     28617     28615     28618
     28615     28618     28619     28615     28618     28620     28615     28618     28621
     28619     28618     28620     28619     28618     28621     28620     28618     28621
     28618     28621     28622     28618     28621     28623     28618     28621     28624
     28622     28621     28623     28622     28621     28624     28623     28621     28624
     28621     28624     28625     28621     28624     28626     28621     28624     28627
     28625     28624     28626     28625     28624     28627     28626     28624     28627
     28624     28627     28628     28624     28627     28629     28624     28627     28630
     28628     28627     28629     28628     28627     28630     28629     28627     28630
     28627     28630     28631     28627     28630     28632     28627     28630     28633
     28631     28630     28632     28631     28630     28633     28632     28630     28633
     28630     28633     28634     28630     28633     28635     28630     28633     28636
     28634     28633     28635     28634     28633     28636     28635     28633     28636
     28638     28637     28639     28641     28640     28642     28644     28643     28645
     28647     28646     28648     28650     28649     28651     28653     28652     28654
     28656     28655     28657     28659     28658     28660     28662     28661     28663
     28665     28664     28666     28668     28667     28669     28671     28670     28672
     28674     28673     28675     28677     28676     28678     28680     28679     28681
     28683     28682     28684     28686     28685     28687     28689     28688     28690
     28692     28691     28693     28695     28694     28696     28698     28697     28699
     28701     28700     28702     28704     28703     28705     28707     28706     28708
     28710     28709     28711     28713     28712     28714     28716     28715     28717
     28719     28718     28720     28722     28721     28723     28725     28724     28726
     28728     28727     28729     28731     28730     28732     28734     28733     28735
     28737     28736     28738     28740     28739     28741     28743     28742     28744
     28746     28745     28747     28749     28748     28750     28752     28751     28753
     28755     28754     28756     28758     28757     28759     28761     28760     28762
     28764     28763     28765     28767     28766     28768     28770     28769     28771
     28773     28772     28774     28776     28775     28777     28779     28778     28780
     28782     28781     28783     28785     28784     28786     28788     28787     28789
     28791     28790     28792     28794     28793     28795     28797     28796     28798
     28800     28799     28801     28803     28802     28804     28806     28805     28807
     28809     28808     28810     28812     28811     28813     28815     28814     28816
     28818     28817     28819     28821     28820     28822     28824     28823     28825
     28827     28826     28828     28830     28829     28831     28833     28832     28834
     28836     28835     28837     28839     28838     28840     28842     28841     28843
     28845     28844     28846     28848     28847     28849     28851     28850     28852
     28854     28853     28855     28857     28856     28858     28860     28859     28861
     28863     28862     28864     28866     28865     28867     28869     28868     28870
     28872     28871     28873     28875     28874     28876     28878     28877     28879
     28881     28880     28882     28884     28883     28885     28887     28886     28888
     28890     28889     28891     28893     28892     28894     28896     28895     28897
     28899     28898     28900     28902     28901     28903     28905     28904     28906
     28908     28907     28909     28911     28910     28912     28914     28913     28915
     28917     28916     28918     28920     28919     28921     28923     28922     28924
     28926     28925     28927     28929     28928     28930     28932     28931     28933
     28935     28934     28936     28938     28937     28939     28941     28940     28942
     28944     28943     28945     28947     28946     28948     28950     28949     28951
     28953     28952     28954     28956     28955     28957     28959     28958     28960
     28962     28961     28963     28965     28964     28966     28968     28967     28969
     28971     28970     28972     28974     28973     28975     28977     28976     28978
     28980     28979     28981     28983     28982     28984     28986     28985     28987
     28989     28988     28990     28992     28991     28993     28995     28994     28996
     28998     28997     28999     29001     29000     29002     29004     29003     29005
     29007     29006     29008     29010     29009     29011     29013     29012     29014
     29016     29015     29017     29019     29018     29020     29022     29021     29023
     29025     29024     29026     29028     29027     29029     29031     29030     29032
     29034     29033     29035     29037     29036     29038     29040     29039     29041
     29043     29042     29044     29046     29045     29047     29049     29048     29050
     29052     29051     29053     29055     29054     29056     29058     29057     29059
     29061     29060     29062     29064     29063     29065     29067     29066     29068
     29070     29069     29071     29073     29072     29074     29076     29075     29077
     29079     29078     29080     29082     29081     29083     29085     29084     29086
     29088     29087     29089     29091     29090     29092     29094     29093     29095
     29097     29096     29098     29100     29099     29101     29103     29102     29104
     29106     29105     29107     29109     29108     29110     29112     29111     29113
     29115     29114     29116     29118     29117     29119     29121     29120     29122
     29124     29123     29125     29127     29126     29128     29130     29129     29131
     29133     29132     29134     29136     29135     29137     29139     29138     29140
     29142     29141     29143     29145     29144     29146     29148     29147     29149
     29151     29150     29152     29154     29153     29155     29157     29156     29158
     29160     29159     29161     29163     29162     29164     29166     29165     29167
     29169     29168     29170     29172     29171     29173     29175     29174     29176
     29178     29177     29179     29181     29180     29182     29184     29183     29185
     29187     29186     29188     29190     29189     29191     29193     29192     29194
     29196     29195     29197     29199     29198     29200     29202     29201     29203
     29205     29204     29206     29208     29207     29209     29211     29210     29212
     29214     29213     29215     29217     29216     29218     29220     29219     29221
     29223     29222     29224     29226     29225     29227     29229     29228     29230
     29232     29231     29233     29235     29234     29236     29238     29237     29239
     29241     29240     29242     29244     29243     29245     29247     29246     29248
     29250     29249     29251     29253     29252     29254     29256     29255     29257
     29259     29258     29260     29262     29261     29263     29265     29264     29266
     29268     29267     29269     29271     29270     29272     29274     29273     29275
     29277     29276     29278     29280     29279     29281     29283     29282     29284
     29286     29285     29287     29289     29288     29290     29292     29291     29293
     29295     29294     29296     29298     29297     29299     29301     29300     29302
     29304     29303     29305     29307     29306     29308     29310     29309     29311
     29313     29312     29314     29316     29315     29317     29319     29318     29320
     29322     29321     29323     29325     29324     29326     29328     29327     29329
     29331     29330     29332     29334     29333     29335     29337     29336     29338
     29340     29339     29341     29343     29342     29344     29346     29345     29347
     29349     29348     29350     29352     29351     29353     29355     29354     29356
     29358     29357     29359     29361     29360     29362     29364     29363     29365
     29367     29366     29368     29370     29369     29371     29373     29372     29374
     29376     29375     29377     29379     29378     29380     29382     29381     29383
     29385     29384     29386     29388     29387     29389     29391     29390     29392
     29394     29393     29395     29397     29396     29398     29400     29399     29401
     29403     29402     29404     29406     29405     29407     29409     29408     29410
     29412     29411     29413     29415     29414     29416     29418     29417     29419
     29421     29420     29422     29424     29423     29425     29427     29426     29428
     29430     29429     29431     29433     29432     29434     29436     29435     29437
     29439     29438     29440     29442     29441     29443     29445     29444     29446
     29448     29447     29449     29451     29450     29452     29454     29453     29455
     29457     29456     29458     29460     29459     29461     29463     29462     29464
     29466     29465     29467     29469     29468     29470     29472     29471     29473
     29475     29474     29476     29478     29477     29479     29481     29480     29482
     29484     29483     29485     29487     29486     29488     29490     29489     29491
     29493     29492     29494     29496     29495     29497     29499     29498     29500
     29502     29501     29503     29505     29504     29506     29508     29507     29509
     29511     29510     29512     29514     29513     29515     29517     29516     29518
     29520     29519     29521     29523     29522     29524     29526     29525     29527
     29529     29528     29530     29532     29531     29533     29535     29534     29536
     29538     29537     29539     29541     29540     29542     29544     29543     29545
     29547     29546     29548     29550     29549     29551     29553     29552     29554
     29556     29555     29557     29559     29558     29560     29562     29561     29563
     29565     29564     29566     29568     29567     29569     29571     29570     29572
     29574     29573     29575     29577     29576     29578     29580     29579     29581
     29583     29582     29584     29586     29585     29587     29589     29588     29590
     29592     29591     29593     29595     29594     29596     29598     29597     29599
     29601     29600     29602     29604     29603     29605     29607     29606     29608
     29610     29609     29611     29613     29612     29614     29616     29615     29617
     29619     29618     29620     29622     29621     29623     29625     29624     29626
     29628     29627     29629     29631     29630     29632     29634     29633     29635
     29637     29636     29638     29640     29639     29641     29643     29642     29644
     29646     29645     29647     29649     29648     29650     29652     29651     29653
     29655     29654     29656     29658     29657     29659     29661     29660     29662
     29664     29663     29665     29667     29666     29668     29670     29669     29671
     29673     29672     29674     29676     29675     29677     29679     29678     29680
     29682     29681     29683     29685     29684     29686     29688     29687     29689
     29691     29690     29692     29694     29693     29695     29697     29696     29698
     29700     29699     29701     29703     29702     29704     29706     29705     29707
     29709     29708     29710     29712     29711     29713     29715     29714     29716
     29718     29717     29719     29721     29720     29722     29724     29723     29725
     29727     29726     29728     29730     29729     29731     29733     29732     29734
     29736     29735     29737     29739     29738     29740     29742     29741     29743
     29745     29744     29746     29748     29747     29749     29751     29750     29752
     29754     29753     29755     29757     29756     29758     29760     29759     29761
     29763     29762     29764     29766     29765     29767     29769     29768     29770
     29772     29771     29773     29775     29774     29776     29778     29777     29779
     29781     29780     29782     29784     29783     29785     29787     29786     29788
     29790     29789     29791     29793     29792     29794     29796     29795     29797
     29799     29798     29800     29802     29801     29803     29805     29804     29806
     29808     29807     29809     29811     29810     29812     29814     29813     29815
     29817     29816     29818     29820     29819     29821     29823     29822     29824
     29826     29825     29827     29829     29828     29830     29832     29831     29833
     29835     29834     29836     29838     29837     29839     29841     29840     29842
     29844     29843     29845     29847     29846     29848     29850     29849     29851
     29853     29852     29854     29856     29855     29857     29859     29858     29860
     29862     29861     29863     29865     29864     29866     29868     29867     29869
     29871     29870     29872     29874     29873     29875     29877     29876     29878
     29880     29879     29881     29883     29882     29884     29886     29885     29887
     29889     29888     29890     29892     29891     29893     29895     29894     29896
     29898     29897     29899     29901     29900     29902     29904     29903     29905
     29907     29906     29908     29910     29909     29911     29913     29912     29914
     29916     29915     29917     29919     29918     29920     29922     29921     29923
     29925     29924     29926     29928     29927     29929     29931     29930     29932
     29934     29933     29935     29937     29936     29938     29940     29939     29941
     29943     29942     29944     29946     29945     29947     29949     29948     29950
     29952     29951     29953     29955     29954     29956     29958     29957     29959
     29961     29960     29962     29964     29963     29965     29967     29966     29968
     29970     29969     29971     29973     29972     29974     29976     29975     29977
     29979     29978     29980     29982     29981     29983     29985     29984     29986
     29988     29987     29989     29991     29990     29992     29994     29993     29995
     29997     29996     29998     30000     29999     30001     30003     30002     30004
     30006     30005     30007     30009     30008     30010     30012     30011     30013
     30015     30014     30016     30018     30017     30019     30021     30020     30022
     30024     30023     30025     30027     30026     30028     30030     30029     30031
     30033     30032     30034     30036     30035     30037     30039     30038     30040
     30042     30041     30043     30045     30044     30046     30048     30047     30049
     30051     30050     30052     30054     30053     30055     30057     30056     30058
     30060     30059     30061     30063     30062     30064     30066     30065     30067
     30069     30068     30070     30072     30071     30073     30075     30074     30076
     30078     30077     30079     30081     30080     30082     30084     30083     30085
     30087     30086     30088     30090     30089     30091     30093     30092     30094
     30096     30095     30097     30099     30098     30100     30102     30101     30103
     30105     30104     30106     30108     30107     30109     30111     30110     30112
     30114     30113     30115     30117     30116     30118     30120     30119     30121
     30123     30122     30124     30126     30125     30127     30129     30128     30130
     30132     30131     30133     30135     30134     30136     30138     30137     30139
     30141     30140     30142     30144     30143     30145     30147     30146     30148
     30150     30149     30151     30153     30152     30154     30156     30155     30157
     30159     30158     30160     30162     30161     30163     30165     30164     30166
     30168     30167     30169     30171     30170     30172     30174     30173     30175
     30177     30176     30178     30180     30179     30181     30183     30182     30184
     30186     30185     30187     30189     30188     30190     30192     30191     30193
     30195     30194     30196     30198     30197     30199     30201     30200     30202
     30204     30203     30205     30207     30206     30208     30210     30209     30211
     30213     30212     30214     30216     30215     30217     30219     30218     30220
     30222     30221     30223     30225     30224     30226     30228     30227     30229
     30231     30230     30232     30234     30233     30235     30237     30236     30238
     30240     30239     30241     30243     30242     30244     30246     30245     30247
     30249     30248     30250     30252     30251     30253     30255     30254     30256
     30258     30257     30259     30261     30260     30262     30264     30263     30265
     30267     30266     30268     30270     30269     30271     30273     30272     30274
     30276     30275     30277     30279     30278     30280     30282     30281     30283
     30285     30284     30286     30288     30287     30289     30291     30290     30292
     30294     30293     30295     30297     30296     30298     30300     30299     30301
     30303     30302     30304     30306     30305     30307     30309     30308     30310
     30312     30311     30313     30315     30314     30316     30318     30317     30319
     30321     30320     30322     30324     30323     30325     30327     30326     30328
     30330     30329     30331     30333     30332     30334     30336     30335     30337
     30339     30338     30340     30342     30341     30343     30345     30344     30346
     30348     30347     30349     30351     30350     30352     30354     30353     30355
     30357     30356     30358     30360     30359     30361     30363     30362     30364
     30366     30365     30367     30369     30368     30370     30372     30371     30373
     30375     30374     30376     30378     30377     30379     30381     30380     30382
     30384     30383     30385     30387     30386     30388     30390     30389     30391
     30393     30392     30394     30396     30395     30397     30399     30398     30400
     30402     30401     30403     30405     30404     30406     30408     30407     30409
     30411     30410     30412     30414     30413     30415     30417     30416     30418
     30420     30419     30421     30423     30422     30424     30426     30425     30427
     30429     30428     30430     30432     30431     30433     30435     30434     30436
     30438     30437     30439     30441     30440     30442     30444     30443     30445
     30447     30446     30448     30450     30449     30451     30453     30452     30454
     30456     30455     30457     30459     30458     30460     30462     30461     30463
     30465     30464     30466     30468     30467     30469     30471     30470     30472
     30474     30473     30475     30477     30476     30478     30480     30479     30481
     30483     30482     30484     30486     30485     30487     30489     30488     30490
     30492     30491     30493     30495     30494     30496     30498     30497     30499
     30501     30500     30502     30504     30503     30505     30507     30506     30508
     30510     30509     30511     30513     30512     30514     30516     30515     30517
     30519     30518     30520     30522     30521     30523     30525     30524     30526
     30528     30527     30529     30531     30530     30532     30534     30533     30535
     30537     30536     30538     30540     30539     30541     30543     30542     30544
     30546     30545     30547     30549     30548     30550     30552     30551     30553
     30555     30554     30556     30558     30557     30559     30561     30560     30562
     30564     30563     30565     30567     30566     30568     30570     30569     30571
     30573     30572     30574     30576     30575     30577     30579     30578     30580
     30582     30581     30583     30585     30584     30586     30588     30587     30589
     30591     30590     30592     30594     30593     30595     30597     30596     30598
     30600     30599     30601     30603     30602     30604     30606     30605     30607
     30609     30608     30610     30612     30611     30613     30615     30614     30616
     30618     30617     30619     30621     30620     30622     30624     30623     30625
     30627     30626     30628     30630     30629     30631     30633     30632     30634
     30636     30635     30637     30639     30638     30640     30642     30641     30643
     30645     30644     30646     30648     30647     30649     30651     30650     30652
     30654     30653     30655     30657     30656     30658     30660     30659     30661
     30663     30662     30664     30666     30665     30667     30669     30668     30670
     30672     30671     30673     30675     30674     30676     30678     30677     30679
     30681     30680     30682     30684     30683     30685     30687     30686     30688
     30690     30689     30691     30693     30692     30694     30696     30695     30697
     30699     30698     30700     30702     30701     30703     30705     30704     30706
     30708     30707     30709     30711     30710     30712     30714     30713     30715
     30717     30716     30718     30720     30719     30721     30723     30722     30724
     30726     30725     30727     30729     30728     30730     30732     30731     30733
     30735     30734     30736     30738     30737     30739     30741     30740     30742
     30744     30743     30745     30747     30746     30748     30750     30749     30751
     30753     30752     30754     30756     30755     30757     30759     30758     30760
     30762     30761     30763     30765     30764     30766     30768     30767     30769
     30771     30770     30772     30774     30773     30775     30777     30776     30778
     30780     30779     30781     30783     30782     30784     30786     30785     30787
     30789     30788     30790     30792     30791     30793     30795     30794     30796
     30798     30797     30799     30801     30800     30802     30804     30803     30805
     30807     30806     30808     30810     30809     30811     30813     30812     30814
     30816     30815     30817     30819     30818     30820     30822     30821     30823
     30825     30824     30826     30828     30827     30829     30831     30830     30832
     30834     30833     30835     30837     30836     30838     30840     30839     30841
     30843     30842     30844     30846     30845     30847     30849     30848     30850
     30852     30851     30853     30855     30854     30856     30858     30857     30859
     30861     30860     30862     30864     30863     30865     30867     30866     30868
     30870     30869     30871     30873     30872     30874     30876     30875     30877
     30879     30878     30880     30882     30881     30883     30885     30884     30886
     30888     30887     30889     30891     30890     30892     30894     30893     30895
     30897     30896     30898     30900     30899     30901     30903     30902     30904
     30906     30905     30907     30909     30908     30910     30912     30911     30913
     30915     30914     30916     30918     30917     30919     30921     30920     30922
     30924     30923     30925     30927     30926     30928     30930     30929     30931
     30933     30932     30934     30936     30935     30937     30939     30938     30940
     30942     30941     30943     30945     30944     30946     30948     30947     30949
     30951     30950     30952     30954     30953     30955     30957     30956     30958
     30960     30959     30961     30963     30962     30964     30966     30965     30967
     30969     30968     30970     30972     30971     30973     30975     30974     30976
     30978     30977     30979     30981     30980     30982     30984     30983     30985
     30987     30986     30988     30990     30989     30991     30993     30992     30994
     30996     30995     30997     30999     30998     31000     31002     31001     31003
     31005     31004     31006     31008     31007     31009     31011     31010     31012
     31014     31013     31015     31017     31016     31018     31020     31019     31021
     31023     31022     31024     31026     31025     31027     31029     31028     31030
     31032     31031     31033     31035     31034     31036     31038     31037     31039
     31041     31040     31042     31044     31043     31045     31047     31046     31048
     31050     31049     31051     31053     31052     31054     31056     31055     31057
     31059     31058     31060     31062     31061     31063     31065     31064     31066
     31068     31067     31069     31071     31070     31072     31074     31073     31075
     31077     31076     31078     31080     31079     31081     31083     31082     31084
     31086     31085     31087     31089     31088     31090     31092     31091     31093
     31095     31094     31096     31098     31097     31099     31101     31100     31102
     31104     31103     31105     31107     31106     31108     31110     31109     31111
     31113     31112     31114     31116     31115     31117     31119     31118     31120
     31122     31121     31123     31125     31124     31126     31128     31127     31129
     31131     31130     31132     31134     31133     31135     31137     31136     31138
     31140     31139     31141     31143     31142     31144     31146     31145     31147
     31149     31148     31150     31152     31151     31153     31155     31154     31156
     31158     31157     31159     31161     31160     31162     31164     31163     31165
     31167     31166     31168     31170     31169     31171     31173     31172     31174
     31176     31175     31177     31179     31178     31180     31182     31181     31183
     31185     31184     31186     31188     31187     31189     31191     31190     31192
     31194     31193     31195     31197     31196     31198     31200     31199     31201
     31203     31202     31204     31206     31205     31207     31209     31208     31210
     31212     31211     31213     31215     31214     31216     31218     31217     31219
     31221     31220     31222     31224     31223     31225     31227     31226     31228
     31230     31229     31231     31233     31232     31234     31236     31235     31237
     31239     31238     31240     31242     31241     31243     31245     31244     31246
     31248     31247     31249     31251     31250     31252     31254     31253     31255
     31257     31256     31258     31260     31259     31261     31263     31262     31264
     31266     31265     31267     31269     31268     31270     31272     31271     31273
     31275     31274     31276     31278     31277     31279     31281     31280     31282
     31284     31283     31285     31287     31286     31288     31290     31289     31291
     31293     31292     31294     31296     31295     31297     31299     31298     31300
     31302     31301     31303     31305     31304     31306     31308     31307     31309
     31311     31310     31312     31314     31313     31315     31317     31316     31318
     31320     31319     31321     31323     31322     31324     31326     31325     31327
     31329     31328     31330     31332     31331     31333     31335     31334     31336
     31338     31337     31339     31341     31340     31342     31344     31343     31345
     31347     31346     31348     31350     31349     31351     31353     31352     31354
     31356     31355     31357     31359     31358     31360     31362     31361     31363
     31365     31364     31366     31368     31367     31369     31371     31370     31372
     31374     31373     31375     31377     31376     31378     31380     31379     31381
     31383     31382     31384     31386     31385     31387     31389     31388     31390
     31392     31391     31393     31395     31394     31396     31398     31397     31399
     31401     31400     31402     31404     31403     31405     31407     31406     31408
     31410     31409     31411     31413     31412     31414     31416     31415     31417
     31419     31418     31420     31422     31421     31423     31425     31424     31426
     31428     31427     31429     31431     31430     31432     31434     31433     31435
     31437     31436     31438     31440     31439     31441     31443     31442     31444
     31446     31445     31447     31449     31448     31450     31452     31451     31453
     31455     31454     31456     31458     31457     31459     31461     31460     31462
     31464     31463     31465     31467     31466     31468     31470     31469     31471
     31473     31472     31474     31476     31475     31477     31479     31478     31480
     31482     31481     31483     31485     31484     31486     31488     31487     31489
     31491     31490     31492     31494     31493     31495     31497     31496     31498
     31500     31499     31501     31503     31502     31504     31506     31505     31507
     31509     31508     31510     31512     31511     31513     31515     31514     31516
     31518     31517     31519     31521     31520     31522     31524     31523     31525
     31527     31526     31528     31530     31529     31531     31533     31532     31534
     31536     31535     31537     31539     31538     31540     31542     31541     31543
     31545     31544     31546     31548     31547     31549     31551     31550     31552
     31554     31553     31555     31557     31556     31558     31560     31559     31561
     31563     31562     31564     31566     31565     31567     31569     31568     31570
     31572     31571     31573     31575     31574     31576     31578     31577     31579
     31581     31580     31582     31584     31583     31585     31587     31586     31588
     31590     31589     31591     31593     31592     31594     31596     31595     31597
     31599     31598     31600     31602     31601     31603     31605     31604     31606
     31608     31607     31609     31611     31610     31612     31614     31613     31615
     31617     31616     31618     31620     31619     31621     31623     31622     31624
     31626     31625     31627     31629     31628     31630     31632     31631     31633
     31635     31634     31636     31638     31637     31639     31641     31640     31642
     31644     31643     31645     31647     31646     31648     31650     31649     31651
     31653     31652     31654     31656     31655     31657     31659     31658     31660
     31662     31661     31663     31665     31664     31666     31668     31667     31669
     31671     31670     31672     31674     31673     31675     31677     31676     31678
     31680     31679     31681     31683     31682     31684     31686     31685     31687
     31689     31688     31690     31692     31691     31693     31695     31694     31696
     31698     31697     31699     31701     31700     31702     31704     31703     31705
     31707     31706     31708     31710     31709     31711     31713     31712     31714
     31716     31715     31717     31719     31718     31720     31722     31721     31723
     31725     31724     31726     31728     31727     31729     31731     31730     31732
     31734     31733     31735     31737     31736     31738     31740     31739     31741
     31743     31742     31744     31746     31745     31747     31749     31748     31750
     31752     31751     31753     31755     31754     31756     31758     31757     31759
     31761     31760     31762     31764     31763     31765     31767     31766     31768
     31770     31769     31771     31773     31772     31774     31776     31775     31777
     31779     31778     31780     31782     31781     31783     31785     31784     31786
     31788     31787     31789     31791     31790     31792     31794     31793     31795
     31797     31796     31798     31800     31799     31801     31803     31802     31804
     31806     31805     31807     31809     31808     31810     31812     31811     31813
     31815     31814     31816     31818     31817     31819     31821     31820     31822
     31824     31823     31825     31827     31826     31828     31830     31829     31831
     31833     31832     31834     31836     31835     31837     31839     31838     31840
     31842     31841     31843     31845     31844     31846     31848     31847     31849
     31851     31850     31852     31854     31853     31855     31857     31856     31858
     31860     31859     31861     31863     31862     31864     31866     31865     31867
     31869     31868     31870     31872     31871     31873     31875     31874     31876
     31878     31877     31879     31881     31880     31882     31884     31883     31885
     31887     31886     31888     31890     31889     31891     31893     31892     31894
     31896     31895     31897     31899     31898     31900     31902     31901     31903
     31905     31904     31906     31908     31907     31909     31911     31910     31912
     31914     31913     31915     31917     31916     31918     31920     31919     31921
     31923     31922     31924     31926     31925     31927     31929     31928     31930
     31932     31931     31933     31935     31934     31936     31938     31937     31939
     31941     31940     31942     31944     31943     31945     31947     31946     31948
     31950     31949     31951     31953     31952     31954     31956     31955     31957
     31959     31958     31960     31962     31961     31963     31965     31964     31966
     31968     31967     31969     31971     31970     31972     31974     31973     31975
     31977     31976     31978     31980     31979     31981     31983     31982     31984
     31986     31985     31987     31989     31988     31990     31992     31991     31993
     31995     31994     31996     31998     31997     31999     32001     32000     32002
     32004     32003     32005     32007     32006     32008     32010     32009     32011
     32013     32012     32014     32016     32015     32017     32019     32018     32020
     32022     32021     32023     32025     32024     32026     32028     32027     32029
     32031     32030     32032     32034     32033     32035     32037     32036     32038
     32040     32039     32041     32043     32042     32044     32046     32045     32047
     32049     32048     32050     32052     32051     32053     32055     32054     32056
     32058     32057     32059     32061     32060     32062     32064     32063     32065
     32067     32066     32068     32070     32069     32071     32073     32072     32074
     32076     32075     32077     32079     32078     32080     32082     32081     32083
     32085     32084     32086     32088     32087     32089     32091     32090     32092
     32094     32093     32095     32097     32096     32098     32100     32099     32101
     32103     32102     32104     32106     32105     32107     32109     32108     32110
     32112     32111     32113     32115     32114     32116     32118     32117     32119
     32121     32120     32122     32124     32123     32125     32127     32126     32128
     32130     32129     32131     32133     32132     32134     32136     32135     32137
     32139     32138     32140     32142     32141     32143     32145     32144     32146
     32148     32147     32149     32151     32150     32152     32154     32153     32155
     32157     32156     32158     32160     32159     32161     32163     32162     32164
     32166     32165     32167     32169     32168     32170     32172     32171     32173
     32175     32174     32176     32178     32177     32179     32181     32180     32182
     32184     32183     32185     32187     32186     32188     32190     32189     32191
     32193     32192     32194     32196     32195     32197     32199     32198     32200
     32202     32201     32203     32205     32204     32206     32208     32207     32209
     32211     32210     32212     32214     32213     32215     32217     32216     32218
     32220     32219     32221     32223     32222     32224     32226     32225     32227
     32229     32228     32230     32232     32231     32233     32235     32234     32236
     32238     32237     32239     32241     32240     32242     32244     32243     32245
     32247     32246     32248     32250     32249     32251     32253     32252     32254
     32256     32255     32257     32259     32258     32260     32262     32261     32263
     32265     32264     32266     32268     32267     32269     32271     32270     32272
     32274     32273     32275     32277     32276     32278     32280     32279     32281
     32283     32282     32284     32286     32285     32287     32289     32288     32290
     32292     32291     32293     32295     32294     32296     32298     32297     32299
     32301     32300     32302     32304     32303     32305     32307     32306     32308
     32310     32309     32311     32313     32312     32314     32316     32315     32317
     32319     32318     32320     32322     32321     32323     32325     32324     32326
     32328     32327     32329     32331     32330     32332     32334     32333     32335
     32337     32336     32338     32340     32339     32341     32343     32342     32344
     32346     32345     32347     32349     32348     32350     32352     32351     32353
     32355     32354     32356     32358     32357     32359     32361     32360     32362
     32364     32363     32365     32367     32366     32368     32370     32369     32371
     32373     32372     32374     32376     32375     32377     32379     32378     32380
     32382     32381     32383     32385     32384     32386     32388     32387     32389
     32391     32390     32392     32394     32393     32395     32397     32396     32398
     32400     32399     32401     32403     32402     32404     32406     32405     32407
     32409     32408     32410     32412     32411     32413     32415     32414     32416
     32418     32417     32419     32421     32420     32422     32424     32423     32425
     32427     32426     32428     32430     32429     32431     32433     32432     32434
     32436     32435     32437     32439     32438     32440     32442     32441     32443
     32445     32444     32446     32448     32447     32449     32451     32450     32452
     32454     32453     32455     32457     32456     32458     32460     32459     32461
     32463     32462     32464     32466     32465     32467     32469     32468     32470
     32472     32471     32473     32475     32474     32476     32478     32477     32479
     32481     32480     32482     32484     32483     32485     32487     32486     32488
     32490     32489     32491     32493     32492     32494     32496     32495     32497
     32499     32498     32500     32502     32501     32503     32505     32504     32506
     32508     32507     32509     32511     32510     32512     32514     32513     32515
     32517     32516     32518     32520     32519     32521     32523     32522     32524
     32526     32525     32527     32529     32528     32530     32532     32531     32533
     32535     32534     32536     32538     32537     32539     32541     32540     32542
     32544     32543     32545     32547     32546     32548     32550     32549     32551
     32553     32552     32554     32556     32555     32557     32559     32558     32560
     32562     32561     32563     32565     32564     32566     32568     32567     32569
     32571     32570     32572     32574     32573     32575     32577     32576     32578
     32580     32579     32581     32583     32582     32584     32586     32585     32587
     32589     32588     32590     32592     32591     32593     32595     32594     32596
     32598     32597     32599     32601     32600     32602     32604     32603     32605
     32607     32606     32608     32610     32609     32611     32613     32612     32614
     32616     32615     32617     32619     32618     32620     32622     32621     32623
     32625     32624     32626     32628     32627     32629     32631     32630     32632
     32634     32633     32635     32637     32636     32638     32640     32639     32641
     32643     32642     32644     32646     32645     32647     32649     32648     32650
     32652     32651     32653     32655     32654     32656     32658     32657     32659
     32661     32660     32662     32664     32663     32665     32667     32666     32668
     32670     32669     32671     32673     32672     32674     32676     32675     32677
     32679     32678     32680     32682     32681     32683     32685     32684     32686
     32688     32687     32689     32691     32690     32692     32694     32693     32695
     32697     32696     32698     32700     32699     32701     32703     32702     32704
     32706     32705     32707     32709     32708     32710     32712     32711     32713
     32715     32714     32716     32718     32717     32719     32721     32720     32722
     32724     32723     32725     32727     32726     32728     32730     32729     32731
     32733     32732     32734     32736     32735     32737     32739     32738     32740
     32742     32741     32743     32745     32744     32746     32748     32747     32749
     32751     32750     32752     32754     32753     32755     32757     32756     32758
     32760     32759     32761     32763     32762     32764     32766     32765     32767
     32769     32768     32770     32772     32771     32773     32775     32774     32776
     32778     32777     32779     32781     32780     32782     32784     32783     32785
     32787     32786     32788     32790     32789     32791     32793     32792     32794
     32796     32795     32797     32799     32798     32800     32802     32801     32803
     32805     32804     32806     32808     32807     32809     32811     32810     32812
     32814     32813     32815     32817     32816     32818     32820     32819     32821
     32823     32822     32824     32826     32825     32827     32829     32828     32830
     32832     32831     32833     32835     32834     32836     32838     32837     32839
     32841     32840     32842     32844     32843     32845     32847     32846     32848
     32850     32849     32851     32853     32852     32854     32856     32855     32857
     32859     32858     32860     32862     32861     32863     32865     32864     32866
     32868     32867     32869     32871     32870     32872     32874     32873     32875
     32877     32876     32878     32880     32879     32881     32883     32882     32884
     32886     32885     32887     32889     32888     32890     32892     32891     32893
     32895     32894     32896     32898     32897     32899     32901     32900     32902
     32904     32903     32905     32907     32906     32908     32910     32909     32911
     32913     32912     32914     32916     32915     32917     32919     32918     32920
     32922     32921     32923     32925     32924     32926     32928     32927     32929
     32931     32930     32932     32934     32933     32935     32937     32936     32938
     32940     32939     32941     32943     32942     32944     32946     32945     32947
     32949     32948     32950     32952     32951     32953     32955     32954     32956
     32958     32957     32959     32961     32960     32962     32964     32963     32965
     32967     32966     32968     32970     32969     32971     32973     32972     32974
     32976     32975     32977     32979     32978     32980     32982     32981     32983
     32985     32984     32986     32988     32987     32989     32991     32990     32992
     32994     32993     32995     32997     32996     32998     33000     32999     33001
     33003     33002     33004     33006     33005     33007     33009     33008     33010
     33012     33011     33013     33015     33014     33016     33018     33017     33019
     33021     33020     33022     33024     33023     33025     33027     33026     33028
     33030     33029     33031     33033     33032     33034     33036     33035     33037
     33039     33038     33040     33042     33041     33043     33045     33044     33046
     33048     33047     33049     33051     33050     33052     33054     33053     33055
     33057     33056     33058     33060     33059     33061     33063     33062     33064
     33066     33065     33067     33069     33068     33070     33072     33071     33073
     33075     33074     33076     33078     33077     33079     33081     33080     33082
     33084     33083     33085     33087     33086     33088     33090     33089     33091
     33093     33092     33094     33096     33095     33097     33099     33098     33100
     33102     33101     33103     33105     33104     33106     33108     33107     33109
     33111     33110     33112     33114     33113     33115     33117     33116     33118
     33120     33119     33121     33123     33122     33124     33126     33125     33127
     33129     33128     33130     33132     33131     33133     33135     33134     33136
     33138     33137     33139     33141     33140     33142     33144     33143     33145
     33147     33146     33148     33150     33149     33151     33153     33152     33154
     33156     33155     33157     33159     33158     33160     33162     33161     33163
     33165     33164     33166     33168     33167     33169     33171     33170     33172
     33174     33173     33175     33177     33176     33178     33180     33179     33181
     33183     33182     33184     33186     33185     33187     33189     33188     33190
     33192     33191     33193     33195     33194     33196     33198     33197     33199
     33201     33200     33202     33204     33203     33205     33207     33206     33208
     33210     33209     33211     33213     33212     33214     33216     33215     33217
     33219     33218     33220     33222     33221     33223     33225     33224     33226
     33228     33227     33229     33231     33230     33232     33234     33233     33235
     33237     33236     33238     33240     33239     33241     33243     33242     33244
     33246     33245     33247     33249     33248     33250     33252     33251     33253
     33255     33254     33256     33258     33257     33259     33261     33260     33262
     33264     33263     33265     33267     33266     33268     33270     33269     33271
     33273     33272     33274     33276     33275     33277     33279     33278     33280
     33282     33281     33283     33285     33284     33286     33288     33287     33289
     33291     33290     33292     33294     33293     33295     33297     33296     33298
     33300     33299     33301     33303     33302     33304     33306     33305     33307
     33309     33308     33310     33312     33311     33313     33315     33314     33316
     33318     33317     33319     33321     33320     33322     33324     33323     33325
     33327     33326     33328     33330     33329     33331     33333     33332     33334
     33336     33335     33337     33339     33338     33340     33342     33341     33343
     33345     33344     33346     33348     33347     33349     33351     33350     33352
     33354     33353     33355     33357     33356     33358     33360     33359     33361
     33363     33362     33364     33366     33365     33367     33369     33368     33370
     33372     33371     33373     33375     33374     33376     33378     33377     33379
     33381     33380     33382     33384     33383     33385     33387     33386     33388
     33390     33389     33391     33393     33392     33394     33396     33395     33397
     33399     33398     33400     33402     33401     33403     33405     33404     33406
     33408     33407     33409     33411     33410     33412     33414     33413     33415
     33417     33416     33418     33420     33419     33421     33423     33422     33424
     33426     33425     33427     33429     33428     33430     33432     33431     33433
     33435     33434     33436     33438     33437     33439     33441     33440     33442
     33444     33443     33445     33447     33446     33448     33450     33449     33451
     33453     33452     33454     33456     33455     33457     33459     33458     33460
     33462     33461     33463     33465     33464     33466     33468     33467     33469
     33471     33470     33472     33474     33473     33475     33477     33476     33478
     33480     33479     33481     33483     33482     33484     33486     33485     33487
     33489     33488     33490     33492     33491     33493     33495     33494     33496
     33498     33497     33499     33501     33500     33502     33504     33503     33505
     33507     33506     33508     33510     33509     33511     33513     33512     33514
     33516     33515     33517     33519     33518     33520     33522     33521     33523
     33525     33524     33526     33528     33527     33529     33531     33530     33532
     33534     33533     33535     33537     33536     33538     33540     33539     33541
     33543     33542     33544     33546     33545     33547     33549     33548     33550
     33552     33551     33553     33555     33554     33556     33558     33557     33559
     33561     33560     33562     33564     33563     33565     33567     33566     33568
     33570     33569     33571     33573     33572     33574     33576     33575     33577
     33579     33578     33580     33582     33581     33583     33585     33584     33586
     33588     33587     33589     33591     33590     33592     33594     33593     33595
     33597     33596     33598     33600     33599     33601     33603     33602     33604
     33606     33605     33607     33609     33608     33610     33612     33611     33613
     33615     33614     33616     33618     33617     33619     33621     33620     33622
     33624     33623     33625     33627     33626     33628     33630     33629     33631
     33633     33632     33634     33636     33635     33637     33639     33638     33640
     33642     33641     33643     33645     33644     33646     33648     33647     33649
     33651     33650     33652     33654     33653     33655     33657     33656     33658
     33660     33659     33661     33663     33662     33664     33666     33665     33667
     33669     33668     33670     33672     33671     33673     33675     33674     33676
     33678     33677     33679     33681     33680     33682     33684     33683     33685
     33687     33686     33688     33690     33689     33691     33693     33692     33694
     33696     33695     33697     33699     33698     33700     33702     33701     33703
     33705     33704     33706     33708     33707     33709     33711     33710     33712
     33714     33713     33715     33717     33716     33718     33720     33719     33721
     33723     33722     33724     33726     33725     33727     33729     33728     33730
     33732     33731     33733     33735     33734     33736     33738     33737     33739
     33741     33740     33742     33744     33743     33745     33747     33746     33748
     33750     33749     33751     33753     33752     33754     33756     33755     33757
     33759     33758     33760     33762     33761     33763     33765     33764     33766
     33768     33767     33769     33771     33770     33772     33774     33773     33775
     33777     33776     33778     33780     33779     33781     33783     33782     33784
     33786     33785     33787     33789     33788     33790     33792     33791     33793
     33795     33794     33796     33798     33797     33799     33801     33800     33802
     33804     33803     33805     33807     33806     33808     33810     33809     33811
     33813     33812     33814     33816     33815     33817     33819     33818     33820
     33822     33821     33823     33825     33824     33826     33828     33827     33829
     33831     33830     33832     33834     33833     33835     33837     33836     33838
     33840     33839     33841     33843     33842     33844     33846     33845     33847
     33849     33848     33850     33852     33851     33853     33855     33854     33856
     33858     33857     33859     33861     33860     33862     33864     33863     33865
     33867     33866     33868     33870     33869     33871     33873     33872     33874
     33876     33875     33877     33879     33878     33880     33882     33881     33883
     33885     33884     33886     33888     33887     33889     33891     33890     33892
     33894     33893     33895     33897     33896     33898     33900     33899     33901
     33903     33902     33904     33906     33905     33907     33909     33908     33910
     33912     33911     33913     33915     33914     33916     33918     33917     33919
     33921     33920     33922     33924     33923     33925     33927     33926     33928
     33930     33929     33931     33933     33932     33934     33936     33935     33937
     33939     33938     33940     33942     33941     33943     33945     33944     33946
     33948     33947     33949     33951     33950     33952     33954     33953     33955
     33957     33956     33958     33960     33959     33961     33963     33962     33964
     33966     33965     33967     33969     33968     33970     33972     33971     33973
     33975     33974     33976     33978     33977     33979     33981     33980     33982
     33984     33983     33985     33987     33986     33988     33990     33989     33991
     33993     33992     33994     33996     33995     33997     33999     33998     34000
     34002     34001     34003     34005     34004     34006     34008     34007     34009
     34011     34010     34012     34014     34013     34015     34017     34016     34018
     34020     34019     34021     34023     34022     34024     34026     34025     34027
     34029     34028     34030     34032     34031     34033     34035     34034     34036
     34038     34037     34039     34041     34040     34042     34044     34043     34045
     34047     34046     34048     34050     34049     34051     34053     34052     34054
     34056     34055     34057     34059     34058     34060     34062     34061     34063
     34065     34064     34066     34068     34067     34069     34071     34070     34072
     34074     34073     34075     34077     34076     34078     34080     34079     34081
     34083     34082     34084     34086     34085     34087     34089     34088     34090
     34092     34091     34093     34095     34094     34096     34098     34097     34099
     34101     34100     34102     34104     34103     34105     34107     34106     34108
     34110     34109     34111     34113     34112     34114     34116     34115     34117
     34119     34118     34120     34122     34121     34123     34125     34124     34126
     34128     34127     34129     34131     34130     34132     34134     34133     34135
     34137     34136     34138     34140     34139     34141     34143     34142     34144
     34146     34145     34147     34149     34148     34150     34152     34151     34153
     34155     34154     34156     34158     34157     34159     34161     34160     34162
     34164     34163     34165     34167     34166     34168     34170     34169     34171
     34173     34172     34174     34176     34175     34177     34179     34178     34180
     34182     34181     34183     34185     34184     34186     34188     34187     34189
     34191     34190     34192     34194     34193     34195     34197     34196     34198
     34200     34199     34201     34203     34202     34204     34206     34205     34207
     34209     34208     34210     34212     34211     34213     34215     34214     34216
     34218     34217     34219     34221     34220     34222     34224     34223     34225
     34227     34226     34228     34230     34229     34231     34233     34232     34234
     34236     34235     34237     34239     34238     34240     34242     34241     34243
     34245     34244     34246     34248     34247     34249     34251     34250     34252
     34254     34253     34255     34257     34256     34258     34260     34259     34261
     34263     34262     34264     34266     34265     34267     34269     34268     34270
     34272     34271     34273     34275     34274     34276     34278     34277     34279
     34281     34280     34282     34284     34283     34285     34287     34286     34288
     34290     34289     34291     34293     34292     34294     34296     34295     34297
     34299     34298     34300     34302     34301     34303     34305     34304     34306
     34308     34307     34309     34311     34310     34312     34314     34313     34315
     34317     34316     34318     34320     34319     34321     34323     34322     34324
     34326     34325     34327     34329     34328     34330     34332     34331     34333
     34335     34334     34336     34338     34337     34339     34341     34340     34342
     34344     34343     34345     34347     34346     34348     34350     34349     34351
     34353     34352     34354     34356     34355     34357     34359     34358     34360
     34362     34361     34363     34365     34364     34366     34368     34367     34369
     34371     34370     34372     34374     34373     34375     34377     34376     34378
     34380     34379     34381     34383     34382     34384     34386     34385     34387
     34389     34388     34390     34392     34391     34393     34395     34394     34396
     34398     34397     34399     34401     34400     34402     34404     34403     34405
     34407     34406     34408     34410     34409     34411     34413     34412     34414
     34416     34415     34417     34419     34418     34420     34422     34421     34423
     34425     34424     34426     34428     34427     34429     34431     34430     34432
     34434     34433     34435     34437     34436     34438     34440     34439     34441
     34443     34442     34444     34446     34445     34447     34449     34448     34450
     34452     34451     34453     34455     34454     34456     34458     34457     34459
     34461     34460     34462     34464     34463     34465     34467     34466     34468
     34470     34469     34471     34473     34472     34474     34476     34475     34477
     34479     34478     34480     34482     34481     34483     34485     34484     34486
     34488     34487     34489     34491     34490     34492     34494     34493     34495
     34497     34496     34498     34500     34499     34501     34503     34502     34504
     34506     34505     34507     34509     34508     34510     34512     34511     34513
     34515     34514     34516     34518     34517     34519     34521     34520     34522
     34524     34523     34525     34527     34526     34528     34530     34529     34531
     34533     34532     34534     34536     34535     34537     34539     34538     34540
     34542     34541     34543     34545     34544     34546     34548     34547     34549
     34551     34550     34552     34554     34553     34555     34557     34556     34558
     34560     34559     34561     34563     34562     34564     34566     34565     34567
     34569     34568     34570     34572     34571     34573     34575     34574     34576
     34578     34577     34579     34581     34580     34582     34584     34583     34585
     34587     34586     34588     34590     34589     34591     34593     34592     34594
     34596     34595     34597     34599     34598     34600     34602     34601     34603
     34605     34604     34606     34608     34607     34609     34611     34610     34612
     34614     34613     34615     34617     34616     34618     34620     34619     34621
     34623     34622     34624     34626     34625     34627     34629     34628     34630
     34632     34631     34633     34635     34634     34636     34638     34637     34639
     34641     34640     34642     34644     34643     34645     34647     34646     34648
     34650     34649     34651     34653     34652     34654     34656     34655     34657
     34659     34658     34660     34662     34661     34663     34665     34664     34666
     34668     34667     34669     34671     34670     34672     34674     34673     34675
     34677     34676     34678     34680     34679     34681     34683     34682     34684
     34686     34685     34687     34689     34688     34690     34692     34691     34693
     34695     34694     34696     34698     34697     34699     34701     34700     34702
     34704     34703     34705     34707     34706     34708     34710     34709     34711
     34713     34712     34714     34716     34715     34717     34719     34718     34720
     34722     34721     34723     34725     34724     34726     34728     34727     34729
     34731     34730     34732     34734     34733     34735     34737     34736     34738
     34740     34739     34741     34743     34742     34744     34746     34745     34747
     34749     34748     34750     34752     34751     34753     34755     34754     34756
     34758     34757     34759     34761     34760     34762     34764     34763     34765
     34767     34766     34768     34770     34769     34771     34773     34772     34774
     34776     34775     34777     34779     34778     34780     34782     34781     34783
     34785     34784     34786     34788     34787     34789     34791     34790     34792
     34794     34793     34795     34797     34796     34798     34800     34799     34801
     34803     34802     34804     34806     34805     34807     34809     34808     34810
     34812     34811     34813     34815     34814     34816     34818     34817     34819
     34821     34820     34822     34824     34823     34825     34827     34826     34828
     34830     34829     34831     34833     34832     34834     34836     34835     34837
     34839     34838     34840     34842     34841     34843     34845     34844     34846
     34848     34847     34849     34851     34850     34852     34854     34853     34855
     34857     34856     34858     34860     34859     34861     34863     34862     34864
     34866     34865     34867     34869     34868     34870     34872     34871     34873
     34875     34874     34876     34878     34877     34879     34881     34880     34882
     34884     34883     34885     34887     34886     34888     34890     34889     34891
     34893     34892     34894     34896     34895     34897     34899     34898     34900
     34902     34901     34903     34905     34904     34906     34908     34907     34909
     34911     34910     34912     34914     34913     34915     34917     34916     34918
     34920     34919     34921     34923     34922     34924     34926     34925     34927
     34929     34928     34930     34932     34931     34933     34935     34934     34936
     34938     34937     34939     34941     34940     34942     34944     34943     34945
     34947     34946     34948     34950     34949     34951     34953     34952     34954
     34956     34955     34957     34959     34958     34960     34962     34961     34963
     34965     34964     34966     34968     34967     34969     34971     34970     34972
     34974     34973     34975     34977     34976     34978     34980     34979     34981
     34983     34982     34984     34986     34985     34987     34989     34988     34990
     34992     34991     34993     34995     34994     34996     34998     34997     34999
     35001     35000     35002     35004     35003     35005     35007     35006     35008
     35010     35009     35011     35013     35012     35014     35016     35015     35017
     35019     35018     35020     35022     35021     35023     35025     35024     35026
     35028     35027     35029     35031     35030     35032     35034     35033     35035
     35037     35036     35038     35040     35039     35041     35043     35042     35044
     35046     35045     35047     35049     35048     35050     35052     35051     35053
     35055     35054     35056     35058     35057     35059     35061     35060     35062
     35064     35063     35065     35067     35066     35068     35070     35069     35071
     35073     35072     35074     35076     35075     35077     35079     35078     35080
     35082     35081     35083     35085     35084     35086     35088     35087     35089
     35091     35090     35092     35094     35093     35095     35097     35096     35098
     35100     35099     35101     35103     35102     35104     35106     35105     35107
     35109     35108     35110     35112     35111     35113     35115     35114     35116
     35118     35117     35119     35121     35120     35122     35124     35123     35125
     35127     35126     35128     35130     35129     35131     35133     35132     35134
     35136     35135     35137     35139     35138     35140     35142     35141     35143
     35145     35144     35146     35148     35147     35149     35151     35150     35152
     35154     35153     35155     35157     35156     35158     35160     35159     35161
     35163     35162     35164     35166     35165     35167     35169     35168     35170
     35172     35171     35173     35175     35174     35176     35178     35177     35179
     35181     35180     35182     35184     35183     35185     35187     35186     35188
     35190     35189     35191     35193     35192     35194     35196     35195     35197
     35199     35198     35200     35202     35201     35203     35205     35204     35206
     35208     35207     35209     35211     35210     35212     35214     35213     35215
     35217     35216     35218     35220     35219     35221     35223     35222     35224
     35226     35225     35227     35229     35228     35230     35232     35231     35233
     35235     35234     35236     35238     35237     35239     35241     35240     35242
     35244     35243     35245     35247     35246     35248     35250     35249     35251
     35253     35252     35254     35256     35255     35257     35259     35258     35260
     35262     35261     35263     35265     35264     35266     35268     35267     35269
     35271     35270     35272     35274     35273     35275     35277     35276     35278
     35280     35279     35281     35283     35282     35284     35286     35285     35287
     35289     35288     35290     35292     35291     35293     35295     35294     35296
     35298     35297     35299     35301     35300     35302     35304     35303     35305
     35307     35306     35308     35310     35309     35311     35313     35312     35314
     35316     35315     35317     35319     35318     35320     35322     35321     35323
     35325     35324     35326     35328     35327     35329     35331     35330     35332
     35334     35333     35335     35337     35336     35338     35340     35339     35341
     35343     35342     35344     35346     35345     35347     35349     35348     35350
     35352     35351     35353     35355     35354     35356     35358     35357     35359
     35361     35360     35362     35364     35363     35365     35367     35366     35368
     35370     35369     35371     35373     35372     35374     35376     35375     35377
     35379     35378     35380     35382     35381     35383     35385     35384     35386
     35388     35387     35389     35391     35390     35392     35394     35393     35395
     35397     35396     35398     35400     35399     35401     35403     35402     35404
     35406     35405     35407     35409     35408     35410     35412     35411     35413
     35415     35414     35416     35418     35417     35419     35421     35420     35422
     35424     35423     35425     35427     35426     35428     35430     35429     35431
     35433     35432     35434     35436     35435     35437     35439     35438     35440
     35442     35441     35443     35445     35444     35446     35448     35447     35449
     35451     35450     35452     35454     35453     35455     35457     35456     35458
     35460     35459     35461     35463     35462     35464     35466     35465     35467
     35469     35468     35470     35472     35471     35473     35475     35474     35476
     35478     35477     35479     35481     35480     35482     35484     35483     35485
     35487     35486     35488     35490     35489     35491     35493     35492     35494
     35496     35495     35497     35499     35498     35500     35502     35501     35503
     35505     35504     35506     35508     35507     35509     35511     35510     35512
     35514     35513     35515     35517     35516     35518     35520     35519     35521
     35523     35522     35524     35526     35525     35527     35529     35528     35530
     35532     35531     35533     35535     35534     35536     35538     35537     35539
     35541     35540     35542     35544     35543     35545     35547     35546     35548
     35550     35549     35551     35553     35552     35554     35556     35555     35557
     35559     35558     35560     35562     35561     35563     35565     35564     35566
     35568     35567     35569     35571     35570     35572     35574     35573     35575
     35577     35576     35578     35580     35579     35581     35583     35582     35584
     35586     35585     35587     35589     35588     35590     35592     35591     35593
     35595     35594     35596     35598     35597     35599     35601     35600     35602
     35604     35603     35605     35607     35606     35608     35610     35609     35611
     35613     35612     35614     35616     35615     35617     35619     35618     35620
     35622     35621     35623     35625     35624     35626     35628     35627     35629
     35631     35630     35632     35634     35633     35635     35637     35636     35638
     35640     35639     35641     35643     35642     35644     35646     35645     35647
     35649     35648     35650     35652     35651     35653     35655     35654     35656
     35658     35657     35659     35661     35660     35662     35664     35663     35665
     35667     35666     35668     35670     35669     35671     35673     35672     35674
     35676     35675     35677     35679     35678     35680     35682     35681     35683
     35685     35684     35686     35688     35687     35689     35691     35690     35692
     35694     35693     35695     35697     35696     35698     35700     35699     35701
     35703     35702     35704     35706     35705     35707     35709     35708     35710
     35712     35711     35713     35715     35714     35716     35718     35717     35719
     35721     35720     35722     35724     35723     35725     35727     35726     35728
     35730     35729     35731     35733     35732     35734     35736     35735     35737
     35739     35738     35740     35742     35741     35743     35745     35744     35746
     35748     35747     35749     35751     35750     35752     35754     35753     35755
     35757     35756     35758     35760     35759     35761     35763     35762     35764
     35766     35765     35767     35769     35768     35770     35772     35771     35773
     35775     35774     35776     35778     35777     35779     35781     35780     35782
     35784     35783     35785     35787     35786     35788     35790     35789     35791
     35793     35792     35794     35796     35795     35797     35799     35798     35800
     35802     35801     35803     35805     35804     35806     35808     35807     35809
     35811     35810     35812     35814     35813     35815     35817     35816     35818
     35820     35819     35821     35823     35822     35824     35826     35825     35827
     35829     35828     35830     35832     35831     35833     35835     35834     35836
     35838     35837     35839     35841     35840     35842     35844     35843     35845
     35847     35846     35848     35850     35849     35851     35853     35852     35854
     35856     35855     35857     35859     35858     35860     35862     35861     35863
     35865     35864     35866     35868     35867     35869     35871     35870     35872
     35874     35873     35875     35877     35876     35878     35880     35879     35881
     35883     35882     35884     35886     35885     35887     35889     35888     35890
     35892     35891     35893     35895     35894     35896     35898     35897     35899
     35901     35900     35902     35904     35903     35905     35907     35906     35908
     35910     35909     35911     35913     35912     35914     35916     35915     35917
     35919     35918     35920     35922     35921     35923     35925     35924     35926
     35928     35927     35929     35931     35930     35932     35934     35933     35935
     35937     35936     35938     35940     35939     35941     35943     35942     35944
     35946     35945     35947     35949     35948     35950     35952     35951     35953
     35955     35954     35956     35958     35957     35959     35961     35960     35962
     35964     35963     35965     35967     35966     35968     35970     35969     35971
     35973     35972     35974     35976     35975     35977     35979     35978     35980
     35982     35981     35983     35985     35984     35986     35988     35987     35989
     35991     35990     35992     35994     35993     35995     35997     35996     35998
     36000     35999     36001     36003     36002     36004     36006     36005     36007
     36009     36008     36010     36012     36011     36013     36015     36014     36016
     36018     36017     36019     36021     36020     36022     36024     36023     36025
     36027     36026     36028     36030     36029     36031     36033     36032     36034
     36036     36035     36037     36039     36038     36040     36042     36041     36043
     36045     36044     36046     36048     36047     36049     36051     36050     36052
     36054     36053     36055     36057     36056     36058     36060     36059     36061
     36063     36062     36064     36066     36065     36067     36069     36068     36070
     36072     36071     36073     36075     36074     36076     36078     36077     36079
     36081     36080     36082     36084     36083     36085     36087     36086     36088
     36090     36089     36091     36093     36092     36094     36096     36095     36097
     36099     36098     36100     36102     36101     36103     36105     36104     36106
     36108     36107     36109     36111     36110     36112     36114     36113     36115
     36117     36116     36118     36120     36119     36121     36123     36122     36124
     36126     36125     36127     36129     36128     36130     36132     36131     36133
     36135     36134     36136     36138     36137     36139     36141     36140     36142
     36144     36143     36145     36147     36146     36148     36150     36149     36151
     36153     36152     36154     36156     36155     36157     36159     36158     36160
     36162     36161     36163     36165     36164     36166     36168     36167     36169
     36171     36170     36172     36174     36173     36175     36177     36176     36178
     36180     36179     36181     36183     36182     36184     36186     36185     36187
     36189     36188     36190     36192     36191     36193     36195     36194     36196
     36198     36197     36199     36201     36200     36202     36204     36203     36205
     36207     36206     36208     36210     36209     36211     36213     36212     36214
     36216     36215     36217     36219     36218     36220     36222     36221     36223
     36225     36224     36226     36228     36227     36229     36231     36230     36232
     36234     36233     36235     36237     36236     36238     36240     36239     36241
     36243     36242     36244     36246     36245     36247     36249     36248     36250
     36252     36251     36253     36255     36254     36256     36258     36257     36259
     36261     36260     36262     36264     36263     36265     36267     36266     36268
     36270     36269     36271     36273     36272     36274     36276     36275     36277
     36279     36278     36280     36282     36281     36283     36285     36284     36286
     36288     36287     36289     36291     36290     36292     36294     36293     36295
     36297     36296     36298     36300     36299     36301     36303     36302     36304
     36306     36305     36307     36309     36308     36310     36312     36311     36313
     36315     36314     36316     36318     36317     36319     36321     36320     36322
     36324     36323     36325     36327     36326     36328     36330     36329     36331
     36333     36332     36334     36336     36335     36337     36339     36338     36340
     36342     36341     36343     36345     36344     36346     36348     36347     36349
     36351     36350     36352     36354     36353     36355     36357     36356     36358
     36360     36359     36361     36363     36362     36364     36366     36365     36367
     36369     36368     36370     36372     36371     36373     36375     36374     36376
     36378     36377     36379     36381     36380     36382     36384     36383     36385
     36387     36386     36388     36390     36389     36391     36393     36392     36394
     36396     36395     36397     36399     36398     36400     36402     36401     36403
     36405     36404     36406     36408     36407     36409     36411     36410     36412
     36414     36413     36415     36417     36416     36418     36420     36419     36421
     36423     36422     36424     36426     36425     36427     36429     36428     36430
     36432     36431     36433     36435     36434     36436     36438     36437     36439
     36441     36440     36442     36444     36443     36445     36447     36446     36448
     36450     36449     36451     36453     36452     36454     36456     36455     36457
     36459     36458     36460     36462     36461     36463     36465     36464     36466
     36468     36467     36469     36471     36470     36472     36474     36473     36475
     36477     36476     36478     36480     36479     36481     36483     36482     36484
     36486     36485     36487     36489     36488     36490     36492     36491     36493
     36495     36494     36496     36498     36497     36499     36501     36500     36502
     36504     36503     36505     36507     36506     36508     36510     36509     36511
     36513     36512     36514     36516     36515     36517     36519     36518     36520
     36522     36521     36523     36525     36524     36526     36528     36527     36529
     36531     36530     36532     36534     36533     36535     36537     36536     36538
     36540     36539     36541     36543     36542     36544     36546     36545     36547
     36549     36548     36550     36552     36551     36553     36555     36554     36556
     36558     36557     36559     36561     36560     36562     36564     36563     36565
     36567     36566     36568     36570     36569     36571     36573     36572     36574
     36576     36575     36577     36579     36578     36580     36582     36581     36583
     36585     36584     36586     36588     36587     36589     36591     36590     36592
     36594     36593     36595     36597     36596     36598     36600     36599     36601
     36603     36602     36604     36606     36605     36607     36609     36608     36610
     36612     36611     36613     36615     36614     36616     36618     36617     36619
     36621     36620     36622     36624     36623     36625     36627     36626     36628
     36630     36629     36631     36633     36632     36634     36636     36635     36637
     36639     36638     36640     36642     36641     36643     36645     36644     36646
     36648     36647     36649     36651     36650     36652     36654     36653     36655
     36657     36656     36658     36660     36659     36661     36663     36662     36664
     36666     36665     36667     36669     36668     36670     36672     36671     36673
     36675     36674     36676     36678     36677     36679     36681     36680     36682
     36684     36683     36685     36687     36686     36688     36690     36689     36691
     36693     36692     36694     36696     36695     36697     36699     36698     36700
     36702     36701     36703     36705     36704     36706     36708     36707     36709
     36711     36710     36712     36714     36713     36715     36717     36716     36718
     36720     36719     36721     36723     36722     36724     36726     36725     36727
     36729     36728     36730     36732     36731     36733     36735     36734     36736
     36738     36737     36739     36741     36740     36742     36744     36743     36745
     36747     36746     36748     36750     36749     36751     36753     36752     36754
     36756     36755     36757     36759     36758     36760     36762     36761     36763
     36765     36764     36766     36768     36767     36769     36771     36770     36772
     36774     36773     36775     36777     36776     36778     36780     36779     36781
     36783     36782     36784     36786     36785     36787     36789     36788     36790
     36792     36791     36793     36795     36794     36796     36798     36797     36799
     36801     36800     36802     36804     36803     36805     36807     36806     36808
     36810     36809     36811     36813     36812     36814     36816     36815     36817
     36819     36818     36820     36822     36821     36823     36825     36824     36826
     36828     36827     36829     36831     36830     36832     36834     36833     36835
     36837     36836     36838     36840     36839     36841     36843     36842     36844
     36846     36845     36847     36849     36848     36850     36852     36851     36853
     36855     36854     36856     36858     36857     36859     36861     36860     36862
     36864     36863     36865     36867     36866     36868     36870     36869     36871
     36873     36872     36874     36876     36875     36877     36879     36878     36880
     36882     36881     36883     36885     36884     36886     36888     36887     36889
     36891     36890     36892     36894     36893     36895     36897     36896     36898
     36900     36899     36901     36903     36902     36904     36906     36905     36907
     36909     36908     36910     36912     36911     36913     36915     36914     36916
     36918     36917     36919     36921     36920     36922     36924     36923     36925
     36927     36926     36928     36930     36929     36931     36933     36932     36934
     36936     36935     36937     36939     36938     36940     36942     36941     36943
     36945     36944     36946     36948     36947     36949     36951     36950     36952
     36954     36953     36955     36957     36956     36958     36960     36959     36961
     36963     36962     36964     36966     36965     36967     36969     36968     36970
     36972     36971     36973     36975     36974     36976     36978     36977     36979
     36981     36980     36982     36984     36983     36985     36987     36986     36988
     36990     36989     36991     36993     36992     36994     36996     36995     36997
     36999     36998     37000     37002     37001     37003     37005     37004     37006
     37008     37007     37009     37011     37010     37012     37014     37013     37015
     37017     37016     37018     37020     37019     37021     37023     37022     37024
     37026     37025     37027     37029     37028     37030     37032     37031     37033
     37035     37034     37036     37038     37037     37039     37041     37040     37042
     37044     37043     37045     37047     37046     37048     37050     37049     37051
     37053     37052     37054     37056     37055     37057     37059     37058     37060
     37062     37061     37063     37065     37064     37066     37068     37067     37069
     37071     37070     37072     37074     37073     37075     37077     37076     37078
     37080     37079     37081     37083     37082     37084     37086     37085     37087
     37089     37088     37090     37092     37091     37093     37095     37094     37096
     37098     37097     37099     37101     37100     37102     37104     37103     37105
     37107     37106     37108     37110     37109     37111     37113     37112     37114
     37116     37115     37117     37119     37118     37120     37122     37121     37123
     37125     37124     37126     37128     37127     37129     37131     37130     37132
     37134     37133     37135     37137     37136     37138     37140     37139     37141
     37143     37142     37144     37146     37145     37147     37149     37148     37150
     37152     37151     37153     37155     37154     37156     37158     37157     37159
     37161     37160     37162     37164     37163     37165     37167     37166     37168
     37170     37169     37171     37173     37172     37174     37176     37175     37177
     37179     37178     37180     37182     37181     37183     37185     37184     37186
     37188     37187     37189     37191     37190     37192     37194     37193     37195
     37197     37196     37198     37200     37199     37201     37203     37202     37204
     37206     37205     37207     37209     37208     37210     37212     37211     37213
     37215     37214     37216     37218     37217     37219     37221     37220     37222
     37224     37223     37225     37227     37226     37228     37230     37229     37231
     37233     37232     37234     37236     37235     37237     37239     37238     37240
     37242     37241     37243     37245     37244     37246     37248     37247     37249
     37251     37250     37252     37254     37253     37255     37257     37256     37258
     37260     37259     37261     37263     37262     37264     37266     37265     37267
     37269     37268     37270     37272     37271     37273     37275     37274     37276
     37278     37277     37279     37281     37280     37282     37284     37283     37285
     37287     37286     37288     37290     37289     37291     37293     37292     37294
     37296     37295     37297     37299     37298     37300     37302     37301     37303
     37305     37304     37306     37308     37307     37309     37311     37310     37312
     37314     37313     37315     37317     37316     37318     37320     37319     37321
     37323     37322     37324     37326     37325     37327     37329     37328     37330
     37332     37331     37333     37335     37334     37336     37338     37337     37339
     37341     37340     37342     37344     37343     37345     37347     37346     37348
     37350     37349     37351     37353     37352     37354     37356     37355     37357
     37359     37358     37360     37362     37361     37363     37365     37364     37366
     37368     37367     37369     37371     37370     37372     37374     37373     37375
     37377     37376     37378     37380     37379     37381     37383     37382     37384
     37386     37385     37387     37389     37388     37390     37392     37391     37393
     37395     37394     37396     37398     37397     37399     37401     37400     37402
     37404     37403     37405     37407     37406     37408     37410     37409     37411
     37413     37412     37414     37416     37415     37417     37419     37418     37420
     37422     37421     37423     37425     37424     37426     37428     37427     37429
     37431     37430     37432     37434     37433     37435     37437     37436     37438
     37440     37439     37441     37443     37442     37444     37446     37445     37447
     37449     37448     37450     37452     37451     37453     37455     37454     37456
     37458     37457     37459     37461     37460     37462     37464     37463     37465
     37467     37466     37468     37470     37469     37471     37473     37472     37474
     37476     37475     37477     37479     37478     37480     37482     37481     37483
     37485     37484     37486     37488     37487     37489     37491     37490     37492
     37494     37493     37495     37497     37496     37498     37500     37499     37501
     37503     37502     37504     37506     37505     37507     37509     37508     37510
     37512     37511     37513     37515     37514     37516     37518     37517     37519
     37521     37520     37522     37524     37523     37525     37527     37526     37528
     37530     37529     37531     37533     37532     37534     37536     37535     37537
     37539     37538     37540     37542     37541     37543     37545     37544     37546
     37548     37547     37549     37551     37550     37552     37554     37553     37555
     37557     37556     37558     37560     37559     37561     37563     37562     37564
     37566     37565     37567     37569     37568     37570     37572     37571     37573
     37575     37574     37576     37578     37577     37579     37581     37580     37582
     37584     37583     37585     37587     37586     37588     37590     37589     37591
     37593     37592     37594     37596     37595     37597     37599     37598     37600
     37602     37601     37603     37605     37604     37606     37608     37607     37609
     37611     37610     37612     37614     37613     37615     37617     37616     37618
     37620     37619     37621     37623     37622     37624     37626     37625     37627
     37629     37628     37630     37632     37631     37633     37635     37634     37636
     37638     37637     37639     37641     37640     37642     37644     37643     37645
     37647     37646     37648     37650     37649     37651     37653     37652     37654
     37656     37655     37657     37659     37658     37660     37662     37661     37663
     37665     37664     37666     37668     37667     37669     37671     37670     37672
     37674     37673     37675     37677     37676     37678     37680     37679     37681
     37683     37682     37684     37686     37685     37687     37689     37688     37690
     37692     37691     37693     37695     37694     37696     37698     37697     37699
     37701     37700     37702     37704     37703     37705     37707     37706     37708
     37710     37709     37711     37713     37712     37714     37716     37715     37717
     37719     37718     37720     37722     37721     37723     37725     37724     37726
     37728     37727     37729     37731     37730     37732     37734     37733     37735
     37737     37736     37738     37740     37739     37741     37743     37742     37744
     37746     37745     37747     37749     37748     37750     37752     37751     37753
     37755     37754     37756     37758     37757     37759     37761     37760     37762
     37764     37763     37765     37767     37766     37768     37770     37769     37771
     37773     37772     37774     37776     37775     37777     37779     37778     37780
     37782     37781     37783     37785     37784     37786     37788     37787     37789
     37791     37790     37792     37794     37793     37795     37797     37796     37798
     37800     37799     37801     37803     37802     37804     37806     37805     37807
     37809     37808     37810     37812     37811     37813     37815     37814     37816
     37818     37817     37819     37821     37820     37822     37824     37823     37825
     37827     37826     37828     37830     37829     37831     37833     37832     37834
     37836     37835     37837     37839     37838     37840     37842     37841     37843
     37845     37844     37846     37848     37847     37849     37851     37850     37852
     37854     37853     37855     37857     37856     37858     37860     37859     37861
     37863     37862     37864     37866     37865     37867     37869     37868     37870
     37872     37871     37873     37875     37874     37876     37878     37877     37879
     37881     37880     37882     37884     37883     37885     37887     37886     37888
     37890     37889     37891     37893     37892     37894     37896     37895     37897
     37899     37898     37900     37902     37901     37903     37905     37904     37906
     37908     37907     37909     37911     37910     37912     37914     37913     37915
     37917     37916     37918     37920     37919     37921     37923     37922     37924
     37926     37925     37927     37929     37928     37930     37932     37931     37933
     37935     37934     37936     37938     37937     37939     37941     37940     37942
     37944     37943     37945     37947     37946     37948     37950     37949     37951
     37953     37952     37954     37956     37955     37957     37959     37958     37960
     37962     37961     37963     37965     37964     37966     37968     37967     37969
     37971     37970     37972     37974     37973     37975     37977     37976     37978
     37980     37979     37981     37983     37982     37984     37986     37985     37987
     37989     37988     37990     37992     37991     37993     37995     37994     37996
     37998     37997     37999     38001     38000     38002     38004     38003     38005
     38007     38006     38008     38010     38009     38011     38013     38012     38014
     38016     38015     38017     38019     38018     38020     38022     38021     38023
     38025     38024     38026     38028     38027     38029     38031     38030     38032
     38034     38033     38035     38037     38036     38038     38040     38039     38041
     38043     38042     38044     38046     38045     38047     38049     38048     38050
     38052     38051     38053     38055     38054     38056     38058     38057     38059
     38061     38060     38062     38064     38063     38065     38067     38066     38068
     38070     38069     38071     38073     38072     38074     38076     38075     38077
     38079     38078     38080     38082     38081     38083     38085     38084     38086
     38088     38087     38089     38091     38090     38092     38094     38093     38095
     38097     38096     38098     38100     38099     38101     38103     38102     38104
     38106     38105     38107     38109     38108     38110     38112     38111     38113
     38115     38114     38116     38118     38117     38119     38121     38120     38122
     38124     38123     38125     38127     38126     38128     38130     38129     38131
     38133     38132     38134     38136     38135     38137     38139     38138     38140
     38142     38141     38143     38145     38144     38146     38148     38147     38149
     38151     38150     38152     38154     38153     38155     38157     38156     38158
     38160     38159     38161     38163     38162     38164     38166     38165     38167
     38169     38168     38170     38172     38171     38173     38175     38174     38176
     38178     38177     38179     38181     38180     38182     38184     38183     38185
     38187     38186     38188     38190     38189     38191     38193     38192     38194
     38196     38195     38197     38199     38198     38200     38202     38201     38203
     38205     38204     38206     38208     38207     38209     38211     38210     38212
     38214     38213     38215     38217     38216     38218     38220     38219     38221
     38223     38222     38224     38226     38225     38227     38229     38228     38230
     38232     38231     38233     38235     38234     38236     38238     38237     38239
     38241     38240     38242     38244     38243     38245     38247     38246     38248
     38250     38249     38251     38253     38252     38254     38256     38255     38257
     38259     38258     38260     38262     38261     38263     38265     38264     38266
     38268     38267     38269     38271     38270     38272     38274     38273     38275
     38277     38276     38278     38280     38279     38281     38283     38282     38284
     38286     38285     38287     38289     38288     38290     38292     38291     38293
     38295     38294     38296     38298     38297     38299     38301     38300     38302
     38304     38303     38305     38307     38306     38308     38310     38309     38311
     38313     38312     38314     38316     38315     38317     38319     38318     38320
     38322     38321     38323     38325     38324     38326     38328     38327     38329
     38331     38330     38332     38334     38333     38335     38337     38336     38338
     38340     38339     38341     38343     38342     38344     38346     38345     38347
     38349     38348     38350     38352     38351     38353     38355     38354     38356
     38358     38357     38359     38361     38360     38362     38364     38363     38365
     38367     38366     38368     38370     38369     38371     38373     38372     38374
     38376     38375     38377     38379     38378     38380     38382     38381     38383
     38385     38384     38386     38388     38387     38389     38391     38390     38392
     38394     38393     38395     38397     38396     38398     38400     38399     38401
     38403     38402     38404     38406     38405     38407     38409     38408     38410
     38412     38411     38413     38415     38414     38416     38418     38417     38419
     38421     38420     38422     38424     38423     38425     38427     38426     38428
     38430     38429     38431     38433     38432     38434     38436     38435     38437
     38439     38438     38440     38442     38441     38443     38445     38444     38446
     38448     38447     38449     38451     38450     38452     38454     38453     38455
     38457     38456     38458     38460     38459     38461     38463     38462     38464
     38466     38465     38467     38469     38468     38470     38472     38471     38473
     38475     38474     38476     38478     38477     38479     38481     38480     38482
     38484     38483     38485     38487     38486     38488     38490     38489     38491
     38493     38492     38494     38496     38495     38497     38499     38498     38500
     38502     38501     38503     38505     38504     38506     38508     38507     38509
     38511     38510     38512     38514     38513     38515     38517     38516     38518
     38520     38519     38521     38523     38522     38524     38526     38525     38527
     38529     38528     38530     38532     38531     38533     38535     38534     38536
     38538     38537     38539     38541     38540     38542     38544     38543     38545
     38547     38546     38548     38550     38549     38551     38553     38552     38554
     38556     38555     38557     38559     38558     38560     38562     38561     38563
     38565     38564     38566     38568     38567     38569     38571     38570     38572
     38574     38573     38575     38577     38576     38578     38580     38579     38581
     38583     38582     38584     38586     38585     38587     38589     38588     38590
     38592     38591     38593     38595     38594     38596     38598     38597     38599
     38601     38600     38602     38604     38603     38605     38607     38606     38608
     38610     38609     38611     38613     38612     38614     38616     38615     38617
     38619     38618     38620     38622     38621     38623     38625     38624     38626
     38628     38627     38629     38631     38630     38632     38634     38633     38635
     38637     38636     38638     38640     38639     38641     38643     38642     38644
     38646     38645     38647     38649     38648     38650     38652     38651     38653
     38655     38654     38656     38658     38657     38659     38661     38660     38662
     38664     38663     38665     38667     38666     38668     38670     38669     38671
     38673     38672     38674     38676     38675     38677     38679     38678     38680
     38682     38681     38683     38685     38684     38686     38688     38687     38689
     38691     38690     38692     38694     38693     38695     38697     38696     38698
     38700     38699     38701     38703     38702     38704     38706     38705     38707
     38709     38708     38710     38712     38711     38713     38715     38714     38716
     38718     38717     38719     38721     38720     38722     38724     38723     38725
     38727     38726     38728     38730     38729     38731     38733     38732     38734
     38736     38735     38737     38739     38738     38740     38742     38741     38743
     38745     38744     38746     38748     38747     38749     38751     38750     38752
     38754     38753     38755     38757     38756     38758     38760     38759     38761
     38763     38762     38764     38766     38765     38767     38769     38768     38770
     38772     38771     38773     38775     38774     38776     38778     38777     38779
     38781     38780     38782     38784     38783     38785     38787     38786     38788
     38790     38789     38791     38793     38792     38794     38796     38795     38797
     38799     38798     38800     38802     38801     38803     38805     38804     38806
     38808     38807     38809     38811     38810     38812     38814     38813     38815
     38817     38816     38818     38820     38819     38821     38823     38822     38824
     38826     38825     38827     38829     38828     38830     38832     38831     38833
     38835     38834     38836     38838     38837     38839     38841     38840     38842
     38844     38843     38845     38847     38846     38848     38850     38849     38851
     38853     38852     38854     38856     38855     38857     38859     38858     38860
     38862     38861     38863     38865     38864     38866     38868     38867     38869
     38871     38870     38872     38874     38873     38875     38877     38876     38878
     38880     38879     38881     38883     38882     38884     38886     38885     38887
     38889     38888     38890     38892     38891     38893     38895     38894     38896
     38898     38897     38899     38901     38900     38902     38904     38903     38905
     38907     38906     38908     38910     38909     38911     38913     38912     38914
     38916     38915     38917     38919     38918     38920     38922     38921     38923
     38925     38924     38926     38928     38927     38929     38931     38930     38932
     38934     38933     38935     38937     38936     38938     38940     38939     38941
     38943     38942     38944     38946     38945     38947     38949     38948     38950
     38952     38951     38953     38955     38954     38956     38958     38957     38959
     38961     38960     38962     38964     38963     38965     38967     38966     38968
     38970     38969     38971     38973     38972     38974     38976     38975     38977
     38979     38978     38980     38982     38981     38983     38985     38984     38986
     38988     38987     38989     38991     38990     38992     38994     38993     38995
     38997     38996     38998     39000     38999     39001     39003     39002     39004
     39006     39005     39007     39009     39008     39010     39012     39011     39013
     39015     39014     39016     39018     39017     39019     39021     39020     39022
     39024     39023     39025     39027     39026     39028     39030     39029     39031
     39033     39032     39034     39036     39035     39037     39039     39038     39040
     39042     39041     39043     39045     39044     39046     39048     39047     39049
     39051     39050     39052     39054     39053     39055     39057     39056     39058
     39060     39059     39061     39063     39062     39064     39066     39065     39067
     39069     39068     39070     39072     39071     39073     39075     39074     39076
     39078     39077     39079     39081     39080     39082     39084     39083     39085
     39087     39086     39088     39090     39089     39091     39093     39092     39094
     39096     39095     39097     39099     39098     39100     39102     39101     39103
     39105     39104     39106     39108     39107     39109     39111     39110     39112
     39114     39113     39115     39117     39116     39118     39120     39119     39121
     39123     39122     39124     39126     39125     39127     39129     39128     39130
     39132     39131     39133     39135     39134     39136     39138     39137     39139
     39141     39140     39142     39144     39143     39145     39147     39146     39148
     39150     39149     39151     39153     39152     39154     39156     39155     39157
     39159     39158     39160     39162     39161     39163     39165     39164     39166
     39168     39167     39169     39171     39170     39172     39174     39173     39175
     39177     39176     39178     39180     39179     39181     39183     39182     39184
     39186     39185     39187     39189     39188     39190     39192     39191     39193
     39195     39194     39196     39198     39197     39199     39201     39200     39202
     39204     39203     39205     39207     39206     39208     39210     39209     39211
     39213     39212     39214     39216     39215     39217     39219     39218     39220
     39222     39221     39223     39225     39224     39226     39228     39227     39229
     39231     39230     39232     39234     39233     39235     39237     39236     39238
     39240     39239     39241     39243     39242     39244     39246     39245     39247
     39249     39248     39250     39252     39251     39253     39255     39254     39256
     39258     39257     39259     39261     39260     39262     39264     39263     39265
     39267     39266     39268     39270     39269     39271     39273     39272     39274
     39276     39275     39277     39279     39278     39280     39282     39281     39283
     39285     39284     39286     39288     39287     39289     39291     39290     39292
     39294     39293     39295     39297     39296     39298     39300     39299     39301
     39303     39302     39304     39306     39305     39307     39309     39308     39310
     39312     39311     39313     39315     39314     39316     39318     39317     39319
     39321     39320     39322     39324     39323     39325     39327     39326     39328
     39330     39329     39331     39333     39332     39334     39336     39335     39337
     39339     39338     39340     39342     39341     39343     39345     39344     39346
     39348     39347     39349     39351     39350     39352     39354     39353     39355
     39357     39356     39358     39360     39359     39361     39363     39362     39364
     39366     39365     39367     39369     39368     39370     39372     39371     39373
     39375     39374     39376     39378     39377     39379     39381     39380     39382
     39384     39383     39385     39387     39386     39388     39390     39389     39391
     39393     39392     39394     39396     39395     39397     39399     39398     39400
     39402     39401     39403     39405     39404     39406     39408     39407     39409
     39411     39410     39412     39414     39413     39415     39417     39416     39418
     39420     39419     39421     39423     39422     39424     39426     39425     39427
     39429     39428     39430     39432     39431     39433     39435     39434     39436
     39438     39437     39439     39441     39440     39442     39444     39443     39445
     39447     39446     39448     39450     39449     39451     39453     39452     39454
     39456     39455     39457     39459     39458     39460     39462     39461     39463
     39465     39464     39466     39468     39467     39469     39471     39470     39472
     39474     39473     39475     39477     39476     39478     39480     39479     39481
     39483     39482     39484     39486     39485     39487     39489     39488     39490
     39492     39491     39493     39495     39494     39496     39498     39497     39499
     39501     39500     39502     39504     39503     39505     39507     39506     39508
     39510     39509     39511     39513     39512     39514     39516     39515     39517
     39519     39518     39520     39522     39521     39523     39525     39524     39526
     39528     39527     39529     39531     39530     39532     39534     39533     39535
     39537     39536     39538     39540     39539     39541     39543     39542     39544
     39546     39545     39547     39549     39548     39550     39552     39551     39553
     39555     39554     39556     39558     39557     39559     39561     39560     39562
     39564     39563     39565     39567     39566     39568     39570     39569     39571
     39573     39572     39574     39576     39575     39577     39579     39578     39580
     39582     39581     39583     39585     39584     39586     39588     39587     39589
     39591     39590     39592     39594     39593     39595     39597     39596     39598
     39600     39599     39601     39603     39602     39604     39606     39605     39607
     39609     39608     39610     39612     39611     39613     39615     39614     39616
     39618     39617     39619     39621     39620     39622     39624     39623     39625
     39627     39626     39628     39630     39629     39631     39633     39632     39634
     39636     39635     39637     39639     39638     39640     39642     39641     39643
     39645     39644     39646     39648     39647     39649     39651     39650     39652
     39654     39653     39655     39657     39656     39658     39660     39659     39661
     39663     39662     39664     39666     39665     39667     39669     39668     39670
     39672     39671     39673     39675     39674     39676     39678     39677     39679
     39681     39680     39682     39684     39683     39685     39687     39686     39688
     39690     39689     39691     39693     39692     39694     39696     39695     39697
     39699     39698     39700     39702     39701     39703     39705     39704     39706
     39708     39707     39709     39711     39710     39712     39714     39713     39715
     39717     39716     39718     39720     39719     39721     39723     39722     39724
     39726     39725     39727     39729     39728     39730     39732     39731     39733
     39735     39734     39736     39738     39737     39739     39741     39740     39742
     39744     39743     39745     39747     39746     39748     39750     39749     39751
     39753     39752     39754     39756     39755     39757     39759     39758     39760
     39762     39761     39763     39765     39764     39766     39768     39767     39769
     39771     39770     39772     39774     39773     39775     39777     39776     39778
     39780     39779     39781     39783     39782     39784     39786     39785     39787
     39789     39788     39790     39792     39791     39793     39795     39794     39796
     39798     39797     39799     39801     39800     39802     39804     39803     39805
     39807     39806     39808     39810     39809     39811     39813     39812     39814
     39816     39815     39817     39819     39818     39820     39822     39821     39823
     39825     39824     39826     39828     39827     39829     39831     39830     39832
     39834     39833     39835     39837     39836     39838     39840     39839     39841
     39843     39842     39844     39846     39845     39847     39849     39848     39850
     39852     39851     39853     39855     39854     39856     39858     39857     39859
     39861     39860     39862     39864     39863     39865     39867     39866     39868
     39870     39869     39871     39873     39872     39874     39876     39875     39877
     39879     39878     39880     39882     39881     39883     39885     39884     39886
     39888     39887     39889     39891     39890     39892     39894     39893     39895
     39897     39896     39898     39900     39899     39901     39903     39902     39904
     39906     39905     39907     39909     39908     39910     39912     39911     39913
     39915     39914     39916     39918     39917     39919     39921     39920     39922
     39924     39923     39925     39927     39926     39928     39930     39929     39931
     39933     39932     39934     39936     39935     39937     39939     39938     39940
     39942     39941     39943     39945     39944     39946     39948     39947     39949
     39951     39950     39952     39954     39953     39955     39957     39956     39958
     39960     39959     39961     39963     39962     39964     39966     39965     39967
     39969     39968     39970     39972     39971     39973     39975     39974     39976
     39978     39977     39979     39981     39980     39982     39984     39983     39985
     39987     39986     39988     39990     39989     39991     39993     39992     39994
     39996     39995     39997     39999     39998     40000     40002     40001     40003
     40005     40004     40006     40008     40007     40009     40011     40010     40012
     40014     40013     40015     40017     40016     40018     40020     40019     40021
     40023     40022     40024     40026     40025     40027     40029     40028     40030
     40032     40031     40033     40035     40034     40036     40038     40037     40039
     40041     40040     40042     40044     40043     40045     40047     40046     40048
     40050     40049     40051     40053     40052     40054     40056     40055     40057
     40059     40058     40060     40062     40061     40063     40065     40064     40066
     40068     40067     40069     40071     40070     40072     40074     40073     40075
     40077     40076     40078     40080     40079     40081     40083     40082     40084
     40086     40085     40087     40089     40088     40090     40092     40091     40093
     40095     40094     40096     40098     40097     40099     40101     40100     40102
     40104     40103     40105     40107     40106     40108     40110     40109     40111
     40113     40112     40114     40116     40115     40117     40119     40118     40120
     40122     40121     40123     40125     40124     40126     40128     40127     40129
     40131     40130     40132     40134     40133     40135     40137     40136     40138
     40140     40139     40141     40143     40142     40144     40146     40145     40147
     40149     40148     40150     40152     40151     40153     40155     40154     40156
     40158     40157     40159     40161     40160     40162     40164     40163     40165
     40167     40166     40168     40170     40169     40171     40173     40172     40174
     40176     40175     40177     40179     40178     40180     40182     40181     40183
     40185     40184     40186     40188     40187     40189     40191     40190     40192
     40194     40193     40195     40197     40196     40198     40200     40199     40201
     40203     40202     40204     40206     40205     40207     40209     40208     40210
     40212     40211     40213     40215     40214     40216     40218     40217     40219
     40221     40220     40222     40224     40223     40225     40227     40226     40228
     40230     40229     40231     40233     40232     40234     40236     40235     40237
     40239     40238     40240     40242     40241     40243     40245     40244     40246
     40248     40247     40249     40251     40250     40252     40254     40253     40255
     40257     40256     40258     40260     40259     40261     40263     40262     40264
     40266     40265     40267     40269     40268     40270     40272     40271     40273
     40275     40274     40276     40278     40277     40279     40281     40280     40282
     40284     40283     40285     40287     40286     40288     40290     40289     40291
     40293     40292     40294     40296     40295     40297     40299     40298     40300
     40302     40301     40303     40305     40304     40306     40308     40307     40309
     40311     40310     40312     40314     40313     40315     40317     40316     40318
     40320     40319     40321     40323     40322     40324     40326     40325     40327
     40329     40328     40330     40332     40331     40333     40335     40334     40336
     40338     40337     40339     40341     40340     40342     40344     40343     40345
     40347     40346     40348     40350     40349     40351     40353     40352     40354
     40356     40355     40357     40359     40358     40360     40362     40361     40363
     40365     40364     40366     40368     40367     40369     40371     40370     40372
     40374     40373     40375     40377     40376     40378     40380     40379     40381
     40383     40382     40384     40386     40385     40387     40389     40388     40390
     40392     40391     40393     40395     40394     40396     40398     40397     40399
     40401     40400     40402     40404     40403     40405     40407     40406     40408
     40410     40409     40411     40413     40412     40414     40416     40415     40417
     40419     40418     40420     40422     40421     40423     40425     40424     40426
     40428     40427     40429     40431     40430     40432     40434     40433     40435
     40437     40436     40438     40440     40439     40441     40443     40442     40444
     40446     40445     40447     40449     40448     40450     40452     40451     40453
     40455     40454     40456     40458     40457     40459     40461     40460     40462
     40464     40463     40465     40467     40466     40468     40470     40469     40471
     40473     40472     40474     40476     40475     40477     40479     40478     40480
     40482     40481     40483     40485     40484     40486     40488     40487     40489
     40491     40490     40492     40494     40493     40495     40497     40496     40498
     40500     40499     40501     40503     40502     40504     40506     40505     40507
     40509     40508     40510     40512     40511     40513     40515     40514     40516
     40518     40517     40519     40521     40520     40522     40524     40523     40525
     40527     40526     40528     40530     40529     40531     40533     40532     40534
     40536     40535     40537     40539     40538     40540     40542     40541     40543
     40545     40544     40546     40548     40547     40549     40551     40550     40552
     40554     40553     40555     40557     40556     40558     40560     40559     40561
     40563     40562     40564     40566     40565     40567     40569     40568     40570
     40572     40571     40573     40575     40574     40576     40578     40577     40579
     40581     40580     40582     40584     40583     40585     40587     40586     40588
     40590     40589     40591     40593     40592     40594     40596     40595     40597
     40599     40598     40600     40602     40601     40603     40605     40604     40606
     40608     40607     40609     40611     40610     40612     40614     40613     40615
     40617     40616     40618     40620     40619     40621     40623     40622     40624
     40626     40625     40627     40629     40628     40630     40632     40631     40633
     40635     40634     40636     40638     40637     40639     40641     40640     40642
     40644     40643     40645     40647     40646     40648     40650     40649     40651
     40653     40652     40654     40656     40655     40657     40659     40658     40660
     40662     40661     40663     40665     40664     40666     40668     40667     40669
     40671     40670     40672     40674     40673     40675     40677     40676     40678
     40680     40679     40681     40683     40682     40684     40686     40685     40687
     40689     40688     40690     40692     40691     40693     40695     40694     40696
     40698     40697     40699     40701     40700     40702     40704     40703     40705
     40707     40706     40708     40710     40709     40711     40713     40712     40714
     40716     40715     40717     40719     40718     40720     40722     40721     40723
     40725     40724     40726     40728     40727     40729     40731     40730     40732
     40734     40733     40735     40737     40736     40738     40740     40739     40741
     40743     40742     40744     40746     40745     40747     40749     40748     40750
     40752     40751     40753     40755     40754     40756     40758     40757     40759
     40761     40760     40762     40764     40763     40765     40767     40766     40768
     40770     40769     40771     40773     40772     40774     40776     40775     40777
     40779     40778     40780     40782     40781     40783     40785     40784     40786
     40788     40787     40789     40791     40790     40792     40794     40793     40795
     40797     40796     40798     40800     40799     40801     40803     40802     40804
     40806     40805     40807     40809     40808     40810     40812     40811     40813
     40815     40814     40816     40818     40817     40819     40821     40820     40822
     40824     40823     40825     40827     40826     40828     40830     40829     40831
     40833     40832     40834     40836     40835     40837     40839     40838     40840
     40842     40841     40843     40845     40844     40846     40848     40847     40849
     40851     40850     40852     40854     40853     40855     40857     40856     40858
     40860     40859     40861     40863     40862     40864     40866     40865     40867
     40869     40868     40870     40872     40871     40873     40875     40874     40876
     40878     40877     40879     40881     40880     40882     40884     40883     40885
     40887     40886     40888     40890     40889     40891     40893     40892     40894
     40896     40895     40897     40899     40898     40900     40902     40901     40903
     40905     40904     40906     40908     40907     40909     40911     40910     40912
     40914     40913     40915     40917     40916     40918     40920     40919     40921
     40923     40922     40924     40926     40925     40927     40929     40928     40930
     40932     40931     40933     40935     40934     40936     40938     40937     40939
     40941     40940     40942     40944     40943     40945     40947     40946     40948
     40950     40949     40951     40953     40952     40954     40956     40955     40957
     40959     40958     40960     40962     40961     40963     40965     40964     40966
     40968     40967     40969     40971     40970     40972     40974     40973     40975
     40977     40976     40978     40980     40979     40981     40983     40982     40984
     40986     40985     40987     40989     40988     40990     40992     40991     40993
     40995     40994     40996     40998     40997     40999     41001     41000     41002
     41004     41003     41005     41007     41006     41008     41010     41009     41011
     41013     41012     41014     41016     41015     41017     41019     41018     41020
     41022     41021     41023     41025     41024     41026     41028     41027     41029
     41031     41030     41032     41034     41033     41035     41037     41036     41038
     41040     41039     41041     41043     41042     41044     41046     41045     41047
     41049     41048     41050     41052     41051     41053     41055     41054     41056
     41058     41057     41059     41061     41060     41062     41064     41063     41065
     41067     41066     41068     41070     41069     41071     41073     41072     41074
     41076     41075     41077     41079     41078     41080     41082     41081     41083
     41085     41084     41086     41088     41087     41089     41091     41090     41092
     41094     41093     41095     41097     41096     41098     41100     41099     41101
     41103     41102     41104     41106     41105     41107     41109     41108     41110
     41112     41111     41113     41115     41114     41116     41118     41117     41119
     41121     41120     41122     41124     41123     41125     41127     41126     41128
     41130     41129     41131     41133     41132     41134     41136     41135     41137
     41139     41138     41140     41142     41141     41143     41145     41144     41146
     41148     41147     41149     41151     41150     41152     41154     41153     41155
     41157     41156     41158     41160     41159     41161     41163     41162     41164
     41166     41165     41167     41169     41168     41170     41172     41171     41173
     41175     41174     41176     41178     41177     41179     41181     41180     41182
     41184     41183     41185     41187     41186     41188     41190     41189     41191
     41193     41192     41194     41196     41195     41197     41199     41198     41200
     41202     41201     41203     41205     41204     41206     41208     41207     41209
     41211     41210     41212     41214     41213     41215     41217     41216     41218
     41220     41219     41221     41223     41222     41224     41226     41225     41227
     41229     41228     41230     41232     41231     41233     41235     41234     41236
     41238     41237     41239     41241     41240     41242     41244     41243     41245
     41247     41246     41248     41250     41249     41251     41253     41252     41254
     41256     41255     41257     41259     41258     41260     41262     41261     41263
     41265     41264     41266     41268     41267     41269     41271     41270     41272
     41274     41273     41275     41277     41276     41278     41280     41279     41281
     41283     41282     41284     41286     41285     41287     41289     41288     41290
     41292     41291     41293     41295     41294     41296     41298     41297     41299
     41301     41300     41302     41304     41303     41305     41307     41306     41308
     41310     41309     41311     41313     41312     41314     41316     41315     41317
     41319     41318     41320     41322     41321     41323     41325     41324     41326
     41328     41327     41329     41331     41330     41332     41334     41333     41335
     41337     41336     41338     41340     41339     41341     41343     41342     41344
     41346     41345     41347     41349     41348     41350     41352     41351     41353
     41355     41354     41356     41358     41357     41359     41361     41360     41362
     41364     41363     41365     41367     41366     41368     41370     41369     41371
     41373     41372     41374     41376     41375     41377     41379     41378     41380
     41382     41381     41383     41385     41384     41386     41388     41387     41389
     41391     41390     41392     41394     41393     41395     41397     41396     41398
     41400     41399     41401     41403     41402     41404     41406     41405     41407
     41409     41408     41410     41412     41411     41413     41415     41414     41416
     41418     41417     41419     41421     41420     41422     41424     41423     41425
     41427     41426     41428     41430     41429     41431     41433     41432     41434
     41436     41435     41437     41439     41438     41440     41442     41441     41443
     41445     41444     41446     41448     41447     41449     41451     41450     41452
     41454     41453     41455     41457     41456     41458     41460     41459     41461
     41463     41462     41464     41466     41465     41467     41469     41468     41470
     41472     41471     41473     41475     41474     41476     41478     41477     41479
     41481     41480     41482     41484     41483     41485     41487     41486     41488
     41490     41489     41491     41493     41492     41494     41496     41495     41497
     41499     41498     41500     41502     41501     41503     41505     41504     41506
     41508     41507     41509     41511     41510     41512     41514     41513     41515
     41517     41516     41518     41520     41519     41521     41523     41522     41524
     41526     41525     41527     41529     41528     41530     41532     41531     41533
     41535     41534     41536     41538     41537     41539     41541     41540     41542
     41544     41543     41545     41547     41546     41548     41550     41549     41551
     41553     41552     41554     41556     41555     41557     41559     41558     41560
     41562     41561     41563     41565     41564     41566     41568     41567     41569
     41571     41570     41572     41574     41573     41575     41577     41576     41578
     41580     41579     41581     41583     41582     41584     41586     41585     41587
     41589     41588     41590     41592     41591     41593     41595     41594     41596
     41598     41597     41599     41601     41600     41602     41604     41603     41605
     41607     41606     41608     41610     41609     41611     41613     41612     41614
     41616     41615     41617     41619     41618     41620     41622     41621     41623
     41625     41624     41626     41628     41627     41629     41631     41630     41632
     41634     41633     41635     41637     41636     41638     41640     41639     41641
     41643     41642     41644     41646     41645     41647     41649     41648     41650
     41652     41651     41653     41655     41654     41656     41658     41657     41659
     41661     41660     41662     41664     41663     41665     41667     41666     41668
     41670     41669     41671     41673     41672     41674     41676     41675     41677
     41679     41678     41680     41682     41681     41683     41685     41684     41686
     41688     41687     41689     41691     41690     41692     41694     41693     41695
     41697     41696     41698     41700     41699     41701     41703     41702     41704
     41706     41705     41707     41709     41708     41710     41712     41711     41713
     41715     41714     41716     41718     41717     41719     41721     41720     41722
     41724     41723     41725     41727     41726     41728     41730     41729     41731
     41733     41732     41734     41736     41735     41737     41739     41738     41740
     41742     41741     41743     41745     41744     41746     41748     41747     41749
     41751     41750     41752     41754     41753     41755     41757     41756     41758
     41760     41759     41761     41763     41762     41764     41766     41765     41767
     41769     41768     41770     41772     41771     41773     41775     41774     41776
     41778     41777     41779     41781     41780     41782     41784     41783     41785
     41787     41786     41788     41790     41789     41791     41793     41792     41794
     41796     41795     41797     41799     41798     41800     41802     41801     41803
     41805     41804     41806     41808     41807     41809     41811     41810     41812
     41814     41813     41815     41817     41816     41818     41820     41819     41821
     41823     41822     41824     41826     41825     41827     41829     41828     41830
     41832     41831     41833     41835     41834     41836     41838     41837     41839
     41841     41840     41842     41844     41843     41845     41847     41846     41848
     41850     41849     41851     41853     41852     41854     41856     41855     41857
     41859     41858     41860     41862     41861     41863     41865     41864     41866
     41868     41867     41869     41871     41870     41872     41874     41873     41875
     41877     41876     41878     41880     41879     41881     41883     41882     41884
     41886     41885     41887     41889     41888     41890     41892     41891     41893
     41895     41894     41896     41898     41897     41899     41901     41900     41902
     41904     41903     41905     41907     41906     41908     41910     41909     41911
     41913     41912     41914     41916     41915     41917     41919     41918     41920
     41922     41921     41923     41925     41924     41926     41928     41927     41929
     41931     41930     41932     41934     41933     41935     41937     41936     41938
     41940     41939     41941     41943     41942     41944     41946     41945     41947
     41949     41948     41950     41952     41951     41953     41955     41954     41956
     41958     41957     41959     41961     41960     41962     41964     41963     41965
     41967     41966     41968     41970     41969     41971     41973     41972     41974
     41976     41975     41977     41979     41978     41980     41982     41981     41983
     41985     41984     41986     41988     41987     41989     41991     41990     41992
     41994     41993     41995     41997     41996     41998     42000     41999     42001
     42003     42002     42004     42006     42005     42007     42009     42008     42010
     42012     42011     42013     42015     42014     42016     42018     42017     42019
     42021     42020     42022     42024     42023     42025     42027     42026     42028
     42030     42029     42031     42033     42032     42034     42036     42035     42037
     42039     42038     42040     42042     42041     42043     42045     42044     42046
     42048     42047     42049     42051     42050     42052     42054     42053     42055
     42057     42056     42058     42060     42059     42061     42063     42062     42064
     42066     42065     42067     42069     42068     42070     42072     42071     42073
     42075     42074     42076     42078     42077     42079     42081     42080     42082
     42084     42083     42085     42087     42086     42088     42090     42089     42091
     42093     42092     42094     42096     42095     42097     42099     42098     42100
     42102     42101     42103     42105     42104     42106     42108     42107     42109
     42111     42110     42112     42114     42113     42115     42117     42116     42118
     42120     42119     42121     42123     42122     42124     42126     42125     42127
     42129     42128     42130     42132     42131     42133     42135     42134     42136
     42138     42137     42139     42141     42140     42142     42144     42143     42145
     42147     42146     42148     42150     42149     42151     42153     42152     42154
     42156     42155     42157     42159     42158     42160     42162     42161     42163
     42165     42164     42166     42168     42167     42169     42171     42170     42172
     42174     42173     42175     42177     42176     42178     42180     42179     42181
     42183     42182     42184     42186     42185     42187     42189     42188     42190
     42192     42191     42193     42195     42194     42196     42198     42197     42199
     42201     42200     42202     42204     42203     42205     42207     42206     42208
     42210     42209     42211     42213     42212     42214     42216     42215     42217
     42219     42218     42220     42222     42221     42223     42225     42224     42226
     42228     42227     42229     42231     42230     42232     42234     42233     42235
     42237     42236     42238     42240     42239     42241     42243     42242     42244
     42246     42245     42247     42249     42248     42250     42252     42251     42253
     42255     42254     42256     42258     42257     42259     42261     42260     42262
     42264     42263     42265     42267     42266     42268     42270     42269     42271
     42273     42272     42274     42276     42275     42277     42279     42278     42280
     42282     42281     42283     42285     42284     42286     42288     42287     42289
     42291     42290     42292     42294     42293     42295     42297     42296     42298
     42300     42299     42301     42303     42302     42304     42306     42305     42307
     42309     42308     42310     42312     42311     42313     42315     42314     42316
     42318     42317     42319     42321     42320     42322     42324     42323     42325
     42327     42326     42328     42330     42329     42331     42333     42332     42334
     42336     42335     42337     42339     42338     42340     42342     42341     42343
     42345     42344     42346     42348     42347     42349     42351     42350     42352
     42354     42353     42355     42357     42356     42358     42360     42359     42361
     42363     42362     42364     42366     42365     42367     42369     42368     42370
     42372     42371     42373     42375     42374     42376     42378     42377     42379
     42381     42380     42382     42384     42383     42385     42387     42386     42388
     42390     42389     42391     42393     42392     42394     42396     42395     42397
     42399     42398     42400     42402     42401     42403     42405     42404     42406
     42408     42407     42409     42411     42410     42412     42414     42413     42415
     42417     42416     42418     42420     42419     42421     42423     42422     42424
     42426     42425     42427     42429     42428     42430     42432     42431     42433
     42435     42434     42436     42438     42437     42439     42441     42440     42442
     42444     42443     42445     42447     42446     42448     42450     42449     42451
     42453     42452     42454     42456     42455     42457     42459     42458     42460
     42462     42461     42463     42465     42464     42466     42468     42467     42469
     42471     42470     42472     42474     42473     42475     42477     42476     42478
     42480     42479     42481     42483     42482     42484     42486     42485     42487
     42489     42488     42490     42492     42491     42493     42495     42494     42496
     42498     42497     42499     42501     42500     42502     42504     42503     42505
     42507     42506     42508     42510     42509     42511     42513     42512     42514
     42516     42515     42517     42519     42518     42520     42522     42521     42523
     42525     42524     42526     42528     42527     42529     42531     42530     42532
     42534     42533     42535     42537     42536     42538     42540     42539     42541
     42543     42542     42544     42546     42545     42547     42549     42548     42550
     42552     42551     42553     42555     42554     42556     42558     42557     42559
     42561     42560     42562     42564     42563     42565     42567     42566     42568
     42570     42569     42571     42573     42572     42574     42576     42575     42577
     42579     42578     42580     42582     42581     42583     42585     42584     42586
     42588     42587     42589     42591     42590     42592     42594     42593     42595
     42597     42596     42598     42600     42599     42601     42603     42602     42604
     42606     42605     42607     42609     42608     42610     42612     42611     42613
     42615     42614     42616     42618     42617     42619     42621     42620     42622
     42624     42623     42625     42627     42626     42628     42630     42629     42631
     42633     42632     42634     42636     42635     42637     42639     42638     42640
     42642     42641     42643     42645     42644     42646     42648     42647     42649
     42651     42650     42652     42654     42653     42655     42657     42656     42658
     42660     42659     42661     42663     42662     42664     42666     42665     42667
     42669     42668     42670     42672     42671     42673     42675     42674     42676
     42678     42677     42679     42681     42680     42682     42684     42683     42685
     42687     42686     42688     42690     42689     42691     42693     42692     42694
     42696     42695     42697     42699     42698     42700     42702     42701     42703
     42705     42704     42706     42708     42707     42709     42711     42710     42712
     42714     42713     42715     42717     42716     42718     42720     42719     42721
     42723     42722     42724     42726     42725     42727     42729     42728     42730
     42732     42731     42733     42735     42734     42736     42738     42737     42739
     42741     42740     42742     42744     42743     42745     42747     42746     42748
     42750     42749     42751     42753     42752     42754     42756     42755     42757
     42759     42758     42760     42762     42761     42763     42765     42764     42766
     42768     42767     42769     42771     42770     42772     42774     42773     42775
     42777     42776     42778     42780     42779     42781     42783     42782     42784
     42786     42785     42787     42789     42788     42790     42792     42791     42793
     42795     42794     42796     42798     42797     42799     42801     42800     42802
     42804     42803     42805     42807     42806     42808     42810     42809     42811
     42813     42812     42814     42816     42815     42817     42819     42818     42820
     42822     42821     42823     42825     42824     42826     42828     42827     42829
     42831     42830     42832     42834     42833     42835     42837     42836     42838
     42840     42839     42841     42843     42842     42844     42846     42845     42847
     42849     42848     42850     42852     42851     42853     42855     42854     42856
     42858     42857     42859     42861     42860     42862     42864     42863     42865
     42867     42866     42868     42870     42869     42871     42873     42872     42874
     42876     42875     42877     42879     42878     42880     42882     42881     42883
     42885     42884     42886     42888     42887     42889     42891     42890     42892
     42894     42893     42895     42897     42896     42898     42900     42899     42901
     42903     42902     42904     42906     42905     42907     42909     42908     42910
     42912     42911     42913     42915     42914     42916     42918     42917     42919
     42921     42920     42922     42924     42923     42925     42927     42926     42928
     42930     42929     42931     42933     42932     42934     42936     42935     42937
     42939     42938     42940     42942     42941     42943     42945     42944     42946
     42948     42947     42949     42951     42950     42952     42954     42953     42955
     42957     42956     42958     42960     42959     42961     42963     42962     42964
     42966     42965     42967     42969     42968     42970     42972     42971     42973
     42975     42974     42976     42978     42977     42979     42981     42980     42982
     42984     42983     42985     42987     42986     42988     42990     42989     42991
     42993     42992     42994     42996     42995     42997     42999     42998     43000
     43002     43001     43003     43005     43004     43006     43008     43007     43009
     43011     43010     43012     43014     43013     43015     43017     43016     43018
     43020     43019     43021     43023     43022     43024     43026     43025     43027
     43029     43028     43030     43032     43031     43033     43035     43034     43036
     43038     43037     43039     43041     43040     43042     43044     43043     43045
     43047     43046     43048     43050     43049     43051     43053     43052     43054
     43056     43055     43057     43059     43058     43060     43062     43061     43063
     43065     43064     43066     43068     43067     43069     43071     43070     43072
     43074     43073     43075     43077     43076     43078     43080     43079     43081
     43083     43082     43084     43086     43085     43087     43089     43088     43090
     43092     43091     43093     43095     43094     43096     43098     43097     43099
     43101     43100     43102     43104     43103     43105     43107     43106     43108
     43110     43109     43111     43113     43112     43114     43116     43115     43117
     43119     43118     43120     43122     43121     43123     43125     43124     43126
     43128     43127     43129     43131     43130     43132     43134     43133     43135
     43137     43136     43138     43140     43139     43141     43143     43142     43144
     43146     43145     43147     43149     43148     43150     43152     43151     43153
     43155     43154     43156     43158     43157     43159     43161     43160     43162
     43164     43163     43165     43167     43166     43168     43170     43169     43171
     43173     43172     43174     43176     43175     43177     43179     43178     43180
     43182     43181     43183     43185     43184     43186     43188     43187     43189
     43191     43190     43192     43194     43193     43195     43197     43196     43198
     43200     43199     43201     43203     43202     43204     43206     43205     43207
     43209     43208     43210     43212     43211     43213     43215     43214     43216
     43218     43217     43219     43221     43220     43222     43224     43223     43225
     43227     43226     43228     43230     43229     43231     43233     43232     43234
     43236     43235     43237     43239     43238     43240     43242     43241     43243
     43245     43244     43246     43248     43247     43249     43251     43250     43252
     43254     43253     43255     43257     43256     43258     43260     43259     43261
     43263     43262     43264     43266     43265     43267     43269     43268     43270
     43272     43271     43273     43275     43274     43276     43278     43277     43279
     43281     43280     43282     43284     43283     43285     43287     43286     43288
     43290     43289     43291     43293     43292     43294     43296     43295     43297
     43299     43298     43300     43302     43301     43303     43305     43304     43306
     43308     43307     43309     43311     43310     43312     43314     43313     43315
     43317     43316     43318     43320     43319     43321     43323     43322     43324
     43326     43325     43327     43329     43328     43330     43332     43331     43333
     43335     43334     43336     43338     43337     43339     43341     43340     43342
     43344     43343     43345     43347     43346     43348     43350     43349     43351
     43353     43352     43354     43356     43355     43357     43359     43358     43360
     43362     43361     43363     43365     43364     43366     43368     43367     43369
     43371     43370     43372     43374     43373     43375     43377     43376     43378
     43380     43379     43381     43383     43382     43384     43386     43385     43387
     43389     43388     43390     43392     43391     43393     43395     43394     43396
     43398     43397     43399     43401     43400     43402     43404     43403     43405
     43407     43406     43408     43410     43409     43411     43413     43412     43414
     43416     43415     43417     43419     43418     43420     43422     43421     43423
     43425     43424     43426     43428     43427     43429     43431     43430     43432
     43434     43433     43435     43437     43436     43438     43440     43439     43441
     43443     43442     43444     43446     43445     43447     43449     43448     43450
     43452     43451     43453     43455     43454     43456     43458     43457     43459
     43461     43460     43462     43464     43463     43465     43467     43466     43468
     43470     43469     43471     43473     43472     43474     43476     43475     43477
     43479     43478     43480     43482     43481     43483     43485     43484     43486
     43488     43487     43489     43491     43490     43492     43494     43493     43495
     43497     43496     43498     43500     43499     43501     43503     43502     43504
     43506     43505     43507     43509     43508     43510     43512     43511     43513
     43515     43514     43516     43518     43517     43519     43521     43520     43522
     43524     43523     43525     43527     43526     43528     43530     43529     43531
     43533     43532     43534     43536     43535     43537     43539     43538     43540
     43542     43541     43543     43545     43544     43546     43548     43547     43549
     43551     43550     43552     43554     43553     43555     43557     43556     43558
     43560     43559     43561     43563     43562     43564     43566     43565     43567
     43569     43568     43570     43572     43571     43573     43575     43574     43576
     43578     43577     43579     43581     43580     43582     43584     43583     43585
     43587     43586     43588     43590     43589     43591     43593     43592     43594
     43596     43595     43597     43599     43598     43600     43602     43601     43603
     43605     43604     43606     43608     43607     43609     43611     43610     43612
     43614     43613     43615     43617     43616     43618     43620     43619     43621
     43623     43622     43624     43626     43625     43627     43629     43628     43630
     43632     43631     43633     43635     43634     43636     43638     43637     43639
     43641     43640     43642     43644     43643     43645     43647     43646     43648
     43650     43649     43651     43653     43652     43654     43656     43655     43657
     43659     43658     43660     43662     43661     43663     43665     43664     43666
     43668     43667     43669     43671     43670     43672     43674     43673     43675
     43677     43676     43678     43680     43679     43681     43683     43682     43684
     43686     43685     43687     43689     43688     43690     43692     43691     43693
     43695     43694     43696     43698     43697     43699     43701     43700     43702
     43704     43703     43705     43707     43706     43708     43710     43709     43711
     43713     43712     43714     43716     43715     43717     43719     43718     43720
     43722     43721     43723     43725     43724     43726     43728     43727     43729
     43731     43730     43732     43734     43733     43735     43737     43736     43738
     43740     43739     43741     43743     43742     43744     43746     43745     43747
     43749     43748     43750     43752     43751     43753     43755     43754     43756
     43758     43757     43759     43761     43760     43762     43764     43763     43765
     43767     43766     43768     43770     43769     43771     43773     43772     43774
     43776     43775     43777     43779     43778     43780     43782     43781     43783
     43785     43784     43786     43788     43787     43789     43791     43790     43792
     43794     43793     43795     43797     43796     43798     43800     43799     43801
     43803     43802     43804     43806     43805     43807     43809     43808     43810
     43812     43811     43813     43815     43814     43816     43818     43817     43819
     43821     43820     43822     43824     43823     43825     43827     43826     43828
     43830     43829     43831     43833     43832     43834     43836     43835     43837
     43839     43838     43840     43842     43841     43843     43845     43844     43846
     43848     43847     43849     43851     43850     43852     43854     43853     43855
     43857     43856     43858     43860     43859     43861     43863     43862     43864
     43866     43865     43867     43869     43868     43870     43872     43871     43873
     43875     43874     43876     43878     43877     43879     43881     43880     43882
     43884     43883     43885     43887     43886     43888     43890     43889     43891
     43893     43892     43894     43896     43895     43897     43899     43898     43900
     43902     43901     43903     43905     43904     43906     43908     43907     43909
     43911     43910     43912     43914     43913     43915     43917     43916     43918
     43920     43919     43921     43923     43922     43924     43926     43925     43927
     43929     43928     43930     43932     43931     43933     43935     43934     43936
     43938     43937     43939     43941     43940     43942     43944     43943     43945
     43947     43946     43948     43950     43949     43951     43953     43952     43954
     43956     43955     43957     43959     43958     43960     43962     43961     43963
     43965     43964     43966     43968     43967     43969     43971     43970     43972
     43974     43973     43975     43977     43976     43978     43980     43979     43981
     43983     43982     43984     43986     43985     43987     43989     43988     43990
     43992     43991     43993     43995     43994     43996     43998     43997     43999
     44001     44000     44002     44004     44003     44005     44007     44006     44008
     44010     44009     44011     44013     44012     44014     44016     44015     44017
     44019     44018     44020     44022     44021     44023     44025     44024     44026
     44028     44027     44029     44031     44030     44032     44034     44033     44035
     44037     44036     44038     44040     44039     44041     44043     44042     44044
     44046     44045     44047     44049     44048     44050     44052     44051     44053
     44055     44054     44056     44058     44057     44059     44061     44060     44062
     44064     44063     44065     44067     44066     44068     44070     44069     44071
     44073     44072     44074     44076     44075     44077     44079     44078     44080
     44082     44081     44083     44085     44084     44086     44088     44087     44089
     44091     44090     44092     44094     44093     44095     44097     44096     44098
     44100     44099     44101     44103     44102     44104     44106     44105     44107
     44109     44108     44110     44112     44111     44113     44115     44114     44116
     44118     44117     44119     44121     44120     44122     44124     44123     44125
     44127     44126     44128     44130     44129     44131     44133     44132     44134
     44136     44135     44137     44139     44138     44140     44142     44141     44143
     44145     44144     44146     44148     44147     44149     44151     44150     44152
     44154     44153     44155     44157     44156     44158     44160     44159     44161
     44163     44162     44164     44166     44165     44167     44169     44168     44170
     44172     44171     44173     44175     44174     44176     44178     44177     44179
     44181     44180     44182     44184     44183     44185     44187     44186     44188
     44190     44189     44191     44193     44192     44194     44196     44195     44197
     44199     44198     44200     44202     44201     44203     44205     44204     44206
     44208     44207     44209     44211     44210     44212     44214     44213     44215
     44217     44216     44218     44220     44219     44221     44223     44222     44224
     44226     44225     44227     44229     44228     44230     44232     44231     44233
     44235     44234     44236     44238     44237     44239     44241     44240     44242
     44244     44243     44245     44247     44246     44248     44250     44249     44251
     44253     44252     44254     44256     44255     44257     44259     44258     44260
     44262     44261     44263     44265     44264     44266     44268     44267     44269
     44271     44270     44272     44274     44273     44275     44277     44276     44278
     44280     44279     44281     44283     44282     44284     44286     44285     44287
     44289     44288     44290     44292     44291     44293     44295     44294     44296
     44298     44297     44299     44301     44300     44302     44304     44303     44305
     44307     44306     44308     44310     44309     44311     44313     44312     44314
     44316     44315     44317     44319     44318     44320     44322     44321     44323
     44325     44324     44326     44328     44327     44329     44331     44330     44332
     44334     44333     44335     44337     44336     44338     44340     44339     44341
     44343     44342     44344     44346     44345     44347     44349     44348     44350
     44352     44351     44353     44355     44354     44356     44358     44357     44359
     44361     44360     44362     44364     44363     44365     44367     44366     44368
     44370     44369     44371     44373     44372     44374     44376     44375     44377
     44379     44378     44380     44382     44381     44383     44385     44384     44386
     44388     44387     44389     44391     44390     44392     44394     44393     44395
     44397     44396     44398     44400     44399     44401     44403     44402     44404
     44406     44405     44407     44409     44408     44410     44412     44411     44413
     44415     44414     44416     44418     44417     44419     44421     44420     44422
     44424     44423     44425     44427     44426     44428     44430     44429     44431
     44433     44432     44434     44436     44435     44437     44439     44438     44440
     44442     44441     44443     44445     44444     44446     44448     44447     44449
     44451     44450     44452     44454     44453     44455     44457     44456     44458
     44460     44459     44461     44463     44462     44464     44466     44465     44467
     44469     44468     44470     44472     44471     44473     44475     44474     44476
     44478     44477     44479     44481     44480     44482     44484     44483     44485
     44487     44486     44488     44490     44489     44491     44493     44492     44494
     44496     44495     44497     44499     44498     44500     44502     44501     44503
     44505     44504     44506     44508     44507     44509     44511     44510     44512
     44514     44513     44515     44517     44516     44518     44520     44519     44521
     44523     44522     44524     44526     44525     44527     44529     44528     44530
     44532     44531     44533     44535     44534     44536     44538     44537     44539
     44541     44540     44542     44544     44543     44545     44547     44546     44548
     44550     44549     44551     44553     44552     44554     44556     44555     44557
     44559     44558     44560     44562     44561     44563     44565     44564     44566
     44568     44567     44569     44571     44570     44572     44574     44573     44575
     44577     44576     44578     44580     44579     44581     44583     44582     44584
     44586     44585     44587     44589     44588     44590     44592     44591     44593
     44595     44594     44596     44598     44597     44599     44601     44600     44602
     44604     44603     44605     44607     44606     44608     44610     44609     44611
     44613     44612     44614     44616     44615     44617     44619     44618     44620
     44622     44621     44623     44625     44624     44626     44628     44627     44629
     44631     44630     44632     44634     44633     44635     44637     44636     44638
     44640     44639     44641     44643     44642     44644     44646     44645     44647
     44649     44648     44650     44652     44651     44653     44655     44654     44656
     44658     44657     44659     44661     44660     44662     44664     44663     44665
     44667     44666     44668     44670     44669     44671     44673     44672     44674
     44676     44675     44677     44679     44678     44680     44682     44681     44683
     44685     44684     44686     44688     44687     44689     44691     44690     44692
     44694     44693     44695     44697     44696     44698     44700     44699     44701
     44703     44702     44704     44706     44705     44707     44709     44708     44710
     44712     44711     44713     44715     44714     44716     44718     44717     44719
     44721     44720     44722     44724     44723     44725     44727     44726     44728
     44730     44729     44731     44733     44732     44734     44736     44735     44737
     44739     44738     44740     44742     44741     44743     44745     44744     44746
     44748     44747     44749     44751     44750     44752     44754     44753     44755
     44757     44756     44758     44760     44759     44761     44763     44762     44764
     44766     44765     44767     44769     44768     44770     44772     44771     44773
     44775     44774     44776     44778     44777     44779     44781     44780     44782
     44784     44783     44785     44787     44786     44788     44790     44789     44791
     44793     44792     44794     44796     44795     44797     44799     44798     44800
     44802     44801     44803     44805     44804     44806     44808     44807     44809
     44811     44810     44812     44814     44813     44815     44817     44816     44818
     44820     44819     44821     44823     44822     44824     44826     44825     44827
     44829     44828     44830     44832     44831     44833     44835     44834     44836
     44838     44837     44839     44841     44840     44842     44844     44843     44845
     44847     44846     44848     44850     44849     44851     44853     44852     44854
     44856     44855     44857     44859     44858     44860     44862     44861     44863
     44865     44864     44866     44868     44867     44869     44871     44870     44872
     44874     44873     44875     44877     44876     44878     44880     44879     44881
     44883     44882     44884     44886     44885     44887     44889     44888     44890
     44892     44891     44893     44895     44894     44896     44898     44897     44899
     44901     44900     44902     44904     44903     44905     44907     44906     44908
     44910     44909     44911     44913     44912     44914     44916     44915     44917
     44919     44918     44920     44922     44921     44923     44925     44924     44926
     44928     44927     44929     44931     44930     44932     44934     44933     44935
     44937     44936     44938     44940     44939     44941     44943     44942     44944
     44946     44945     44947     44949     44948     44950     44952     44951     44953
     44955     44954     44956     44958     44957     44959     44961     44960     44962
     44964     44963     44965     44967     44966     44968     44970     44969     44971
     44973     44972     44974     44976     44975     44977     44979     44978     44980
     44982     44981     44983     44985     44984     44986     44988     44987     44989
     44991     44990     44992     44994     44993     44995     44997     44996     44998
     45000     44999     45001     45003     45002     45004     45006     45005     45007
     45009     45008     45010     45012     45011     45013     45015     45014     45016
     45018     45017     45019     45021     45020     45022     45024     45023     45025
     45027     45026     45028     45030     45029     45031     45033     45032     45034
     45036     45035     45037     45039     45038     45040     45042     45041     45043
     45045     45044     45046     45048     45047     45049     45051     45050     45052
     45054     45053     45055     45057     45056     45058     45060     45059     45061
     45063     45062     45064     45066     45065     45067     45069     45068     45070
     45072     45071     45073     45075     45074     45076     45078     45077     45079
     45081     45080     45082     45084     45083     45085     45087     45086     45088
     45090     45089     45091     45093     45092     45094     45096     45095     45097
     45099     45098     45100     45102     45101     45103     45105     45104     45106
     45108     45107     45109     45111     45110     45112     45114     45113     45115
     45117     45116     45118     45120     45119     45121     45123     45122     45124
     45126     45125     45127     45129     45128     45130     45132     45131     45133
     45135     45134     45136     45138     45137     45139     45141     45140     45142
     45144     45143     45145     45147     45146     45148     45150     45149     45151
     45153     45152     45154     45156     45155     45157     45159     45158     45160
     45162     45161     45163     45165     45164     45166     45168     45167     45169
     45171     45170     45172     45174     45173     45175     45177     45176     45178
     45180     45179     45181     45183     45182     45184     45186     45185     45187
     45189     45188     45190     45192     45191     45193     45195     45194     45196
     45198     45197     45199     45201     45200     45202     45204     45203     45205
     45207     45206     45208     45210     45209     45211     45213     45212     45214
     45216     45215     45217     45219     45218     45220     45222     45221     45223
     45225     45224     45226     45228     45227     45229     45231     45230     45232
     45234     45233     45235     45237     45236     45238     45240     45239     45241
     45243     45242     45244     45246     45245     45247     45249     45248     45250
     45252     45251     45253     45255     45254     45256     45258     45257     45259
     45261     45260     45262     45264     45263     45265     45267     45266     45268
     45270     45269     45271     45273     45272     45274     45276     45275     45277
     45279     45278     45280     45282     45281     45283     45285     45284     45286
     45288     45287     45289     45291     45290     45292     45294     45293     45295
     45297     45296     45298     45300     45299     45301     45303     45302     45304
     45306     45305     45307     45309     45308     45310     45312     45311     45313
     45315     45314     45316     45318     45317     45319     45321     45320     45322
     45324     45323     45325     45327     45326     45328     45330     45329     45331
     45333     45332     45334     45336     45335     45337     45339     45338     45340
     45342     45341     45343     45345     45344     45346     45348     45347     45349
     45351     45350     45352     45354     45353     45355     45357     45356     45358
     45360     45359     45361     45363     45362     45364     45366     45365     45367
     45369     45368     45370     45372     45371     45373     45375     45374     45376
     45378     45377     45379     45381     45380     45382     45384     45383     45385
     45387     45386     45388     45390     45389     45391     45393     45392     45394
     45396     45395     45397     45399     45398     45400     45402     45401     45403
     45405     45404     45406     45408     45407     45409     45411     45410     45412
     45414     45413     45415     45417     45416     45418     45420     45419     45421
     45423     45422     45424     45426     45425     45427     45429     45428     45430
     45432     45431     45433     45435     45434     45436     45438     45437     45439
     45441     45440     45442     45444     45443     45445     45447     45446     45448
     45450     45449     45451     45453     45452     45454     45456     45455     45457
     45459     45458     45460     45462     45461     45463     45465     45464     45466
     45468     45467     45469     45471     45470     45472     45474     45473     45475
     45477     45476     45478     45480     45479     45481     45483     45482     45484
     45486     45485     45487     45489     45488     45490     45492     45491     45493
     45495     45494     45496     45498     45497     45499     45501     45500     45502
     45504     45503     45505     45507     45506     45508     45510     45509     45511
     45513     45512     45514     45516     45515     45517     45519     45518     45520
     45522     45521     45523     45525     45524     45526     45528     45527     45529
     45531     45530     45532     45534     45533     45535     45537     45536     45538
     45540     45539     45541     45543     45542     45544     45546     45545     45547
     45549     45548     45550     45552     45551     45553     45555     45554     45556
     45558     45557     45559     45561     45560     45562     45564     45563     45565
     45567     45566     45568     45570     45569     45571     45573     45572     45574
     45576     45575     45577     45579     45578     45580     45582     45581     45583
     45585     45584     45586     45588     45587     45589     45591     45590     45592
     45594     45593     45595     45597     45596     45598     45600     45599     45601
     45603     45602     45604     45606     45605     45607     45609     45608     45610
     45612     45611     45613     45615     45614     45616     45618     45617     45619
     45621     45620     45622     45624     45623     45625     45627     45626     45628
     45630     45629     45631     45633     45632     45634     45636     45635     45637
     45639     45638     45640     45642     45641     45643     45645     45644     45646
     45648     45647     45649     45651     45650     45652     45654     45653     45655
     45657     45656     45658     45660     45659     45661     45663     45662     45664
     45666     45665     45667     45669     45668     45670     45672     45671     45673
     45675     45674     45676     45678     45677     45679     45681     45680     45682
     45684     45683     45685     45687     45686     45688     45690     45689     45691
     45693     45692     45694     45696     45695     45697     45699     45698     45700
     45702     45701     45703     45705     45704     45706     45708     45707     45709
     45711     45710     45712     45714     45713     45715     45717     45716     45718
     45720     45719     45721     45723     45722     45724     45726     45725     45727
     45729     45728     45730     45732     45731     45733     45735     45734     45736
     45738     45737     45739     45741     45740     45742     45744     45743     45745
     45747     45746     45748     45750     45749     45751     45753     45752     45754
     45756     45755     45757     45759     45758     45760     45762     45761     45763
     45765     45764     45766     45768     45767     45769     45771     45770     45772
     45774     45773     45775     45777     45776     45778     45780     45779     45781
     45783     45782     45784     45786     45785     45787     45789     45788     45790
     45792     45791     45793     45795     45794     45796     45798     45797     45799
     45801     45800     45802     45804     45803     45805     45807     45806     45808
     45810     45809     45811     45813     45812     45814     45816     45815     45817
     45819     45818     45820     45822     45821     45823     45825     45824     45826
     45828     45827     45829     45831     45830     45832     45834     45833     45835
     45837     45836     45838     45840     45839     45841     45843     45842     45844
     45846     45845     45847     45849     45848     45850     45852     45851     45853
     45855     45854     45856     45858     45857     45859     45861     45860     45862
     45864     45863     45865     45867     45866     45868     45870     45869     45871
     45873     45872     45874     45876     45875     45877     45879     45878     45880
     45882     45881     45883     45885     45884     45886     45888     45887     45889
     45891     45890     45892     45894     45893     45895     45897     45896     45898
     45900     45899     45901     45903     45902     45904     45906     45905     45907
     45909     45908     45910     45912     45911     45913     45915     45914     45916
     45918     45917     45919     45921     45920     45922     45924     45923     45925
     45927     45926     45928     45930     45929     45931     45933     45932     45934
     45936     45935     45937     45939     45938     45940     45942     45941     45943
     45945     45944     45946     45948     45947     45949     45951     45950     45952
     45954     45953     45955     45957     45956     45958     45960     45959     45961
     45963     45962     45964     45966     45965     45967     45969     45968     45970
     45972     45971     45973     45975     45974     45976     45978     45977     45979
     45981     45980     45982     45984     45983     45985     45987     45986     45988
     45990     45989     45991     45993     45992     45994     45996     45995     45997
     45999     45998     46000     46002     46001     46003     46005     46004     46006
     46008     46007     46009     46011     46010     46012     46014     46013     46015
     46017     46016     46018     46020     46019     46021     46023     46022     46024
     46026     46025     46027     46029     46028     46030     46032     46031     46033
     46035     46034     46036     46038     46037     46039     46041     46040     46042
     46044     46043     46045     46047     46046     46048     46050     46049     46051
     46053     46052     46054     46056     46055     46057     46059     46058     46060
     46062     46061     46063     46065     46064     46066     46068     46067     46069
     46071     46070     46072     46074     46073     46075     46077     46076     46078
     46080     46079     46081     46083     46082     46084     46086     46085     46087
     46089     46088     46090     46092     46091     46093     46095     46094     46096
     46098     46097     46099     46101     46100     46102     46104     46103     46105
     46107     46106     46108     46110     46109     46111     46113     46112     46114
     46116     46115     46117     46119     46118     46120     46122     46121     46123
     46125     46124     46126     46128     46127     46129     46131     46130     46132
     46134     46133     46135     46137     46136     46138     46140     46139     46141
     46143     46142     46144     46146     46145     46147     46149     46148     46150
     46152     46151     46153     46155     46154     46156     46158     46157     46159
     46161     46160     46162     46164     46163     46165     46167     46166     46168
     46170     46169     46171     46173     46172     46174     46176     46175     46177
     46179     46178     46180     46182     46181     46183     46185     46184     46186
     46188     46187     46189     46191     46190     46192     46194     46193     46195
     46197     46196     46198     46200     46199     46201     46203     46202     46204
     46206     46205     46207     46209     46208     46210     46212     46211     46213
     46215     46214     46216     46218     46217     46219     46221     46220     46222
     46224     46223     46225     46227     46226     46228     46230     46229     46231
     46233     46232     46234     46236     46235     46237     46239     46238     46240
     46242     46241     46243     46245     46244     46246     46248     46247     46249
     46251     46250     46252     46254     46253     46255     46257     46256     46258
     46260     46259     46261     46263     46262     46264     46266     46265     46267
     46269     46268     46270     46272     46271     46273     46275     46274     46276
     46278     46277     46279     46281     46280     46282     46284     46283     46285
     46287     46286     46288     46290     46289     46291     46293     46292     46294
     46296     46295     46297     46299     46298     46300     46302     46301     46303
     46305     46304     46306     46308     46307     46309     46311     46310     46312
     46314     46313     46315     46317     46316     46318     46320     46319     46321
     46323     46322     46324     46326     46325     46327     46329     46328     46330
     46332     46331     46333     46335     46334     46336     46338     46337     46339
     46341     46340     46342     46344     46343     46345     46347     46346     46348
     46350     46349     46351     46353     46352     46354     46356     46355     46357
     46359     46358     46360     46362     46361     46363     46365     46364     46366
     46368     46367     46369     46371     46370     46372     46374     46373     46375
     46377     46376     46378     46380     46379     46381     46383     46382     46384
     46386     46385     46387     46389     46388     46390     46392     46391     46393
     46395     46394     46396     46398     46397     46399     46401     46400     46402
     46404     46403     46405     46407     46406     46408     46410     46409     46411
     46413     46412     46414     46416     46415     46417     46419     46418     46420
     46422     46421     46423     46425     46424     46426     46428     46427     46429
     46431     46430     46432

     75972 !NPHI: dihedrals
         1         2        17        18         1         2        17        19
         1         2        17        23         2         1         5         6
         2         1         5         7         2         1         5         8
         2         1         9        10         2         1         9        11
         2         1         9        12         2         1        13        14
         2         1        13        15         2         1        13        16
         2        17        23        20         3         2         1         5
         3         2         1         9         3         2         1        13
         3         2        17        18         3         2        17        19
         3         2        17        23         4         2         1         5
         4         2         1         9         4         2         1        13
         4         2        17        18         4         2        17        19
         4         2        17        23         5         1         2        17
         5         1         9        10         5         1         9        11
         5         1         9        12         5         1        13        14
         5         1        13        15         5         1        13        16
         6         5         1         9         6         5         1        13
         7         5         1         9         7         5         1        13
         8         5         1         9         8         5         1        13
         9         1         2        17         9         1        13        14
         9         1        13        15         9         1        13        16
        10         9         1        13        11         9         1        13
        12         9         1        13        13         1         2        17
        17        23        20        21        17        23        20        22
        17        23        20        24        18        17        23        20
        19        17        23        20        20        24        25        26
        20        24        25        27        20        24        25        28
        21        20        24        25        22        20        24        25
        23        20        24        25        24        25        28        29
        24        25        28        30        24        25        28        36
        25        28        30        31        25        28        36        37
        25        28        36        38        25        28        36        39
        26        25        28        29        26        25        28        30
        26        25        28        36        27        25        28        29
        27        25        28        30        27        25        28        36
        28        30        31        32        28        30        31        33
        28        36        39        40        29        28        30        31
        29        28        36        37        29        28        36        38
        29        28        36        39        30        28        36        37
        30        28        36        38        30        28        36        39
        30        31        33        34        30        31        33        35
        30        31        33        45        31        30        28        36
        31        33        45        46        31        33        45        47
        31        33        45        48        32        31        33        34
        32        31        33        35        32        31        33        45
        33        45        48        49        33        45        48        50
        33        45        48        51        34        33        45        46
        34        33        45        47        34        33        45        48
        35        33        45        46        35        33        45        47
        35        33        45        48        36        39        40        41
        36        39        40        42        37        36        39        40
        38        36        39        40        39        40        42        43
        39        40        42        44        39        40        42        92
        40        42        92        93        40        42        92        94
        40        42        92        95        41        40        42        43
        41        40        42        44        41        40        42        92
        42        92        95        96        42        92        95        97
        42        92        95        98        43        42        92        93
        43        42        92        94        43        42        92        95
        44        42        92        93        44        42        92        94
        44        42        92        95        45        48        51        52
        45        48        51        53        45        48        51        54
        46        45        48        49        46        45        48        50
        46        45        48        51        47        45        48        49
        47        45        48        50        47        45        48        51
        48        51        54        55        48        51        54        56
        48        51        54        57        49        48        51        52
        49        48        51        53        49        48        51        54
        50        48        51        52        50        48        51        53
        50        48        51        54        51        54        57        58
        51        54        57        59        51        54        57        60
        52        51        54        55        52        51        54        56
        52        51        54        57        53        51        54        55
        53        51        54        56        53        51        54        57
        54        57        60        61        54        57        60        62
        54        57        60        63        55        54        57        58
        55        54        57        59        55        54        57        60
        56        54        57        58        56        54        57        59
        56        54        57        60        57        60        63        64
        57        60        63        65        58        57        60        61
        58        57        60        62        58        57        60        63
        59        57        60        61        59        57        60        62
        59        57        60        63        60        63        65        66
        60        63        65        67        61        60        63        64
        61        60        63        65        62        60        63        64
        62        60        63        65        63        65        67        68
        63        65        67        69        63        65        67        70
        64        63        65        66        64        63        65        67
        65        67        70        71        65        67        70        72
        65        67        70        73        66        65        67        68
        66        65        67        69        66        65        67        70
        67        70        73        74        67        70        73        75
        67        70        73        76        68        67        70        71
        68        67        70        72        68        67        70        73
        69        67        70        71        69        67        70        72
        69        67        70        73        70        73        76        77
        70        73        76        78        70        73        76        79
        71        70        73        74        71        70        73        75
        71        70        73        76        72        70        73        74
        72        70        73        75        72        70        73        76
        73        76        79        80        73        76        79        81
        73        76        79        82        74        73        76        77
        74        73        76        78        74        73        76        79
        75        73        76        77        75        73        76        78
        75        73        76        79        76        79        82        83
        76        79        82        84        76        79        82        85
        77        76        79        80        77        76        79        81
        77        76        79        82        78        76        79        80
        78        76        79        81        78        76        79        82
        79        82        85        86        79        82        85        87
        79        82        85        88        80        79        82        83
        80        79        82        84        80        79        82        85
        81        79        82        83        81        79        82        84
        81        79        82        85        82        85        88        89
        82        85        88        90        82        85        88        91
        83        82        85        86        83        82        85        87
        83        82        85        88        84        82        85        86
        84        82        85        87        84        82        85        88
        86        85        88        89        86        85        88        90
        86        85        88        91        87        85        88        89
        87        85        88        90        87        85        88        91
        92        95        98        99        92        95        98       100
        92        95        98       101        93        92        95        96
        93        92        95        97        93        92        95        98
        94        92        95        96        94        92        95        97
        94        92        95        98        95        98       101       102
        95        98       101       103        95        98       101       104
        96        95        98        99        96        95        98       100
        96        95        98       101        97        95        98        99
        97        95        98       100        97        95        98       101
        98       101       104       105        98       101       104       106
        98       101       104       107        99        98       101       102
        99        98       101       103        99        98       101       104
       100        98       101       102       100        98       101       103
       100        98       101       104       101       104       107       108
       101       104       107       109       101       104       107       110
       102       101       104       105       102       101       104       106
       102       101       104       107       103       101       104       105
       103       101       104       106       103       101       104       107
       104       107       110       111       104       107       110       112
       104       107       110       113       105       104       107       108
       105       104       107       109       105       104       107       110
       106       104       107       108       106       104       107       109
       106       104       107       110       107       110       113       114
       107       110       113       115       107       110       113       116
       108       107       110       111       108       107       110       112
       108       107       110       113       109       107       110       111
       109       107       110       112       109       107       110       113
       110       113       116       117       110       113       116       118
       110       113       116       119       111       110       113       114
       111       110       113       115       111       110       113       116
       112       110       113       114       112       110       113       115
       112       110       113       116       113       116       119       120
       113       116       119       121       113       116       119       122
       114       113       116       117       114       113       116       118
       114       113       116       119       115       113       116       117
       115       113       116       118       115       113       116       119
       116       119       122       123       116       119       122       124
       116       119       122       125       117       116       119       120
       117       116       119       121       117       116       119       122
       118       116       119       120       118       116       119       121
       118       116       119       122       119       122       125       126
       119       122       125       127       119       122       125       128
       120       119       122       123       120       119       122       124
       120       119       122       125       121       119       122       123
       121       119       122       124       121       119       122       125
       122       125       128       129       122       125       128       130
       122       125       128       131       123       122       125       126
       123       122       125       127       123       122       125       128
       124       122       125       126       124       122       125       127
       124       122       125       128       125       128       131       132
       125       128       131       133       125       128       131       134
       126       125       128       129       126       125       128       130
       126       125       128       131       127       125       128       129
       127       125       128       130       127       125       128       131
       129       128       131       132       129       128       131       133
       129       128       131       134       130       128       131       132
       130       128       131       133       130       128       131       134
       135       139       141       142       135       139       141       143
       135       139       144       145       135       139       144       146
       135       139       144       150       136       135       139       140
       136       135       139       141       136       135       139       144
       137       135       139       140       137       135       139       141
       137       135       139       144       138       135       139       140
       138       135       139       141       138       135       139       144
       139       144       150       147       140       139       141       142
       140       139       141       143       140       139       144       145
       140       139       144       146       140       139       144       150
       141       139       144       145       141       139       144       146
       141       139       144       150       142       141       139       144
       143       141       139       144       144       150       147       148
       144       150       147       149       144       150       147       151
       145       144       150       147       146       144       150       147
       147       151       152       153       147       151       152       154
       147       151       152       155       148       147       151       152
       149       147       151       152       150       147       151       152
       151       152       155       156       151       152       155       157
       151       152       155       163       152       155       157       158
       152       155       163       164       152       155       163       165
       152       155       163       166       153       152       155       156
       153       152       155       157       153       152       155       163
       154       152       155       156       154       152       155       157
       154       152       155       163       155       157       158       159
       155       157       158       160       155       163       166       167
       156       155       157       158       156       155       163       164
       156       155       163       165       156       155       163       166
       157       155       163       164       157       155       163       165
       157       155       163       166       157       158       160       161
       157       158       160       162       157       158       160       172
       158       157       155       163       158       160       172       173
       158       160       172       174       158       160       172       175
       159       158       160       161       159       158       160       162
       159       158       160       172       160       172       175       176
       160       172       175       177       160       172       175       178
       161       160       172       173       161       160       172       174
       161       160       172       175       162       160       172       173
       162       160       172       174       162       160       172       175
       163       166       167       168       163       166       167       169
       164       163       166       167       165       163       166       167
       166       167       169       170       166       167       169       171
       166       167       169       219       167       169       219       220
       167       169       219       221       167       169       219       222
       168       167       169       170       168       167       169       171
       168       167       169       219       169       219       222       223
       169       219       222       224       169       219       222       225
       170       169       219       220       170       169       219       221
       170       169       219       222       171       169       219       220
       171       169       219       221       171       169       219       222
       172       175       178       179       172       175       178       180
       172       175       178       181       173       172       175       176
       173       172       175       177       173       172       175       178
       174       172       175       176       174       172       175       177
       174       172       175       178       175       178       181       182
       175       178       181       183       175       178       181       184
       176       175       178       179       176       175       178       180
       176       175       178       181       177       175       178       179
       177       175       178       180       177       175       178       181
       178       181       184       185       178       181       184       186
       178       181       184       187       179       178       181       182
       179       178       181       183       179       178       181       184
       180       178       181       182       180       178       181       183
       180       178       181       184       181       184       187       188
       181       184       187       189       181       184       187       190
       182       181       184       185       182       181       184       186
       182       181       184       187       183       181       184       185
       183       181       184       186       183       181       184       187
       184       187       190       191       184       187       190       192
       185       184       187       188       185       184       187       189
       185       184       187       190       186       184       187       188
       186       184       187       189       186       184       187       190
       187       190       192       193       187       190       192       194
       188       187       190       191       188       187       190       192
       189       187       190       191       189       187       190       192
       190       192       194       195       190       192       194       196
       190       192       194       197       191       190       192       193
       191       190       192       194       192       194       197       198
       192       194       197       199       192       194       197       200
       193       192       194       195       193       192       194       196
       193       192       194       197       194       197       200       201
       194       197       200       202       194       197       200       203
       195       194       197       198       195       194       197       199
       195       194       197       200       196       194       197       198
       196       194       197       199       196       194       197       200
       197       200       203       204       197       200       203       205
       197       200       203       206       198       197       200       201
       198       197       200       202       198       197       200       203
       199       197       200       201       199       197       200       202
       199       197       200       203       200       203       206       207
       200       203       206       208       200       203       206       209
       201       200       203       204       201       200       203       205
       201       200       203       206       202       200       203       204
       202       200       203       205       202       200       203       206
       203       206       209       210       203       206       209       211
       203       206       209       212       204       203       206       207
       204       203       206       208       204       203       206       209
       205       203       206       207       205       203       206       208
       205       203       206       209       206       209       212       213
       206       209       212       214       206       209       212       215
       207       206       209       210       207       206       209       211
       207       206       209       212       208       206       209       210
       208       206       209       211       208       206       209       212
       209       212       215       216       209       212       215       217
       209       212       215       218       210       209       212       213
       210       209       212       214       210       209       212       215
       211       209       212       213       211       209       212       214
       211       209       212       215       213       212       215       216
       213       212       215       217       213       212       215       218
       214       212       215       216       214       212       215       217
       214       212       215       218       219       222       225       226
       219       222       225       227       219       222       225       228
       220       219       222       223       220       219       222       224
       220       219       222       225       221       219       222       223
       221       219       222       224       221       219       222       225
       222       225       228       229       222       225       228       230
       222       225       228       231       223       222       225       226
       223       222       225       227       223       222       225       228
       224       222       225       226       224       222       225       227
       224       222       225       228       225       228       231       232
       225       228       231       233       225       228       231       234
       226       225       228       229       226       225       228       230
       226       225       228       231       227       225       228       229
       227       225       228       230       227       225       228       231
       228       231       234       235       228       231       234       236
       228       231       234       237       229       228       231       232
       229       228       231       233       229       228       231       234
       230       228       231       232       230       228       231       233
       230       228       231       234       231       234       237       238
       231       234       237       239       231       234       237       240
       232       231       234       235       232       231       234       236
       232       231       234       237       233       231       234       235
       233       231       234       236       233       231       234       237
       234       237       240       241       234       237       240       242
       234       237       240       243       235       234       237       238
       235       234       237       239       235       234       237       240
       236       234       237       238       236       234       237       239
       236       234       237       240       237       240       243       244
       237       240       243       245       237       240       243       246
       238       237       240       241       238       237       240       242
       238       237       240       243       239       237       240       241
       239       237       240       242       239       237       240       243
       240       243       246       247       240       243       246       248
       240       243       246       249       241       240       243       244
       241       240       243       245       241       240       243       246
       242       240       243       244       242       240       243       245
       242       240       243       246       243       246       249       250
       243       246       249       251       243       246       249       252
       244       243       246       247       244       243       246       248
       244       243       246       249       245       243       246       247
       245       243       246       248       245       243       246       249
       246       249       252       253       246       249       252       254
       246       249       252       255       247       246       249       250
       247       246       249       251       247       246       249       252
       248       246       249       250       248       246       249       251
       248       246       249       252       249       252       255       256
       249       252       255       257       249       252       255       258
       250       249       252       253       250       249       252       254
       250       249       252       255       251       249       252       253
       251       249       252       254       251       249       252       255
       252       255       258       259       252       255       258       260
       252       255       258       261       253       252       255       256
       253       252       255       257       253       252       255       258
       254       252       255       256       254       252       255       257
       254       252       255       258       256       255       258       259
       256       255       258       260       256       255       258       261
       257       255       258       259       257       255       258       260
       257       255       258       261       262       263       278       279
       262       263       278       280       262       263       278       284
       263       262       266       267       263       262       266       268
       263       262       266       269       263       262       270       271
       263       262       270       272       263       262       270       273
       263       262       274       275       263       262       274       276
       263       262       274       277       263       278       284       281
       264       263       262       266       264       263       262       270
       264       263       262       274       264       263       278       279
       264       263       278       280       264       263       278       284
       265       263       262       266       265       263       262       270
       265       263       262       274       265       263       278       279
       265       263       278       280       265       263       278       284
       266       262       263       278       266       262       270       271
       266       262       270       272       266       262       270       273
       266       262       274       275       266       262       274       276
       266       262       274       277       267       266       262       270
       267       266       262       274       268       266       262       270
       268       266       262       274       269       266       262       270
       269       266       262       274       270       262       263       278
       270       262       274       275       270       262       274       276
       270       262       274       277       271       270       262       274
       272       270       262       274       273       270       262       274
       274       262       263       278       278       284       281       282
       278       284       281       283       278       284       281       285
       279       278       284       281       280       278       284       281
       281       285       286       287       281       285       286       288
       281       285       286       289       282       281       285       286
       283       281       285       286       284       281       285       286
       285       286       289       290       285       286       289       291
       285       286       289       297       286       289       291       292
       286       289       297       298       286       289       297       299
       286       289       297       300       287       286       289       290
       287       286       289       291       287       286       289       297
       288       286       289       290       288       286       289       291
       288       286       289       297       289       291       292       293
       289       291       292       294       289       297       300       301
       290       289       291       292       290       289       297       298
       290       289       297       299       290       289       297       300
       291       289       297       298       291       289       297       299
       291       289       297       300       291       292       294       295
       291       292       294       296       291       292       294       306
       292       291       289       297       292       294       306       307
       292       294       306       308       292       294       306       309
       293       292       294       295       293       292       294       296
       293       292       294       306       294       306       309       310
       294       306       309       311       294       306       309       312
       295       294       306       307       295       294       306       308
       295       294       306       309       296       294       306       307
       296       294       306       308       296       294       306       309
       297       300       301       302       297       300       301       303
       298       297       300       301       299       297       300       301
       300       301       303       304       300       301       303       305
       300       301       303       353       301       303       353       354
       301       303       353       355       301       303       353       356
       302       301       303       304       302       301       303       305
       302       301       303       353       303       353       356       357
       303       353       356       358       303       353       356       359
       304       303       353       354       304       303       353       355
       304       303       353       356       305       303       353       354
       305       303       353       355       305       303       353       356
       306       309       312       313       306       309       312       314
       306       309       312       315       307       306       309       310
       307       306       309       311       307       306       309       312
       308       306       309       310       308       306       309       311
       308       306       309       312       309       312       315       316
       309       312       315       317       309       312       315       318
       310       309       312       313       310       309       312       314
       310       309       312       315       311       309       312       313
       311       309       312       314       311       309       312       315
       312       315       318       319       312       315       318       320
       312       315       318       321       313       312       315       316
       313       312       315       317       313       312       315       318
       314       312       315       316       314       312       315       317
       314       312       315       318       315       318       321       322
       315       318       321       323       315       318       321       324
       316       315       318       319       316       315       318       320
       316       315       318       321       317       315       318       319
       317       315       318       320       317       315       318       321
       318       321       324       325       318       321       324       326
       319       318       321       322       319       318       321       323
       319       318       321       324       320       318       321       322
       320       318       321       323       320       318       321       324
       321       324       326       327       321       324       326       328
       322       321       324       325       322       321       324       326
       323       321       324       325       323       321       324       326
       324       326       328       329       324       326       328       330
       324       326       328       331       325       324       326       327
       325       324       326       328       326       328       331       332
       326       328       331       333       326       328       331       334
       327       326       328       329       327       326       328       330
       327       326       328       331       328       331       334       335
       328       331       334       336       328       331       334       337
       329       328       331       332       329       328       331       333
       329       328       331       334       330       328       331       332
       330       328       331       333       330       328       331       334
       331       334       337       338       331       334       337       339
       331       334       337       340       332       331       334       335
       332       331       334       336       332       331       334       337
       333       331       334       335       333       331       334       336
       333       331       334       337       334       337       340       341
       334       337       340       342       334       337       340       343
       335       334       337       338       335       334       337       339
       335       334       337       340       336       334       337       338
       336       334       337       339       336       334       337       340
       337       340       343       344       337       340       343       345
       337       340       343       346       338       337       340       341
       338       337       340       342       338       337       340       343
       339       337       340       341       339       337       340       342
       339       337       340       343       340       343       346       347
       340       343       346       348       340       343       346       349
       341       340       343       344       341       340       343       345
       341       340       343       346       342       340       343       344
       342       340       343       345       342       340       343       346
       343       346       349       350       343       346       349       351
       343       346       349       352       344       343       346       347
       344       343       346       348       344       343       346       349
       345       343       346       347       345       343       346       348
       345       343       346       349       347       346       349       350
       347       346       349       351       347       346       349       352
       348       346       349       350       348       346       349       351
       348       346       349       352       353       356       359       360
       353       356       359       361       353       356       359       362
       354       353       356       357       354       353       356       358
       354       353       356       359       355       353       356       357
       355       353       356       358       355       353       356       359
       356       359       362       363       356       359       362       364
       356       359       362       365       357       356       359       360
       357       356       359       361       357       356       359       362
       358       356       359       360       358       356       359       361
       358       356       359       362       359       362       365       366
       359       362       365       367       359       362       365       368
       360       359       362       363       360       359       362       364
       360       359       362       365       361       359       362       363
       361       359       362       364       361       359       362       365
       362       365       368       369       362       365       368       370
       362       365       368       371       363       362       365       366
       363       362       365       367       363       362       365       368
       364       362       365       366       364       362       365       367
       364       362       365       368       365       368       371       372
       365       368       371       373       365       368       371       374
       366       365       368       369       366       365       368       370
       366       365       368       371       367       365       368       369
       367       365       368       370       367       365       368       371
       368       371       374       375       368       371       374       376
       368       371       374       377       369       368       371       372
       369       368       371       373       369       368       371       374
       370       368       371       372       370       368       371       373
       370       368       371       374       371       374       377       378
       371       374       377       379       371       374       377       380
       372       371       374       375       372       371       374       376
       372       371       374       377       373       371       374       375
       373       371       374       376       373       371       374       377
       374       377       380       381       374       377       380       382
       374       377       380       383       375       374       377       378
       375       374       377       379       375       374       377       380
       376       374       377       378       376       374       377       379
       376       374       377       380       377       380       383       384
       377       380       383       385       377       380       383       386
       378       377       380       381       378       377       380       382
       378       377       380       383       379       377       380       381
       379       377       380       382       379       377       380       383
       380       383       386       387       380       383       386       388
       380       383       386       389       381       380       383       384
       381       380       383       385       381       380       383       386
       382       380       383       384       382       380       383       385
       382       380       383       386       383       386       389       390
       383       386       389       391       383       386       389       392
       384       383       386       387       384       383       386       388
       384       383       386       389       385       383       386       387
       385       383       386       388       385       383       386       389
       386       389       392       393       386       389       392       394
       386       389       392       395       387       386       389       390
       387       386       389       391       387       386       389       392
       388       386       389       390       388       386       389       391
       388       386       389       392       390       389       392       393
       390       389       392       394       390       389       392       395
       391       389       392       393       391       389       392       394
       391       389       392       395       396       397       412       413
       396       397       412       414       396       397       412       418
       397       396       400       401       397       396       400       402
       397       396       400       403       397       396       404       405
       397       396       404       406       397       396       404       407
       397       396       408       409       397       396       408       410
       397       396       408       411       397       412       418       415
       398       397       396       400       398       397       396       404
       398       397       396       408       398       397       412       413
       398       397       412       414       398       397       412       418
       399       397       396       400       399       397       396       404
       399       397       396       408       399       397       412       413
       399       397       412       414       399       397       412       418
       400       396       397       412       400       396       404       405
       400       396       404       406       400       396       404       407
       400       396       408       409       400       396       408       410
       400       396       408       411       401       400       396       404
       401       400       396       408       402       400       396       404
       402       400       396       408       403       400       396       404
       403       400       396       408       404       396       397       412
       404       396       408       409       404       396       408       410
       404       396       408       411       405       404       396       408
       406       404       396       408       407       404       396       408
       408       396       397       412       412       418       415       416
       412       418       415       417       412       418       415       419
       413       412       418       415       414       412       418       415
       415       419       420       421       415       419       420       422
       415       419       420       423       416       415       419       420
       417       415       419       420       418       415       419       420
       419       420       423       424       419       420       423       425
       419       420       423       431       420       423       425       426
       420       423       431       432       420       423       431       433
       420       423       431       434       421       420       423       424
       421       420       423       425       421       420       423       431
       422       420       423       424       422       420       423       425
       422       420       423       431       423       425       426       427
       423       425       426       428       423       431       434       435
       424       423       425       426       424       423       431       432
       424       423       431       433       424       423       431       434
       425       423       431       432       425       423       431       433
       425       423       431       434       425       426       428       429
       425       426       428       430       425       426       428       440
       426       425       423       431       426       428       440       441
       426       428       440       442       426       428       440       443
       427       426       428       429       427       426       428       430
       427       426       428       440       428       440       443       444
       428       440       443       445       428       440       443       446
       429       428       440       441       429       428       440       442
       429       428       440       443       430       428       440       441
       430       428       440       442       430       428       440       443
       431       434       435       436       431       434       435       437
       432       431       434       435       433       431       434       435
       434       435       437       438       434       435       437       439
       434       435       437       487       435       437       487       488
       435       437       487       489       435       437       487       490
       436       435       437       438       436       435       437       439
       436       435       437       487       437       487       490       491
       437       487       490       492       437       487       490       493
       438       437       487       488       438       437       487       489
       438       437       487       490       439       437       487       488
       439       437       487       489       439       437       487       490
       440       443       446       447       440       443       446       448
       440       443       446       449       441       440       443       444
       441       440       443       445       441       440       443       446
       442       440       443       444       442       440       443       445
       442       440       443       446       443       446       449       450
       443       446       449       451       443       446       449       452
       444       443       446       447       444       443       446       448
       444       443       446       449       445       443       446       447
       445       443       446       448       445       443       446       449
       446       449       452       453       446       449       452       454
       446       449       452       455       447       446       449       450
       447       446       449       451       447       446       449       452
       448       446       449       450       448       446       449       451
       448       446       449       452       449       452       455       456
       449       452       455       457       449       452       455       458
       450       449       452       453       450       449       452       454
       450       449       452       455       451       449       452       453
       451       449       452       454       451       449       452       455
       452       455       458       459       452       455       458       460
       453       452       455       456       453       452       455       457
       453       452       455       458       454       452       455       456
       454       452       455       457       454       452       455       458
       455       458       460       461       455       458       460       462
       456       455       458       459       456       455       458       460
       457       455       458       459       457       455       458       460
       458       460       462       463       458       460       462       464
       458       460       462       465       459       458       460       461
       459       458       460       462       460       462       465       466
       460       462       465       467       460       462       465       468
       461       460       462       463       461       460       462       464
       461       460       462       465       462       465       468       469
       462       465       468       470       462       465       468       471
       463       462       465       466       463       462       465       467
       463       462       465       468       464       462       465       466
       464       462       465       467       464       462       465       468
       465       468       471       472       465       468       471       473
       465       468       471       474       466       465       468       469
       466       465       468       470       466       465       468       471
       467       465       468       469       467       465       468       470
       467       465       468       471       468       471       474       475
       468       471       474       476       468       471       474       477
       469       468       471       472       469       468       471       473
       469       468       471       474       470       468       471       472
       470       468       471       473       470       468       471       474
       471       474       477       478       471       474       477       479
       471       474       477       480       472       471       474       475
       472       471       474       476       472       471       474       477
       473       471       474       475       473       471       474       476
       473       471       474       477       474       477       480       481
       474       477       480       482       474       477       480       483
       475       474       477       478       475       474       477       479
       475       474       477       480       476       474       477       478
       476       474       477       479       476       474       477       480
       477       480       483       484       477       480       483       485
       477       480       483       486       478       477       480       481
       478       477       480       482       478       477       480       483
       479       477       480       481       479       477       480       482
       479       477       480       483       481       480       483       484
       481       480       483       485       481       480       483       486
       482       480       483       484       482       480       483       485
       482       480       483       486       487       490       493       494
       487       490       493       495       487       490       493       496
       488       487       490       491       488       487       490       492
       488       487       490       493       489       487       490       491
       489       487       490       492       489       487       490       493
       490       493       496       497       490       493       496       498
       490       493       496       499       491       490       493       494
       491       490       493       495       491       490       493       496
       492       490       493       494       492       490       493       495
       492       490       493       496       493       496       499       500
       493       496       499       501       493       496       499       502
       494       493       496       497       494       493       496       498
       494       493       496       499       495       493       496       497
       495       493       496       498       495       493       496       499
       496       499       502       503       496       499       502       504
       496       499       502       505       497       496       499       500
       497       496       499       501       497       496       499       502
       498       496       499       500       498       496       499       501
       498       496       499       502       499       502       505       506
       499       502       505       507       499       502       505       508
       500       499       502       503       500       499       502       504
       500       499       502       505       501       499       502       503
       501       499       502       504       501       499       502       505
       502       505       508       509       502       505       508       510
       502       505       508       511       503       502       505       506
       503       502       505       507       503       502       505       508
       504       502       505       506       504       502       505       507
       504       502       505       508       505       508       511       512
       505       508       511       513       505       508       511       514
       506       505       508       509       506       505       508       510
       506       505       508       511       507       505       508       509
       507       505       508       510       507       505       508       511
       508       511       514       515       508       511       514       516
       508       511       514       517       509       508       511       512
       509       508       511       513       509       508       511       514
       510       508       511       512       510       508       511       513
       510       508       511       514       511       514       517       518
       511       514       517       519       511       514       517       520
       512       511       514       515       512       511       514       516
       512       511       514       517       513       511       514       515
       513       511       514       516       513       511       514       517
       514       517       520       521       514       517       520       522
       514       517       520       523       515       514       517       518
       515       514       517       519       515       514       517       520
       516       514       517       518       516       514       517       519
       516       514       517       520       517       520       523       524
       517       520       523       525       517       520       523       526
       518       517       520       521       518       517       520       522
       518       517       520       523       519       517       520       521
       519       517       520       522       519       517       520       523
       520       523       526       527       520       523       526       528
       520       523       526       529       521       520       523       524
       521       520       523       525       521       520       523       526
       522       520       523       524       522       520       523       525
       522       520       523       526       524       523       526       527
       524       523       526       528       524       523       526       529
       525       523       526       527       525       523       526       528
       525       523       526       529       530       531       546       547
       530       531       546       548       530       531       546       552
       531       530       534       535       531       530       534       536
       531       530       534       537       531       530       538       539
       531       530       538       540       531       530       538       541
       531       530       542       543       531       530       542       544
       531       530       542       545       531       546       552       549
       532       531       530       534       532       531       530       538
       532       531       530       542       532       531       546       547
       532       531       546       548       532       531       546       552
       533       531       530       534       533       531       530       538
       533       531       530       542       533       531       546       547
       533       531       546       548       533       531       546       552
       534       530       531       546       534       530       538       539
       534       530       538       540       534       530       538       541
       534       530       542       543       534       530       542       544
       534       530       542       545       535       534       530       538
       535       534       530       542       536       534       530       538
       536       534       530       542       537       534       530       538
       537       534       530       542       538       530       531       546
       538       530       542       543       538       530       542       544
       538       530       542       545       539       538       530       542
       540       538       530       542       541       538       530       542
       542       530       531       546       546       552       549       550
       546       552       549       551       546       552       549       553
       547       546       552       549       548       546       552       549
       549       553       554       555       549       553       554       556
       549       553       554       557       550       549       553       554
       551       549       553       554       552       549       553       554
       553       554       557       558       553       554       557       559
       553       554       557       565       554       557       559       560
       554       557       565       566       554       557       565       567
       554       557       565       568       555       554       557       558
       555       554       557       559       555       554       557       565
       556       554       557       558       556       554       557       559
       556       554       557       565       557       559       560       561
       557       559       560       562       557       565       568       569
       558       557       559       560       558       557       565       566
       558       557       565       567       558       557       565       568
       559       557       565       566       559       557       565       567
       559       557       565       568       559       560       562       563
       559       560       562       564       559       560       562       574
       560       559       557       565       560       562       574       575
       560       562       574       576       560       562       574       577
       561       560       562       563       561       560       562       564
       561       560       562       574       562       574       577       578
       562       574       577       579       562       574       577       580
       563       562       574       575       563       562       574       576
       563       562       574       577       564       562       574       575
       564       562       574       576       564       562       574       577
       565       568       569       570       565       568       569       571
       566       565       568       569       567       565       568       569
       568       569       571       572       568       569       571       573
       568       569       571       621       569       571       621       622
       569       571       621       623       569       571       621       624
       570       569       571       572       570       569       571       573
       570       569       571       621       571       621       624       625
       571       621       624       626       571       621       624       627
       572       571       621       622       572       571       621       623
       572       571       621       624       573       571       621       622
       573       571       621       623       573       571       621       624
       574       577       580       581       574       577       580       582
       574       577       580       583       575       574       577       578
       575       574       577       579       575       574       577       580
       576       574       577       578       576       574       577       579
       576       574       577       580       577       580       583       584
       577       580       583       585       577       580       583       586
       578       577       580       581       578       577       580       582
       578       577       580       583       579       577       580       581
       579       577       580       582       579       577       580       583
       580       583       586       587       580       583       586       588
       580       583       586       589       581       580       583       584
       581       580       583       585       581       580       583       586
       582       580       583       584       582       580       583       585
       582       580       583       586       583       586       589       590
       583       586       589       591       583       586       589       592
       584       583       586       587       584       583       586       588
       584       583       586       589       585       583       586       587
       585       583       586       588       585       583       586       589
       586       589       592       593       586       589       592       594
       587       586       589       590       587       586       589       591
       587       586       589       592       588       586       589       590
       588       586       589       591       588       586       589       592
       589       592       594       595       589       592       594       596
       590       589       592       593       590       589       592       594
       591       589       592       593       591       589       592       594
       592       594       596       597       592       594       596       598
       592       594       596       599       593       592       594       595
       593       592       594       596       594       596       599       600
       594       596       599       601       594       596       599       602
       595       594       596       597       595       594       596       598
       595       594       596       599       596       599       602       603
       596       599       602       604       596       599       602       605
       597       596       599       600       597       596       599       601
       597       596       599       602       598       596       599       600
       598       596       599       601       598       596       599       602
       599       602       605       606       599       602       605       607
       599       602       605       608       600       599       602       603
       600       599       602       604       600       599       602       605
       601       599       602       603       601       599       602       604
       601       599       602       605       602       605       608       609
       602       605       608       610       602       605       608       611
       603       602       605       606       603       602       605       607
       603       602       605       608       604       602       605       606
       604       602       605       607       604       602       605       608
       605       608       611       612       605       608       611       613
       605       608       611       614       606       605       608       609
       606       605       608       610       606       605       608       611
       607       605       608       609       607       605       608       610
       607       605       608       611       608       611       614       615
       608       611       614       616       608       611       614       617
       609       608       611       612       609       608       611       613
       609       608       611       614       610       608       611       612
       610       608       611       613       610       608       611       614
       611       614       617       618       611       614       617       619
       611       614       617       620       612       611       614       615
       612       611       614       616       612       611       614       617
       613       611       614       615       613       611       614       616
       613       611       614       617       615       614       617       618
       615       614       617       619       615       614       617       620
       616       614       617       618       616       614       617       619
       616       614       617       620       621       624       627       628
       621       624       627       629       621       624       627       630
       622       621       624       625       622       621       624       626
       622       621       624       627       623       621       624       625
       623       621       624       626       623       621       624       627
       624       627       630       631       624       627       630       632
       624       627       630       633       625       624       627       628
       625       624       627       629       625       624       627       630
       626       624       627       628       626       624       627       629
       626       624       627       630       627       630       633       634
       627       630       633       635       627       630       633       636
       628       627       630       631       628       627       630       632
       628       627       630       633       629       627       630       631
       629       627       630       632       629       627       630       633
       630       633       636       637       630       633       636       638
       630       633       636       639       631       630       633       634
       631       630       633       635       631       630       633       636
       632       630       633       634       632       630       633       635
       632       630       633       636       633       636       639       640
       633       636       639       641       633       636       639       642
       634       633       636       637       634       633       636       638
       634       633       636       639       635       633       636       637
       635       633       636       638       635       633       636       639
       636       639       642       643       636       639       642       644
       636       639       642       645       637       636       639       640
       637       636       639       641       637       636       639       642
       638       636       639       640       638       636       639       641
       638       636       639       642       639       642       645       646
       639       642       645       647       639       642       645       648
       640       639       642       643       640       639       642       644
       640       639       642       645       641       639       642       643
       641       639       642       644       641       639       642       645
       642       645       648       649       642       645       648       650
       642       645       648       651       643       642       645       646
       643       642       645       647       643       642       645       648
       644       642       645       646       644       642       645       647
       644       642       645       648       645       648       651       652
       645       648       651       653       645       648       651       654
       646       645       648       649       646       645       648       650
       646       645       648       651       647       645       648       649
       647       645       648       650       647       645       648       651
       648       651       654       655       648       651       654       656
       648       651       654       657       649       648       651       652
       649       648       651       653       649       648       651       654
       650       648       651       652       650       648       651       653
       650       648       651       654       651       654       657       658
       651       654       657       659       651       654       657       660
       652       651       654       655       652       651       654       656
       652       651       654       657       653       651       654       655
       653       651       654       656       653       651       654       657
       654       657       660       661       654       657       660       662
       654       657       660       663       655       654       657       658
       655       654       657       659       655       654       657       660
       656       654       657       658       656       654       657       659
       656       654       657       660       658       657       660       661
       658       657       660       662       658       657       660       663
       659       657       660       661       659       657       660       662
       659       657       660       663       664       665       680       681
       664       665       680       682       664       665       680       686
       665       664       668       669       665       664       668       670
       665       664       668       671       665       664       672       673
       665       664       672       674       665       664       672       675
       665       664       676       677       665       664       676       678
       665       664       676       679       665       680       686       683
       666       665       664       668       666       665       664       672
       666       665       664       676       666       665       680       681
       666       665       680       682       666       665       680       686
       667       665       664       668       667       665       664       672
       667       665       664       676       667       665       680       681
       667       665       680       682       667       665       680       686
       668       664       665       680       668       664       672       673
       668       664       672       674       668       664       672       675
       668       664       676       677       668       664       676       678
       668       664       676       679       669       668       664       672
       669       668       664       676       670       668       664       672
       670       668       664       676       671       668       664       672
       671       668       664       676       672       664       665       680
       672       664       676       677       672       664       676       678
       672       664       676       679       673       672       664       676
       674       672       664       676       675       672       664       676
       676       664       665       680       680       686       683       684
       680       686       683       685       680       686       683       687
       681       680       686       683       682       680       686       683
       683       687       688       689       683       687       688       690
       683       687       688       691       684       683       687       688
       685       683       687       688       686       683       687       688
       687       688       691       692       687       688       691       693
       687       688       691       699       688       691       693       694
       688       691       699       700       688       691       699       701
       688       691       699       702       689       688       691       692
       689       688       691       693       689       688       691       699
       690       688       691       692       690       688       691       693
       690       688       691       699       691       693       694       695
       691       693       694       696       691       699       702       703
       692       691       693       694       692       691       699       700
       692       691       699       701       692       691       699       702
       693       691       699       700       693       691       699       701
       693       691       699       702       693       694       696       697
       693       694       696       698       693       694       696       708
       694       693       691       699       694       696       708       709
       694       696       708       710       694       696       708       711
       695       694       696       697       695       694       696       698
       695       694       696       708       696       708       711       712
       696       708       711       713       696       708       711       714
       697       696       708       709       697       696       708       710
       697       696       708       711       698       696       708       709
       698       696       708       710       698       696       708       711
       699       702       703       704       699       702       703       705
       700       699       702       703       701       699       702       703
       702       703       705       706       702       703       705       707
       702       703       705       755       703       705       755       756
       703       705       755       757       703       705       755       758
       704       703       705       706       704       703       705       707
       704       703       705       755       705       755       758       759
       705       755       758       760       705       755       758       761
       706       705       755       756       706       705       755       757
       706       705       755       758       707       705       755       756
       707       705       755       757       707       705       755       758
       708       711       714       715       708       711       714       716
       708       711       714       717       709       708       711       712
       709       708       711       713       709       708       711       714
       710       708       711       712       710       708       711       713
       710       708       711       714       711       714       717       718
       711       714       717       719       711       714       717       720
       712       711       714       715       712       711       714       716
       712       711       714       717       713       711       714       715
       713       711       714       716       713       711       714       717
       714       717       720       721       714       717       720       722
       714       717       720       723       715       714       717       718
       715       714       717       719       715       714       717       720
       716       714       717       718       716       714       717       719
       716       714       717       720       717       720       723       724
       717       720       723       725       717       720       723       726
       718       717       720       721       718       717       720       722
       718       717       720       723       719       717       720       721
       719       717       720       722       719       717       720       723
       720       723       726       727       720       723       726       728
       721       720       723       724       721       720       723       725
       721       720       723       726       722       720       723       724
       722       720       723       725       722       720       723       726
       723       726       728       729       723       726       728       730
       724       723       726       727       724       723       726       728
       725       723       726       727       725       723       726       728
       726       728       730       731       726       728       730       732
       726       728       730       733       727       726       728       729
       727       726       728       730       728       730       733       734
       728       730       733       735       728       730       733       736
       729       728       730       731       729       728       730       732
       729       728       730       733       730       733       736       737
       730       733       736       738       730       733       736       739
       731       730       733       734       731       730       733       735
       731       730       733       736       732       730       733       734
       732       730       733       735       732       730       733       736
       733       736       739       740       733       736       739       741
       733       736       739       742       734       733       736       737
       734       733       736       738       734       733       736       739
       735       733       736       737       735       733       736       738
       735       733       736       739       736       739       742       743
       736       739       742       744       736       739       742       745
       737       736       739       740       737       736       739       741
       737       736       739       742       738       736       739       740
       738       736       739       741       738       736       739       742
       739       742       745       746       739       742       745       747
       739       742       745       748       740       739       742       743
       740       739       742       744       740       739       742       745
       741       739       742       743       741       739       742       744
       741       739       742       745       742       745       748       749
       742       745       748       750       742       745       748       751
       743       742       745       746       743       742       745       747
       743       742       745       748       744       742       745       746
       744       742       745       747       744       742       745       748
       745       748       751       752       745       748       751       753
       745       748       751       754       746       745       748       749
       746       745       748       750       746       745       748       751
       747       745       748       749       747       745       748       750
       747       745       748       751       749       748       751       752
       749       748       751       753       749       748       751       754
       750       748       751       752       750       748       751       753
       750       748       751       754       755       758       761       762
       755       758       761       763       755       758       761       764
       756       755       758       759       756       755       758       760
       756       755       758       761       757       755       758       759
       757       755       758       760       757       755       758       761
       758       761       764       765       758       761       764       766
       758       761       764       767       759       758       761       762
       759       758       761       763       759       758       761       764
       760       758       761       762       760       758       761       763
       760       758       761       764       761       764       767       768
       761       764       767       769       761       764       767       770
       762       761       764       765       762       761       764       766
       762       761       764       767       763       761       764       765
       763       761       764       766       763       761       764       767
       764       767       770       771       764       767       770       772
       764       767       770       773       765       764       767       768
       765       764       767       769       765       764       767       770
       766       764       767       768       766       764       767       769
       766       764       767       770       767       770       773       774
       767       770       773       775       767       770       773       776
       768       767       770       771       768       767       770       772
       768       767       770       773       769       767       770       771
       769       767       770       772       769       767       770       773
       770       773       776       777       770       773       776       778
       770       773       776       779       771       770       773       774
       771       770       773       775       771       770       773       776
       772       770       773       774       772       770       773       775
       772       770       773       776       773       776       779       780
       773       776       779       781       773       776       779       782
       774       773       776       777       774       773       776       778
       774       773       776       779       775       773       776       777
       775       773       776       778       775       773       776       779
       776       779       782       783       776       779       782       784
       776       779       782       785       777       776       779       780
       777       776       779       781       777       776       779       782
       778       776       779       780       778       776       779       781
       778       776       779       782       779       782       785       786
       779       782       785       787       779       782       785       788
       780       779       782       783       780       779       782       784
       780       779       782       785       781       779       782       783
       781       779       782       784       781       779       782       785
       782       785       788       789       782       785       788       790
       782       785       788       791       783       782       785       786
       783       782       785       787       783       782       785       788
       784       782       785       786       784       782       785       787
       784       782       785       788       785       788       791       792
       785       788       791       793       785       788       791       794
       786       785       788       789       786       785       788       790
       786       785       788       791       787       785       788       789
       787       785       788       790       787       785       788       791
       788       791       794       795       788       791       794       796
       788       791       794       797       789       788       791       792
       789       788       791       793       789       788       791       794
       790       788       791       792       790       788       791       793
       790       788       791       794       792       791       794       795
       792       791       794       796       792       791       794       797
       793       791       794       795       793       791       794       796
       793       791       794       797       798       799       814       815
       798       799       814       816       798       799       814       820
       799       798       802       803       799       798       802       804
       799       798       802       805       799       798       806       807
       799       798       806       808       799       798       806       809
       799       798       810       811       799       798       810       812
       799       798       810       813       799       814       820       817
       800       799       798       802       800       799       798       806
       800       799       798       810       800       799       814       815
       800       799       814       816       800       799       814       820
       801       799       798       802       801       799       798       806
       801       799       798       810       801       799       814       815
       801       799       814       816       801       799       814       820
       802       798       799       814       802       798       806       807
       802       798       806       808       802       798       806       809
       802       798       810       811       802       798       810       812
       802       798       810       813       803       802       798       806
       803       802       798       810       804       802       798       806
       804       802       798       810       805       802       798       806
       805       802       798       810       806       798       799       814
       806       798       810       811       806       798       810       812
       806       798       810       813       807       806       798       810
       808       806       798       810       809       806       798       810
       810       798       799       814       814       820       817       818
       814       820       817       819       814       820       817       821
       815       814       820       817       816       814       820       817
       817       821       822       823       817       821       822       824
       817       821       822       825       818       817       821       822
       819       817       821       822       820       817       821       822
       821       822       825       826       821       822       825       827
       821       822       825       833       822       825       827       828
       822       825       833       834       822       825       833       835
       822       825       833       836       823       822       825       826
       823       822       825       827       823       822       825       833
       824       822       825       826       824       822       825       827
       824       822       825       833       825       827       828       829
       825       827       828       830       825       833       836       837
       826       825       827       828       826       825       833       834
       826       825       833       835       826       825       833       836
       827       825       833       834       827       825       833       835
       827       825       833       836       827       828       830       831
       827       828       830       832       827       828       830       842
       828       827       825       833       828       830       842       843
       828       830       842       844       828       830       842       845
       829       828       830       831       829       828       830       832
       829       828       830       842       830       842       845       846
       830       842       845       847       830       842       845       848
       831       830       842       843       831       830       842       844
       831       830       842       845       832       830       842       843
       832       830       842       844       832       830       842       845
       833       836       837       838       833       836       837       839
       834       833       836       837       835       833       836       837
       836       837       839       840       836       837       839       841
       836       837       839       889       837       839       889       890
       837       839       889       891       837       839       889       892
       838       837       839       840       838       837       839       841
       838       837       839       889       839       889       892       893
       839       889       892       894       839       889       892       895
       840       839       889       890       840       839       889       891
       840       839       889       892       841       839       889       890
       841       839       889       891       841       839       889       892
       842       845       848       849       842       845       848       850
       842       845       848       851       843       842       845       846
       843       842       845       847       843       842       845       848
       844       842       845       846       844       842       845       847
       844       842       845       848       845       848       851       852
       845       848       851       853       845       848       851       854
       846       845       848       849       846       845       848       850
       846       845       848       851       847       845       848       849
       847       845       848       850       847       845       848       851
       848       851       854       855       848       851       854       856
       848       851       854       857       849       848       851       852
       849       848       851       853       849       848       851       854
       850       848       851       852       850       848       851       853
       850       848       851       854       851       854       857       858
       851       854       857       859       851       854       857       860
       852       851       854       855       852       851       854       856
       852       851       854       857       853       851       854       855
       853       851       854       856       853       851       854       857
       854       857       860       861       854       857       860       862
       855       854       857       858       855       854       857       859
       855       854       857       860       856       854       857       858
       856       854       857       859       856       854       857       860
       857       860       862       863       857       860       862       864
       858       857       860       861       858       857       860       862
       859       857       860       861       859       857       860       862
       860       862       864       865       860       862       864       866
       860       862       864       867       861       860       862       863
       861       860       862       864       862       864       867       868
       862       864       867       869       862       864       867       870
       863       862       864       865       863       862       864       866
       863       862       864       867       864       867       870       871
       864       867       870       872       864       867       870       873
       865       864       867       868       865       864       867       869
       865       864       867       870       866       864       867       868
       866       864       867       869       866       864       867       870
       867       870       873       874       867       870       873       875
       867       870       873       876       868       867       870       871
       868       867       870       872       868       867       870       873
       869       867       870       871       869       867       870       872
       869       867       870       873       870       873       876       877
       870       873       876       878       870       873       876       879
       871       870       873       874       871       870       873       875
       871       870       873       876       872       870       873       874
       872       870       873       875       872       870       873       876
       873       876       879       880       873       876       879       881
       873       876       879       882       874       873       876       877
       874       873       876       878       874       873       876       879
       875       873       876       877       875       873       876       878
       875       873       876       879       876       879       882       883
       876       879       882       884       876       879       882       885
       877       876       879       880       877       876       879       881
       877       876       879       882       878       876       879       880
       878       876       879       881       878       876       879       882
       879       882       885       886       879       882       885       887
       879       882       885       888       880       879       882       883
       880       879       882       884       880       879       882       885
       881       879       882       883       881       879       882       884
       881       879       882       885       883       882       885       886
       883       882       885       887       883       882       885       888
       884       882       885       886       884       882       885       887
       884       882       885       888       889       892       895       896
       889       892       895       897       889       892       895       898
       890       889       892       893       890       889       892       894
       890       889       892       895       891       889       892       893
       891       889       892       894       891       889       892       895
       892       895       898       899       892       895       898       900
       892       895       898       901       893       892       895       896
       893       892       895       897       893       892       895       898
       894       892       895       896       894       892       895       897
       894       892       895       898       895       898       901       902
       895       898       901       903       895       898       901       904
       896       895       898       899       896       895       898       900
       896       895       898       901       897       895       898       899
       897       895       898       900       897       895       898       901
       898       901       904       905       898       901       904       906
       898       901       904       907       899       898       901       902
       899       898       901       903       899       898       901       904
       900       898       901       902       900       898       901       903
       900       898       901       904       901       904       907       908
       901       904       907       909       901       904       907       910
       902       901       904       905       902       901       904       906
       902       901       904       907       903       901       904       905
       903       901       904       906       903       901       904       907
       904       907       910       911       904       907       910       912
       904       907       910       913       905       904       907       908
       905       904       907       909       905       904       907       910
       906       904       907       908       906       904       907       909
       906       904       907       910       907       910       913       914
       907       910       913       915       907       910       913       916
       908       907       910       911       908       907       910       912
       908       907       910       913       909       907       910       911
       909       907       910       912       909       907       910       913
       910       913       916       917       910       913       916       918
       910       913       916       919       911       910       913       914
       911       910       913       915       911       910       913       916
       912       910       913       914       912       910       913       915
       912       910       913       916       913       916       919       920
       913       916       919       921       913       916       919       922
       914       913       916       917       914       913       916       918
       914       913       916       919       915       913       916       917
       915       913       916       918       915       913       916       919
       916       919       922       923       916       919       922       924
       916       919       922       925       917       916       919       920
       917       916       919       921       917       916       919       922
       918       916       919       920       918       916       919       921
       918       916       919       922       919       922       925       926
       919       922       925       927       919       922       925       928
       920       919       922       923       920       919       922       924
       920       919       922       925       921       919       922       923
       921       919       922       924       921       919       922       925
       922       925       928       929       922       925       928       930
       922       925       928       931       923       922       925       926
       923       922       925       927       923       922       925       928
       924       922       925       926       924       922       925       927
       924       922       925       928       926       925       928       929
       926       925       928       930       926       925       928       931
       927       925       928       929       927       925       928       930
       927       925       928       931       932       933       948       949
       932       933       948       950       932       933       948       954
       933       932       936       937       933       932       936       938
       933       932       936       939       933       932       940       941
       933       932       940       942       933       932       940       943
       933       932       944       945       933       932       944       946
       933       932       944       947       933       948       954       951
       934       933       932       936       934       933       932       940
       934       933       932       944       934       933       948       949
       934       933       948       950       934       933       948       954
       935       933       932       936       935       933       932       940
       935       933       932       944       935       933       948       949
       935       933       948       950       935       933       948       954
       936       932       933       948       936       932       940       941
       936       932       940       942       936       932       940       943
       936       932       944       945       936       932       944       946
       936       932       944       947       937       936       932       940
       937       936       932       944       938       936       932       940
       938       936       932       944       939       936       932       940
       939       936       932       944       940       932       933       948
       940       932       944       945       940       932       944       946
       940       932       944       947       941       940       932       944
       942       940       932       944       943       940       932       944
       944       932       933       948       948       954       951       952
       948       954       951       953       948       954       951       955
       949       948       954       951       950       948       954       951
       951       955       956       957       951       955       956       958
       951       955       956       959       952       951       955       956
       953       951       955       956       954       951       955       956
       955       956       959       960       955       956       959       961
       955       956       959       967       956       959       961       962
       956       959       967       968       956       959       967       969
       956       959       967       970       957       956       959       960
       957       956       959       961       957       956       959       967
       958       956       959       960       958       956       959       961
       958       956       959       967       959       961       962       963
       959       961       962       964       959       967       970       971
       960       959       961       962       960       959       967       968
       960       959       967       969       960       959       967       970
       961       959       967       968       961       959       967       969
       961       959       967       970       961       962       964       965
       961       962       964       966       961       962       964       976
       962       961       959       967       962       964       976       977
       962       964       976       978       962       964       976       979
       963       962       964       965       963       962       964       966
       963       962       964       976       964       976       979       980
       964       976       979       981       964       976       979       982
       965       964       976       977       965       964       976       978
       965       964       976       979       966       964       976       977
       966       964       976       978       966       964       976       979
       967       970       971       972       967       970       971       973
       968       967       970       971       969       967       970       971
       970       971       973       974       970       971       973       975
       970       971       973      1023       971       973      1023      1024
       971       973      1023      1025       971       973      1023      1026
       972       971       973       974       972       971       973       975
       972       971       973      1023       973      1023      1026      1027
       973      1023      1026      1028       973      1023      1026      1029
       974       973      1023      1024       974       973      1023      1025
       974       973      1023      1026       975       973      1023      1024
       975       973      1023      1025       975       973      1023      1026
       976       979       982       983       976       979       982       984
       976       979       982       985       977       976       979       980
       977       976       979       981       977       976       979       982
       978       976       979       980       978       976       979       981
       978       976       979       982       979       982       985       986
       979       982       985       987       979       982       985       988
       980       979       982       983       980       979       982       984
       980       979       982       985       981       979       982       983
       981       979       982       984       981       979       982       985
       982       985       988       989       982       985       988       990
       982       985       988       991       983       982       985       986
       983       982       985       987       983       982       985       988
       984       982       985       986       984       982       985       987
       984       982       985       988       985       988       991       992
       985       988       991       993       985       988       991       994
       986       985       988       989       986       985       988       990
       986       985       988       991       987       985       988       989
       987       985       988       990       987       985       988       991
       988       991       994       995       988       991       994       996
       989       988       991       992       989       988       991       993
       989       988       991       994       990       988       991       992
       990       988       991       993       990       988       991       994
       991       994       996       997       991       994       996       998
       992       991       994       995       992       991       994       996
       993       991       994       995       993       991       994       996
       994       996       998       999       994       996       998      1000
       994       996       998      1001       995       994       996       997
       995       994       996       998       996       998      1001      1002
       996       998      1001      1003       996       998      1001      1004
       997       996       998       999       997       996       998      1000
       997       996       998      1001       998      1001      1004      1005
       998      1001      1004      1006       998      1001      1004      1007
       999       998      1001      1002       999       998      1001      1003
       999       998      1001      1004      1000       998      1001      1002
      1000       998      1001      1003      1000       998      1001      1004
      1001      1004      1007      1008      1001      1004      1007      1009
      1001      1004      1007      1010      1002      1001      1004      1005
      1002      1001      1004      1006      1002      1001      1004      1007
      1003      1001      1004      1005      1003      1001      1004      1006
      1003      1001      1004      1007      1004      1007      1010      1011
      1004      1007      1010      1012      1004      1007      1010      1013
      1005      1004      1007      1008      1005      1004      1007      1009
      1005      1004      1007      1010      1006      1004      1007      1008
      1006      1004      1007      1009      1006      1004      1007      1010
      1007      1010      1013      1014      1007      1010      1013      1015
      1007      1010      1013      1016      1008      1007      1010      1011
      1008      1007      1010      1012      1008      1007      1010      1013
      1009      1007      1010      1011      1009      1007      1010      1012
      1009      1007      1010      1013      1010      1013      1016      1017
      1010      1013      1016      1018      1010      1013      1016      1019
      1011      1010      1013      1014      1011      1010      1013      1015
      1011      1010      1013      1016      1012      1010      1013      1014
      1012      1010      1013      1015      1012      1010      1013      1016
      1013      1016      1019      1020      1013      1016      1019      1021
      1013      1016      1019      1022      1014      1013      1016      1017
      1014      1013      1016      1018      1014      1013      1016      1019
      1015      1013      1016      1017      1015      1013      1016      1018
      1015      1013      1016      1019      1017      1016      1019      1020
      1017      1016      1019      1021      1017      1016      1019      1022
      1018      1016      1019      1020      1018      1016      1019      1021
      1018      1016      1019      1022      1023      1026      1029      1030
      1023      1026      1029      1031      1023      1026      1029      1032
      1024      1023      1026      1027      1024      1023      1026      1028
      1024      1023      1026      1029      1025      1023      1026      1027
      1025      1023      1026      1028      1025      1023      1026      1029
      1026      1029      1032      1033      1026      1029      1032      1034
      1026      1029      1032      1035      1027      1026      1029      1030
      1027      1026      1029      1031      1027      1026      1029      1032
      1028      1026      1029      1030      1028      1026      1029      1031
      1028      1026      1029      1032      1029      1032      1035      1036
      1029      1032      1035      1037      1029      1032      1035      1038
      1030      1029      1032      1033      1030      1029      1032      1034
      1030      1029      1032      1035      1031      1029      1032      1033
      1031      1029      1032      1034      1031      1029      1032      1035
      1032      1035      1038      1039      1032      1035      1038      1040
      1032      1035      1038      1041      1033      1032      1035      1036
      1033      1032      1035      1037      1033      1032      1035      1038
      1034      1032      1035      1036      1034      1032      1035      1037
      1034      1032      1035      1038      1035      1038      1041      1042
      1035      1038      1041      1043      1035      1038      1041      1044
      1036      1035      1038      1039      1036      1035      1038      1040
      1036      1035      1038      1041      1037      1035      1038      1039
      1037      1035      1038      1040      1037      1035      1038      1041
      1038      1041      1044      1045      1038      1041      1044      1046
      1038      1041      1044      1047      1039      1038      1041      1042
      1039      1038      1041      1043      1039      1038      1041      1044
      1040      1038      1041      1042      1040      1038      1041      1043
      1040      1038      1041      1044      1041      1044      1047      1048
      1041      1044      1047      1049      1041      1044      1047      1050
      1042      1041      1044      1045      1042      1041      1044      1046
      1042      1041      1044      1047      1043      1041      1044      1045
      1043      1041      1044      1046      1043      1041      1044      1047
      1044      1047      1050      1051      1044      1047      1050      1052
      1044      1047      1050      1053      1045      1044      1047      1048
      1045      1044      1047      1049      1045      1044      1047      1050
      1046      1044      1047      1048      1046      1044      1047      1049
      1046      1044      1047      1050      1047      1050      1053      1054
      1047      1050      1053      1055      1047      1050      1053      1056
      1048      1047      1050      1051      1048      1047      1050      1052
      1048      1047      1050      1053      1049      1047      1050      1051
      1049      1047      1050      1052      1049      1047      1050      1053
      1050      1053      1056      1057      1050      1053      1056      1058
      1050      1053      1056      1059      1051      1050      1053      1054
      1051      1050      1053      1055      1051      1050      1053      1056
      1052      1050      1053      1054      1052      1050      1053      1055
      1052      1050      1053      1056      1053      1056      1059      1060
      1053      1056      1059      1061      1053      1056      1059      1062
      1054      1053      1056      1057      1054      1053      1056      1058
      1054      1053      1056      1059      1055      1053      1056      1057
      1055      1053      1056      1058      1055      1053      1056      1059
      1056      1059      1062      1063      1056      1059      1062      1064
      1056      1059      1062      1065      1057      1056      1059      1060
      1057      1056      1059      1061      1057      1056      1059      1062
      1058      1056      1059      1060      1058      1056      1059      1061
      1058      1056      1059      1062      1060      1059      1062      1063
      1060      1059      1062      1064      1060      1059      1062      1065
      1061      1059      1062      1063      1061      1059      1062      1064
      1061      1059      1062      1065      1066      1067      1082      1083
      1066      1067      1082      1084      1066      1067      1082      1088
      1067      1066      1070      1071      1067      1066      1070      1072
      1067      1066      1070      1073      1067      1066      1074      1075
      1067      1066      1074      1076      1067      1066      1074      1077
      1067      1066      1078      1079      1067      1066      1078      1080
      1067      1066      1078      1081      1067      1082      1088      1085
      1068      1067      1066      1070      1068      1067      1066      1074
      1068      1067      1066      1078      1068      1067      1082      1083
      1068      1067      1082      1084      1068      1067      1082      1088
      1069      1067      1066      1070      1069      1067      1066      1074
      1069      1067      1066      1078      1069      1067      1082      1083
      1069      1067      1082      1084      1069      1067      1082      1088
      1070      1066      1067      1082      1070      1066      1074      1075
      1070      1066      1074      1076      1070      1066      1074      1077
      1070      1066      1078      1079      1070      1066      1078      1080
      1070      1066      1078      1081      1071      1070      1066      1074
      1071      1070      1066      1078      1072      1070      1066      1074
      1072      1070      1066      1078      1073      1070      1066      1074
      1073      1070      1066      1078      1074      1066      1067      1082
      1074      1066      1078      1079      1074      1066      1078      1080
      1074      1066      1078      1081      1075      1074      1066      1078
      1076      1074      1066      1078      1077      1074      1066      1078
      1078      1066      1067      1082      1082      1088      1085      1086
      1082      1088      1085      1087      1082      1088      1085      1089
      1083      1082      1088      1085      1084      1082      1088      1085
      1085      1089      1090      1091      1085      1089      1090      1092
      1085      1089      1090      1093      1086      1085      1089      1090
      1087      1085      1089      1090      1088      1085      1089      1090
      1089      1090      1093      1094      1089      1090      1093      1095
      1089      1090      1093      1101      1090      1093      1095      1096
      1090      1093      1101      1102      1090      1093      1101      1103
      1090      1093      1101      1104      1091      1090      1093      1094
      1091      1090      1093      1095      1091      1090      1093      1101
      1092      1090      1093      1094      1092      1090      1093      1095
      1092      1090      1093      1101      1093      1095      1096      1097
      1093      1095      1096      1098      1093      1101      1104      1105
      1094      1093      1095      1096      1094      1093      1101      1102
      1094      1093      1101      1103      1094      1093      1101      1104
      1095      1093      1101      1102      1095      1093      1101      1103
      1095      1093      1101      1104      1095      1096      1098      1099
      1095      1096      1098      1100      1095      1096      1098      1110
      1096      1095      1093      1101      1096      1098      1110      1111
      1096      1098      1110      1112      1096      1098      1110      1113
      1097      1096      1098      1099      1097      1096      1098      1100
      1097      1096      1098      1110      1098      1110      1113      1114
      1098      1110      1113      1115      1098      1110      1113      1116
      1099      1098      1110      1111      1099      1098      1110      1112
      1099      1098      1110      1113      1100      1098      1110      1111
      1100      1098      1110      1112      1100      1098      1110      1113
      1101      1104      1105      1106      1101      1104      1105      1107
      1102      1101      1104      1105      1103      1101      1104      1105
      1104      1105      1107      1108      1104      1105      1107      1109
      1104      1105      1107      1157      1105      1107      1157      1158
      1105      1107      1157      1159      1105      1107      1157      1160
      1106      1105      1107      1108      1106      1105      1107      1109
      1106      1105      1107      1157      1107      1157      1160      1161
      1107      1157      1160      1162      1107      1157      1160      1163
      1108      1107      1157      1158      1108      1107      1157      1159
      1108      1107      1157      1160      1109      1107      1157      1158
      1109      1107      1157      1159      1109      1107      1157      1160
      1110      1113      1116      1117      1110      1113      1116      1118
      1110      1113      1116      1119      1111      1110      1113      1114
      1111      1110      1113      1115      1111      1110      1113      1116
      1112      1110      1113      1114      1112      1110      1113      1115
      1112      1110      1113      1116      1113      1116      1119      1120
      1113      1116      1119      1121      1113      1116      1119      1122
      1114      1113      1116      1117      1114      1113      1116      1118
      1114      1113      1116      1119      1115      1113      1116      1117
      1115      1113      1116      1118      1115      1113      1116      1119
      1116      1119      1122      1123      1116      1119      1122      1124
      1116      1119      1122      1125      1117      1116      1119      1120
      1117      1116      1119      1121      1117      1116      1119      1122
      1118      1116      1119      1120      1118      1116      1119      1121
      1118      1116      1119      1122      1119      1122      1125      1126
      1119      1122      1125      1127      1119      1122      1125      1128
      1120      1119      1122      1123      1120      1119      1122      1124
      1120      1119      1122      1125      1121      1119      1122      1123
      1121      1119      1122      1124      1121      1119      1122      1125
      1122      1125      1128      1129      1122      1125      1128      1130
      1123      1122      1125      1126      1123      1122      1125      1127
      1123      1122      1125      1128      1124      1122      1125      1126
      1124      1122      1125      1127      1124      1122      1125      1128
      1125      1128      1130      1131      1125      1128      1130      1132
      1126      1125      1128      1129      1126      1125      1128      1130
      1127      1125      1128      1129      1127      1125      1128      1130
      1128      1130      1132      1133      1128      1130      1132      1134
      1128      1130      1132      1135      1129      1128      1130      1131
      1129      1128      1130      1132      1130      1132      1135      1136
      1130      1132      1135      1137      1130      1132      1135      1138
      1131      1130      1132      1133      1131      1130      1132      1134
      1131      1130      1132      1135      1132      1135      1138      1139
      1132      1135      1138      1140      1132      1135      1138      1141
      1133      1132      1135      1136      1133      1132      1135      1137
      1133      1132      1135      1138      1134      1132      1135      1136
      1134      1132      1135      1137      1134      1132      1135      1138
      1135      1138      1141      1142      1135      1138      1141      1143
      1135      1138      1141      1144      1136      1135      1138      1139
      1136      1135      1138      1140      1136      1135      1138      1141
      1137      1135      1138      1139      1137      1135      1138      1140
      1137      1135      1138      1141      1138      1141      1144      1145
      1138      1141      1144      1146      1138      1141      1144      1147
      1139      1138      1141      1142      1139      1138      1141      1143
      1139      1138      1141      1144      1140      1138      1141      1142
      1140      1138      1141      1143      1140      1138      1141      1144
      1141      1144      1147      1148      1141      1144      1147      1149
      1141      1144      1147      1150      1142      1141      1144      1145
      1142      1141      1144      1146      1142      1141      1144      1147
      1143      1141      1144      1145      1143      1141      1144      1146
      1143      1141      1144      1147      1144      1147      1150      1151
      1144      1147      1150      1152      1144      1147      1150      1153
      1145      1144      1147      1148      1145      1144      1147      1149
      1145      1144      1147      1150      1146      1144      1147      1148
      1146      1144      1147      1149      1146      1144      1147      1150
      1147      1150      1153      1154      1147      1150      1153      1155
      1147      1150      1153      1156      1148      1147      1150      1151
      1148      1147      1150      1152      1148      1147      1150      1153
      1149      1147      1150      1151      1149      1147      1150      1152
      1149      1147      1150      1153      1151      1150      1153      1154
      1151      1150      1153      1155      1151      1150      1153      1156
      1152      1150      1153      1154      1152      1150      1153      1155
      1152      1150      1153      1156      1157      1160      1163      1164
      1157      1160      1163      1165      1157      1160      1163      1166
      1158      1157      1160      1161      1158      1157      1160      1162
      1158      1157      1160      1163      1159      1157      1160      1161
      1159      1157      1160      1162      1159      1157      1160      1163
      1160      1163      1166      1167      1160      1163      1166      1168
      1160      1163      1166      1169      1161      1160      1163      1164
      1161      1160      1163      1165      1161      1160      1163      1166
      1162      1160      1163      1164      1162      1160      1163      1165
      1162      1160      1163      1166      1163      1166      1169      1170
      1163      1166      1169      1171      1163      1166      1169      1172
      1164      1163      1166      1167      1164      1163      1166      1168
      1164      1163      1166      1169      1165      1163      1166      1167
      1165      1163      1166      1168      1165      1163      1166      1169
      1166      1169      1172      1173      1166      1169      1172      1174
      1166      1169      1172      1175      1167      1166      1169      1170
      1167      1166      1169      1171      1167      1166      1169      1172
      1168      1166      1169      1170      1168      1166      1169      1171
      1168      1166      1169      1172      1169      1172      1175      1176
      1169      1172      1175      1177      1169      1172      1175      1178
      1170      1169      1172      1173      1170      1169      1172      1174
      1170      1169      1172      1175      1171      1169      1172      1173
      1171      1169      1172      1174      1171      1169      1172      1175
      1172      1175      1178      1179      1172      1175      1178      1180
      1172      1175      1178      1181      1173      1172      1175      1176
      1173      1172      1175      1177      1173      1172      1175      1178
      1174      1172      1175      1176      1174      1172      1175      1177
      1174      1172      1175      1178      1175      1178      1181      1182
      1175      1178      1181      1183      1175      1178      1181      1184
      1176      1175      1178      1179      1176      1175      1178      1180
      1176      1175      1178      1181      1177      1175      1178      1179
      1177      1175      1178      1180      1177      1175      1178      1181
      1178      1181      1184      1185      1178      1181      1184      1186
      1178      1181      1184      1187      1179      1178      1181      1182
      1179      1178      1181      1183      1179      1178      1181      1184
      1180      1178      1181      1182      1180      1178      1181      1183
      1180      1178      1181      1184      1181      1184      1187      1188
      1181      1184      1187      1189      1181      1184      1187      1190
      1182      1181      1184      1185      1182      1181      1184      1186
      1182      1181      1184      1187      1183      1181      1184      1185
      1183      1181      1184      1186      1183      1181      1184      1187
      1184      1187      1190      1191      1184      1187      1190      1192
      1184      1187      1190      1193      1185      1184      1187      1188
      1185      1184      1187      1189      1185      1184      1187      1190
      1186      1184      1187      1188      1186      1184      1187      1189
      1186      1184      1187      1190      1187      1190      1193      1194
      1187      1190      1193      1195      1187      1190      1193      1196
      1188      1187      1190      1191      1188      1187      1190      1192
      1188      1187      1190      1193      1189      1187      1190      1191
      1189      1187      1190      1192      1189      1187      1190      1193
      1190      1193      1196      1197      1190      1193      1196      1198
      1190      1193      1196      1199      1191      1190      1193      1194
      1191      1190      1193      1195      1191      1190      1193      1196
      1192      1190      1193      1194      1192      1190      1193      1195
      1192      1190      1193      1196      1194      1193      1196      1197
      1194      1193      1196      1198      1194      1193      1196      1199
      1195      1193      1196      1197      1195      1193      1196      1198
      1195      1193      1196      1199      1200      1201      1216      1217
      1200      1201      1216      1218      1200      1201      1216      1222
      1201      1200      1204      1205      1201      1200      1204      1206
      1201      1200      1204      1207      1201      1200      1208      1209
      1201      1200      1208      1210      1201      1200      1208      1211
      1201      1200      1212      1213      1201      1200      1212      1214
      1201      1200      1212      1215      1201      1216      1222      1219
      1202      1201      1200      1204      1202      1201      1200      1208
      1202      1201      1200      1212      1202      1201      1216      1217
      1202      1201      1216      1218      1202      1201      1216      1222
      1203      1201      1200      1204      1203      1201      1200      1208
      1203      1201      1200      1212      1203      1201      1216      1217
      1203      1201      1216      1218      1203      1201      1216      1222
      1204      1200      1201      1216      1204      1200      1208      1209
      1204      1200      1208      1210      1204      1200      1208      1211
      1204      1200      1212      1213      1204      1200      1212      1214
      1204      1200      1212      1215      1205      1204      1200      1208
      1205      1204      1200      1212      1206      1204      1200      1208
      1206      1204      1200      1212      1207      1204      1200      1208
      1207      1204      1200      1212      1208      1200      1201      1216
      1208      1200      1212      1213      1208      1200      1212      1214
      1208      1200      1212      1215      1209      1208      1200      1212
      1210      1208      1200      1212      1211      1208      1200      1212
      1212      1200      1201      1216      1216      1222      1219      1220
      1216      1222      1219      1221      1216      1222      1219      1223
      1217      1216      1222      1219      1218      1216      1222      1219
      1219      1223      1224      1225      1219      1223      1224      1226
      1219      1223      1224      1227      1220      1219      1223      1224
      1221      1219      1223      1224      1222      1219      1223      1224
      1223      1224      1227      1228      1223      1224      1227      1229
      1223      1224      1227      1235      1224      1227      1229      1230
      1224      1227      1235      1236      1224      1227      1235      1237
      1224      1227      1235      1238      1225      1224      1227      1228
      1225      1224      1227      1229      1225      1224      1227      1235
      1226      1224      1227      1228      1226      1224      1227      1229
      1226      1224      1227      1235      1227      1229      1230      1231
      1227      1229      1230      1232      1227      1235      1238      1239
      1228      1227      1229      1230      1228      1227      1235      1236
      1228      1227      1235      1237      1228      1227      1235      1238
      1229      1227      1235      1236      1229      1227      1235      1237
      1229      1227      1235      1238      1229      1230      1232      1233
      1229      1230      1232      1234      1229      1230      1232      1244
      1230      1229      1227      1235      1230      1232      1244      1245
      1230      1232      1244      1246      1230      1232      1244      1247
      1231      1230      1232      1233      1231      1230      1232      1234
      1231      1230      1232      1244      1232      1244      1247      1248
      1232      1244      1247      1249      1232      1244      1247      1250
      1233      1232      1244      1245      1233      1232      1244      1246
      1233      1232      1244      1247      1234      1232      1244      1245
      1234      1232      1244      1246      1234      1232      1244      1247
      1235      1238      1239      1240      1235      1238      1239      1241
      1236      1235      1238      1239      1237      1235      1238      1239
      1238      1239      1241      1242      1238      1239      1241      1243
      1238      1239      1241      1291      1239      1241      1291      1292
      1239      1241      1291      1293      1239      1241      1291      1294
      1240      1239      1241      1242      1240      1239      1241      1243
      1240      1239      1241      1291      1241      1291      1294      1295
      1241      1291      1294      1296      1241      1291      1294      1297
      1242      1241      1291      1292      1242      1241      1291      1293
      1242      1241      1291      1294      1243      1241      1291      1292
      1243      1241      1291      1293      1243      1241      1291      1294
      1244      1247      1250      1251      1244      1247      1250      1252
      1244      1247      1250      1253      1245      1244      1247      1248
      1245      1244      1247      1249      1245      1244      1247      1250
      1246      1244      1247      1248      1246      1244      1247      1249
      1246      1244      1247      1250      1247      1250      1253      1254
      1247      1250      1253      1255      1247      1250      1253      1256
      1248      1247      1250      1251      1248      1247      1250      1252
      1248      1247      1250      1253      1249      1247      1250      1251
      1249      1247      1250      1252      1249      1247      1250      1253
      1250      1253      1256      1257      1250      1253      1256      1258
      1250      1253      1256      1259      1251      1250      1253      1254
      1251      1250      1253      1255      1251      1250      1253      1256
      1252      1250      1253      1254      1252      1250      1253      1255
      1252      1250      1253      1256      1253      1256      1259      1260
      1253      1256      1259      1261      1253      1256      1259      1262
      1254      1253      1256      1257      1254      1253      1256      1258
      1254      1253      1256      1259      1255      1253      1256      1257
      1255      1253      1256      1258      1255      1253      1256      1259
      1256      1259      1262      1263      1256      1259      1262      1264
      1257      1256      1259      1260      1257      1256      1259      1261
      1257      1256      1259      1262      1258      1256      1259      1260
      1258      1256      1259      1261      1258      1256      1259      1262
      1259      1262      1264      1265      1259      1262      1264      1266
      1260      1259      1262      1263      1260      1259      1262      1264
      1261      1259      1262      1263      1261      1259      1262      1264
      1262      1264      1266      1267      1262      1264      1266      1268
      1262      1264      1266      1269      1263      1262      1264      1265
      1263      1262      1264      1266      1264      1266      1269      1270
      1264      1266      1269      1271      1264      1266      1269      1272
      1265      1264      1266      1267      1265      1264      1266      1268
      1265      1264      1266      1269      1266      1269      1272      1273
      1266      1269      1272      1274      1266      1269      1272      1275
      1267      1266      1269      1270      1267      1266      1269      1271
      1267      1266      1269      1272      1268      1266      1269      1270
      1268      1266      1269      1271      1268      1266      1269      1272
      1269      1272      1275      1276      1269      1272      1275      1277
      1269      1272      1275      1278      1270      1269      1272      1273
      1270      1269      1272      1274      1270      1269      1272      1275
      1271      1269      1272      1273      1271      1269      1272      1274
      1271      1269      1272      1275      1272      1275      1278      1279
      1272      1275      1278      1280      1272      1275      1278      1281
      1273      1272      1275      1276      1273      1272      1275      1277
      1273      1272      1275      1278      1274      1272      1275      1276
      1274      1272      1275      1277      1274      1272      1275      1278
      1275      1278      1281      1282      1275      1278      1281      1283
      1275      1278      1281      1284      1276      1275      1278      1279
      1276      1275      1278      1280      1276      1275      1278      1281
      1277      1275      1278      1279      1277      1275      1278      1280
      1277      1275      1278      1281      1278      1281      1284      1285
      1278      1281      1284      1286      1278      1281      1284      1287
      1279      1278      1281      1282      1279      1278      1281      1283
      1279      1278      1281      1284      1280      1278      1281      1282
      1280      1278      1281      1283      1280      1278      1281      1284
      1281      1284      1287      1288      1281      1284      1287      1289
      1281      1284      1287      1290      1282      1281      1284      1285
      1282      1281      1284      1286      1282      1281      1284      1287
      1283      1281      1284      1285      1283      1281      1284      1286
      1283      1281      1284      1287      1285      1284      1287      1288
      1285      1284      1287      1289      1285      1284      1287      1290
      1286      1284      1287      1288      1286      1284      1287      1289
      1286      1284      1287      1290      1291      1294      1297      1298
      1291      1294      1297      1299      1291      1294      1297      1300
      1292      1291      1294      1295      1292      1291      1294      1296
      1292      1291      1294      1297      1293      1291      1294      1295
      1293      1291      1294      1296      1293      1291      1294      1297
      1294      1297      1300      1301      1294      1297      1300      1302
      1294      1297      1300      1303      1295      1294      1297      1298
      1295      1294      1297      1299      1295      1294      1297      1300
      1296      1294      1297      1298      1296      1294      1297      1299
      1296      1294      1297      1300      1297      1300      1303      1304
      1297      1300      1303      1305      1297      1300      1303      1306
      1298      1297      1300      1301      1298      1297      1300      1302
      1298      1297      1300      1303      1299      1297      1300      1301
      1299      1297      1300      1302      1299      1297      1300      1303
      1300      1303      1306      1307      1300      1303      1306      1308
      1300      1303      1306      1309      1301      1300      1303      1304
      1301      1300      1303      1305      1301      1300      1303      1306
      1302      1300      1303      1304      1302      1300      1303      1305
      1302      1300      1303      1306      1303      1306      1309      1310
      1303      1306      1309      1311      1303      1306      1309      1312
      1304      1303      1306      1307      1304      1303      1306      1308
      1304      1303      1306      1309      1305      1303      1306      1307
      1305      1303      1306      1308      1305      1303      1306      1309
      1306      1309      1312      1313      1306      1309      1312      1314
      1306      1309      1312      1315      1307      1306      1309      1310
      1307      1306      1309      1311      1307      1306      1309      1312
      1308      1306      1309      1310      1308      1306      1309      1311
      1308      1306      1309      1312      1309      1312      1315      1316
      1309      1312      1315      1317      1309      1312      1315      1318
      1310      1309      1312      1313      1310      1309      1312      1314
      1310      1309      1312      1315      1311      1309      1312      1313
      1311      1309      1312      1314      1311      1309      1312      1315
      1312      1315      1318      1319      1312      1315      1318      1320
      1312      1315      1318      1321      1313      1312      1315      1316
      1313      1312      1315      1317      1313      1312      1315      1318
      1314      1312      1315      1316      1314      1312      1315      1317
      1314      1312      1315      1318      1315      1318      1321      1322
      1315      1318      1321      1323      1315      1318      1321      1324
      1316      1315      1318      1319      1316      1315      1318      1320
      1316      1315      1318      1321      1317      1315      1318      1319
      1317      1315      1318      1320      1317      1315      1318      1321
      1318      1321      1324      1325      1318      1321      1324      1326
      1318      1321      1324      1327      1319      1318      1321      1322
      1319      1318      1321      1323      1319      1318      1321      1324
      1320      1318      1321      1322      1320      1318      1321      1323
      1320      1318      1321      1324      1321      1324      1327      1328
      1321      1324      1327      1329      1321      1324      1327      1330
      1322      1321      1324      1325      1322      1321      1324      1326
      1322      1321      1324      1327      1323      1321      1324      1325
      1323      1321      1324      1326      1323      1321      1324      1327
      1324      1327      1330      1331      1324      1327      1330      1332
      1324      1327      1330      1333      1325      1324      1327      1328
      1325      1324      1327      1329      1325      1324      1327      1330
      1326      1324      1327      1328      1326      1324      1327      1329
      1326      1324      1327      1330      1328      1327      1330      1331
      1328      1327      1330      1332      1328      1327      1330      1333
      1329      1327      1330      1331      1329      1327      1330      1332
      1329      1327      1330      1333      1334      1335      1350      1351
      1334      1335      1350      1352      1334      1335      1350      1356
      1335      1334      1338      1339      1335      1334      1338      1340
      1335      1334      1338      1341      1335      1334      1342      1343
      1335      1334      1342      1344      1335      1334      1342      1345
      1335      1334      1346      1347      1335      1334      1346      1348
      1335      1334      1346      1349      1335      1350      1356      1353
      1336      1335      1334      1338      1336      1335      1334      1342
      1336      1335      1334      1346      1336      1335      1350      1351
      1336      1335      1350      1352      1336      1335      1350      1356
      1337      1335      1334      1338      1337      1335      1334      1342
      1337      1335      1334      1346      1337      1335      1350      1351
      1337      1335      1350      1352      1337      1335      1350      1356
      1338      1334      1335      1350      1338      1334      1342      1343
      1338      1334      1342      1344      1338      1334      1342      1345
      1338      1334      1346      1347      1338      1334      1346      1348
      1338      1334      1346      1349      1339      1338      1334      1342
      1339      1338      1334      1346      1340      1338      1334      1342
      1340      1338      1334      1346      1341      1338      1334      1342
      1341      1338      1334      1346      1342      1334      1335      1350
      1342      1334      1346      1347      1342      1334      1346      1348
      1342      1334      1346      1349      1343      1342      1334      1346
      1344      1342      1334      1346      1345      1342      1334      1346
      1346      1334      1335      1350      1350      1356      1353      1354
      1350      1356      1353      1355      1350      1356      1353      1357
      1351      1350      1356      1353      1352      1350      1356      1353
      1353      1357      1358      1359      1353      1357      1358      1360
      1353      1357      1358      1361      1354      1353      1357      1358
      1355      1353      1357      1358      1356      1353      1357      1358
      1357      1358      1361      1362      1357      1358      1361      1363
      1357      1358      1361      1369      1358      1361      1363      1364
      1358      1361      1369      1370      1358      1361      1369      1371
      1358      1361      1369      1372      1359      1358      1361      1362
      1359      1358      1361      1363      1359      1358      1361      1369
      1360      1358      1361      1362      1360      1358      1361      1363
      1360      1358      1361      1369      1361      1363      1364      1365
      1361      1363      1364      1366      1361      1369      1372      1373
      1362      1361      1363      1364      1362      1361      1369      1370
      1362      1361      1369      1371      1362      1361      1369      1372
      1363      1361      1369      1370      1363      1361      1369      1371
      1363      1361      1369      1372      1363      1364      1366      1367
      1363      1364      1366      1368      1363      1364      1366      1378
      1364      1363      1361      1369      1364      1366      1378      1379
      1364      1366      1378      1380      1364      1366      1378      1381
      1365      1364      1366      1367      1365      1364      1366      1368
      1365      1364      1366      1378      1366      1378      1381      1382
      1366      1378      1381      1383      1366      1378      1381      1384
      1367      1366      1378      1379      1367      1366      1378      1380
      1367      1366      1378      1381      1368      1366      1378      1379
      1368      1366      1378      1380      1368      1366      1378      1381
      1369      1372      1373      1374      1369      1372      1373      1375
      1370      1369      1372      1373      1371      1369      1372      1373
      1372      1373      1375      1376      1372      1373      1375      1377
      1372      1373      1375      1425      1373      1375      1425      1426
      1373      1375      1425      1427      1373      1375      1425      1428
      1374      1373      1375      1376      1374      1373      1375      1377
      1374      1373      1375      1425      1375      1425      1428      1429
      1375      1425      1428      1430      1375      1425      1428      1431
      1376      1375      1425      1426      1376      1375      1425      1427
      1376      1375      1425      1428      1377      1375      1425      1426
      1377      1375      1425      1427      1377      1375      1425      1428
      1378      1381      1384      1385      1378      1381      1384      1386
      1378      1381      1384      1387      1379      1378      1381      1382
      1379      1378      1381      1383      1379      1378      1381      1384
      1380      1378      1381      1382      1380      1378      1381      1383
      1380      1378      1381      1384      1381      1384      1387      1388
      1381      1384      1387      1389      1381      1384      1387      1390
      1382      1381      1384      1385      1382      1381      1384      1386
      1382      1381      1384      1387      1383      1381      1384      1385
      1383      1381      1384      1386      1383      1381      1384      1387
      1384      1387      1390      1391      1384      1387      1390      1392
      1384      1387      1390      1393      1385      1384      1387      1388
      1385      1384      1387      1389      1385      1384      1387      1390
      1386      1384      1387      1388      1386      1384      1387      1389
      1386      1384      1387      1390      1387      1390      1393      1394
      1387      1390      1393      1395      1387      1390      1393      1396
      1388      1387      1390      1391      1388      1387      1390      1392
      1388      1387      1390      1393      1389      1387      1390      1391
      1389      1387      1390      1392      1389      1387      1390      1393
      1390      1393      1396      1397      1390      1393      1396      1398
      1391      1390      1393      1394      1391      1390      1393      1395
      1391      1390      1393      1396      1392      1390      1393      1394
      1392      1390      1393      1395      1392      1390      1393      1396
      1393      1396      1398      1399      1393      1396      1398      1400
      1394      1393      1396      1397      1394      1393      1396      1398
      1395      1393      1396      1397      1395      1393      1396      1398
      1396      1398      1400      1401      1396      1398      1400      1402
      1396      1398      1400      1403      1397      1396      1398      1399
      1397      1396      1398      1400      1398      1400      1403      1404
      1398      1400      1403      1405      1398      1400      1403      1406
      1399      1398      1400      1401      1399      1398      1400      1402
      1399      1398      1400      1403      1400      1403      1406      1407
      1400      1403      1406      1408      1400      1403      1406      1409
      1401      1400      1403      1404      1401      1400      1403      1405
      1401      1400      1403      1406      1402      1400      1403      1404
      1402      1400      1403      1405      1402      1400      1403      1406
      1403      1406      1409      1410      1403      1406      1409      1411
      1403      1406      1409      1412      1404      1403      1406      1407
      1404      1403      1406      1408      1404      1403      1406      1409
      1405      1403      1406      1407      1405      1403      1406      1408
      1405      1403      1406      1409      1406      1409      1412      1413
      1406      1409      1412      1414      1406      1409      1412      1415
      1407      1406      1409      1410      1407      1406      1409      1411
      1407      1406      1409      1412      1408      1406      1409      1410
      1408      1406      1409      1411      1408      1406      1409      1412
      1409      1412      1415      1416      1409      1412      1415      1417
      1409      1412      1415      1418      1410      1409      1412      1413
      1410      1409      1412      1414      1410      1409      1412      1415
      1411      1409      1412      1413      1411      1409      1412      1414
      1411      1409      1412      1415      1412      1415      1418      1419
      1412      1415      1418      1420      1412      1415      1418      1421
      1413      1412      1415      1416      1413      1412      1415      1417
      1413      1412      1415      1418      1414      1412      1415      1416
      1414      1412      1415      1417      1414      1412      1415      1418
      1415      1418      1421      1422      1415      1418      1421      1423
      1415      1418      1421      1424      1416      1415      1418      1419
      1416      1415      1418      1420      1416      1415      1418      1421
      1417      1415      1418      1419      1417      1415      1418      1420
      1417      1415      1418      1421      1419      1418      1421      1422
      1419      1418      1421      1423      1419      1418      1421      1424
      1420      1418      1421      1422      1420      1418      1421      1423
      1420      1418      1421      1424      1425      1428      1431      1432
      1425      1428      1431      1433      1425      1428      1431      1434
      1426      1425      1428      1429      1426      1425      1428      1430
      1426      1425      1428      1431      1427      1425      1428      1429
      1427      1425      1428      1430      1427      1425      1428      1431
      1428      1431      1434      1435      1428      1431      1434      1436
      1428      1431      1434      1437      1429      1428      1431      1432
      1429      1428      1431      1433      1429      1428      1431      1434
      1430      1428      1431      1432      1430      1428      1431      1433
      1430      1428      1431      1434      1431      1434      1437      1438
      1431      1434      1437      1439      1431      1434      1437      1440
      1432      1431      1434      1435      1432      1431      1434      1436
      1432      1431      1434      1437      1433      1431      1434      1435
      1433      1431      1434      1436      1433      1431      1434      1437
      1434      1437      1440      1441      1434      1437      1440      1442
      1434      1437      1440      1443      1435      1434      1437      1438
      1435      1434      1437      1439      1435      1434      1437      1440
      1436      1434      1437      1438      1436      1434      1437      1439
      1436      1434      1437      1440      1437      1440      1443      1444
      1437      1440      1443      1445      1437      1440      1443      1446
      1438      1437      1440      1441      1438      1437      1440      1442
      1438      1437      1440      1443      1439      1437      1440      1441
      1439      1437      1440      1442      1439      1437      1440      1443
      1440      1443      1446      1447      1440      1443      1446      1448
      1440      1443      1446      1449      1441      1440      1443      1444
      1441      1440      1443      1445      1441      1440      1443      1446
      1442      1440      1443      1444      1442      1440      1443      1445
      1442      1440      1443      1446      1443      1446      1449      1450
      1443      1446      1449      1451      1443      1446      1449      1452
      1444      1443      1446      1447      1444      1443      1446      1448
      1444      1443      1446      1449      1445      1443      1446      1447
      1445      1443      1446      1448      1445      1443      1446      1449
      1446      1449      1452      1453      1446      1449      1452      1454
      1446      1449      1452      1455      1447      1446      1449      1450
      1447      1446      1449      1451      1447      1446      1449      1452
      1448      1446      1449      1450      1448      1446      1449      1451
      1448      1446      1449      1452      1449      1452      1455      1456
      1449      1452      1455      1457      1449      1452      1455      1458
      1450      1449      1452      1453      1450      1449      1452      1454
      1450      1449      1452      1455      1451      1449      1452      1453
      1451      1449      1452      1454      1451      1449      1452      1455
      1452      1455      1458      1459      1452      1455      1458      1460
      1452      1455      1458      1461      1453      1452      1455      1456
      1453      1452      1455      1457      1453      1452      1455      1458
      1454      1452      1455      1456      1454      1452      1455      1457
      1454      1452      1455      1458      1455      1458      1461      1462
      1455      1458      1461      1463      1455      1458      1461      1464
      1456      1455      1458      1459      1456      1455      1458      1460
      1456      1455      1458      1461      1457      1455      1458      1459
      1457      1455      1458      1460      1457      1455      1458      1461
      1458      1461      1464      1465      1458      1461      1464      1466
      1458      1461      1464      1467      1459      1458      1461      1462
      1459      1458      1461      1463      1459      1458      1461      1464
      1460      1458      1461      1462      1460      1458      1461      1463
      1460      1458      1461      1464      1462      1461      1464      1465
      1462      1461      1464      1466      1462      1461      1464      1467
      1463      1461      1464      1465      1463      1461      1464      1466
      1463      1461      1464      1467      1468      1469      1484      1485
      1468      1469      1484      1486      1468      1469      1484      1490
      1469      1468      1472      1473      1469      1468      1472      1474
      1469      1468      1472      1475      1469      1468      1476      1477
      1469      1468      1476      1478      1469      1468      1476      1479
      1469      1468      1480      1481      1469      1468      1480      1482
      1469      1468      1480      1483      1469      1484      1490      1487
      1470      1469      1468      1472      1470      1469      1468      1476
      1470      1469      1468      1480      1470      1469      1484      1485
      1470      1469      1484      1486      1470      1469      1484      1490
      1471      1469      1468      1472      1471      1469      1468      1476
      1471      1469      1468      1480      1471      1469      1484      1485
      1471      1469      1484      1486      1471      1469      1484      1490
      1472      1468      1469      1484      1472      1468      1476      1477
      1472      1468      1476      1478      1472      1468      1476      1479
      1472      1468      1480      1481      1472      1468      1480      1482
      1472      1468      1480      1483      1473      1472      1468      1476
      1473      1472      1468      1480      1474      1472      1468      1476
      1474      1472      1468      1480      1475      1472      1468      1476
      1475      1472      1468      1480      1476      1468      1469      1484
      1476      1468      1480      1481      1476      1468      1480      1482
      1476      1468      1480      1483      1477      1476      1468      1480
      1478      1476      1468      1480      1479      1476      1468      1480
      1480      1468      1469      1484      1484      1490      1487      1488
      1484      1490      1487      1489      1484      1490      1487      1491
      1485      1484      1490      1487      1486      1484      1490      1487
      1487      1491      1492      1493      1487      1491      1492      1494
      1487      1491      1492      1495      1488      1487      1491      1492
      1489      1487      1491      1492      1490      1487      1491      1492
      1491      1492      1495      1496      1491      1492      1495      1497
      1491      1492      1495      1503      1492      1495      1497      1498
      1492      1495      1503      1504      1492      1495      1503      1505
      1492      1495      1503      1506      1493      1492      1495      1496
      1493      1492      1495      1497      1493      1492      1495      1503
      1494      1492      1495      1496      1494      1492      1495      1497
      1494      1492      1495      1503      1495      1497      1498      1499
      1495      1497      1498      1500      1495      1503      1506      1507
      1496      1495      1497      1498      1496      1495      1503      1504
      1496      1495      1503      1505      1496      1495      1503      1506
      1497      1495      1503      1504      1497      1495      1503      1505
      1497      1495      1503      1506      1497      1498      1500      1501
      1497      1498      1500      1502      1497      1498      1500      1512
      1498      1497      1495      1503      1498      1500      1512      1513
      1498      1500      1512      1514      1498      1500      1512      1515
      1499      1498      1500      1501      1499      1498      1500      1502
      1499      1498      1500      1512      1500      1512      1515      1516
      1500      1512      1515      1517      1500      1512      1515      1518
      1501      1500      1512      1513      1501      1500      1512      1514
      1501      1500      1512      1515      1502      1500      1512      1513
      1502      1500      1512      1514      1502      1500      1512      1515
      1503      1506      1507      1508      1503      1506      1507      1509
      1504      1503      1506      1507      1505      1503      1506      1507
      1506      1507      1509      1510      1506      1507      1509      1511
      1506      1507      1509      1559      1507      1509      1559      1560
      1507      1509      1559      1561      1507      1509      1559      1562
      1508      1507      1509      1510      1508      1507      1509      1511
      1508      1507      1509      1559      1509      1559      1562      1563
      1509      1559      1562      1564      1509      1559      1562      1565
      1510      1509      1559      1560      1510      1509      1559      1561
      1510      1509      1559      1562      1511      1509      1559      1560
      1511      1509      1559      1561      1511      1509      1559      1562
      1512      1515      1518      1519      1512      1515      1518      1520
      1512      1515      1518      1521      1513      1512      1515      1516
      1513      1512      1515      1517      1513      1512      1515      1518
      1514      1512      1515      1516      1514      1512      1515      1517
      1514      1512      1515      1518      1515      1518      1521      1522
      1515      1518      1521      1523      1515      1518      1521      1524
      1516      1515      1518      1519      1516      1515      1518      1520
      1516      1515      1518      1521      1517      1515      1518      1519
      1517      1515      1518      1520      1517      1515      1518      1521
      1518      1521      1524      1525      1518      1521      1524      1526
      1518      1521      1524      1527      1519      1518      1521      1522
      1519      1518      1521      1523      1519      1518      1521      1524
      1520      1518      1521      1522      1520      1518      1521      1523
      1520      1518      1521      1524      1521      1524      1527      1528
      1521      1524      1527      1529      1521      1524      1527      1530
      1522      1521      1524      1525      1522      1521      1524      1526
      1522      1521      1524      1527      1523      1521      1524      1525
      1523      1521      1524      1526      1523      1521      1524      1527
      1524      1527      1530      1531      1524      1527      1530      1532
      1525      1524      1527      1528      1525      1524      1527      1529
      1525      1524      1527      1530      1526      1524      1527      1528
      1526      1524      1527      1529      1526      1524      1527      1530
      1527      1530      1532      1533      1527      1530      1532      1534
      1528      1527      1530      1531      1528      1527      1530      1532
      1529      1527      1530      1531      1529      1527      1530      1532
      1530      1532      1534      1535      1530      1532      1534      1536
      1530      1532      1534      1537      1531      1530      1532      1533
      1531      1530      1532      1534      1532      1534      1537      1538
      1532      1534      1537      1539      1532      1534      1537      1540
      1533      1532      1534      1535      1533      1532      1534      1536
      1533      1532      1534      1537      1534      1537      1540      1541
      1534      1537      1540      1542      1534      1537      1540      1543
      1535      1534      1537      1538      1535      1534      1537      1539
      1535      1534      1537      1540      1536      1534      1537      1538
      1536      1534      1537      1539      1536      1534      1537      1540
      1537      1540      1543      1544      1537      1540      1543      1545
      1537      1540      1543      1546      1538      1537      1540      1541
      1538      1537      1540      1542      1538      1537      1540      1543
      1539      1537      1540      1541      1539      1537      1540      1542
      1539      1537      1540      1543      1540      1543      1546      1547
      1540      1543      1546      1548      1540      1543      1546      1549
      1541      1540      1543      1544      1541      1540      1543      1545
      1541      1540      1543      1546      1542      1540      1543      1544
      1542      1540      1543      1545      1542      1540      1543      1546
      1543      1546      1549      1550      1543      1546      1549      1551
      1543      1546      1549      1552      1544      1543      1546      1547
      1544      1543      1546      1548      1544      1543      1546      1549
      1545      1543      1546      1547      1545      1543      1546      1548
      1545      1543      1546      1549      1546      1549      1552      1553
      1546      1549      1552      1554      1546      1549      1552      1555
      1547      1546      1549      1550      1547      1546      1549      1551
      1547      1546      1549      1552      1548      1546      1549      1550
      1548      1546      1549      1551      1548      1546      1549      1552
      1549      1552      1555      1556      1549      1552      1555      1557
      1549      1552      1555      1558      1550      1549      1552      1553
      1550      1549      1552      1554      1550      1549      1552      1555
      1551      1549      1552      1553      1551      1549      1552      1554
      1551      1549      1552      1555      1553      1552      1555      1556
      1553      1552      1555      1557      1553      1552      1555      1558
      1554      1552      1555      1556      1554      1552      1555      1557
      1554      1552      1555      1558      1559      1562      1565      1566
      1559      1562      1565      1567      1559      1562      1565      1568
      1560      1559      1562      1563      1560      1559      1562      1564
      1560      1559      1562      1565      1561      1559      1562      1563
      1561      1559      1562      1564      1561      1559      1562      1565
      1562      1565      1568      1569      1562      1565      1568      1570
      1562      1565      1568      1571      1563      1562      1565      1566
      1563      1562      1565      1567      1563      1562      1565      1568
      1564      1562      1565      1566      1564      1562      1565      1567
      1564      1562      1565      1568      1565      1568      1571      1572
      1565      1568      1571      1573      1565      1568      1571      1574
      1566      1565      1568      1569      1566      1565      1568      1570
      1566      1565      1568      1571      1567      1565      1568      1569
      1567      1565      1568      1570      1567      1565      1568      1571
      1568      1571      1574      1575      1568      1571      1574      1576
      1568      1571      1574      1577      1569      1568      1571      1572
      1569      1568      1571      1573      1569      1568      1571      1574
      1570      1568      1571      1572      1570      1568      1571      1573
      1570      1568      1571      1574      1571      1574      1577      1578
      1571      1574      1577      1579      1571      1574      1577      1580
      1572      1571      1574      1575      1572      1571      1574      1576
      1572      1571      1574      1577      1573      1571      1574      1575
      1573      1571      1574      1576      1573      1571      1574      1577
      1574      1577      1580      1581      1574      1577      1580      1582
      1574      1577      1580      1583      1575      1574      1577      1578
      1575      1574      1577      1579      1575      1574      1577      1580
      1576      1574      1577      1578      1576      1574      1577      1579
      1576      1574      1577      1580      1577      1580      1583      1584
      1577      1580      1583      1585      1577      1580      1583      1586
      1578      1577      1580      1581      1578      1577      1580      1582
      1578      1577      1580      1583      1579      1577      1580      1581
      1579      1577      1580      1582      1579      1577      1580      1583
      1580      1583      1586      1587      1580      1583      1586      1588
      1580      1583      1586      1589      1581      1580      1583      1584
      1581      1580      1583      1585      1581      1580      1583      1586
      1582      1580      1583      1584      1582      1580      1583      1585
      1582      1580      1583      1586      1583      1586      1589      1590
      1583      1586      1589      1591      1583      1586      1589      1592
      1584      1583      1586      1587      1584      1583      1586      1588
      1584      1583      1586      1589      1585      1583      1586      1587
      1585      1583      1586      1588      1585      1583      1586      1589
      1586      1589      1592      1593      1586      1589      1592      1594
      1586      1589      1592      1595      1587      1586      1589      1590
      1587      1586      1589      1591      1587      1586      1589      1592
      1588      1586      1589      1590      1588      1586      1589      1591
      1588      1586      1589      1592      1589      1592      1595      1596
      1589      1592      1595      1597      1589      1592      1595      1598
      1590      1589      1592      1593      1590      1589      1592      1594
      1590      1589      1592      1595      1591      1589      1592      1593
      1591      1589      1592      1594      1591      1589      1592      1595
      1592      1595      1598      1599      1592      1595      1598      1600
      1592      1595      1598      1601      1593      1592      1595      1596
      1593      1592      1595      1597      1593      1592      1595      1598
      1594      1592      1595      1596      1594      1592      1595      1597
      1594      1592      1595      1598      1596      1595      1598      1599
      1596      1595      1598      1600      1596      1595      1598      1601
      1597      1595      1598      1599      1597      1595      1598      1600
      1597      1595      1598      1601      1602      1603      1618      1619
      1602      1603      1618      1620      1602      1603      1618      1624
      1603      1602      1606      1607      1603      1602      1606      1608
      1603      1602      1606      1609      1603      1602      1610      1611
      1603      1602      1610      1612      1603      1602      1610      1613
      1603      1602      1614      1615      1603      1602      1614      1616
      1603      1602      1614      1617      1603      1618      1624      1621
      1604      1603      1602      1606      1604      1603      1602      1610
      1604      1603      1602      1614      1604      1603      1618      1619
      1604      1603      1618      1620      1604      1603      1618      1624
      1605      1603      1602      1606      1605      1603      1602      1610
      1605      1603      1602      1614      1605      1603      1618      1619
      1605      1603      1618      1620      1605      1603      1618      1624
      1606      1602      1603      1618      1606      1602      1610      1611
      1606      1602      1610      1612      1606      1602      1610      1613
      1606      1602      1614      1615      1606      1602      1614      1616
      1606      1602      1614      1617      1607      1606      1602      1610
      1607      1606      1602      1614      1608      1606      1602      1610
      1608      1606      1602      1614      1609      1606      1602      1610
      1609      1606      1602      1614      1610      1602      1603      1618
      1610      1602      1614      1615      1610      1602      1614      1616
      1610      1602      1614      1617      1611      1610      1602      1614
      1612      1610      1602      1614      1613      1610      1602      1614
      1614      1602      1603      1618      1618      1624      1621      1622
      1618      1624      1621      1623      1618      1624      1621      1625
      1619      1618      1624      1621      1620      1618      1624      1621
      1621      1625      1626      1627      1621      1625      1626      1628
      1621      1625      1626      1629      1622      1621      1625      1626
      1623      1621      1625      1626      1624      1621      1625      1626
      1625      1626      1629      1630      1625      1626      1629      1631
      1625      1626      1629      1637      1626      1629      1631      1632
      1626      1629      1637      1638      1626      1629      1637      1639
      1626      1629      1637      1640      1627      1626      1629      1630
      1627      1626      1629      1631      1627      1626      1629      1637
      1628      1626      1629      1630      1628      1626      1629      1631
      1628      1626      1629      1637      1629      1631      1632      1633
      1629      1631      1632      1634      1629      1637      1640      1641
      1630      1629      1631      1632      1630      1629      1637      1638
      1630      1629      1637      1639      1630      1629      1637      1640
      1631      1629      1637      1638      1631      1629      1637      1639
      1631      1629      1637      1640      1631      1632      1634      1635
      1631      1632      1634      1636      1631      1632      1634      1646
      1632      1631      1629      1637      1632      1634      1646      1647
      1632      1634      1646      1648      1632      1634      1646      1649
      1633      1632      1634      1635      1633      1632      1634      1636
      1633      1632      1634      1646      1634      1646      1649      1650
      1634      1646      1649      1651      1634      1646      1649      1652
      1635      1634      1646      1647      1635      1634      1646      1648
      1635      1634      1646      1649      1636      1634      1646      1647
      1636      1634      1646      1648      1636      1634      1646      1649
      1637      1640      1641      1642      1637      1640      1641      1643
      1638      1637      1640      1641      1639      1637      1640      1641
      1640      1641      1643      1644      1640      1641      1643      1645
      1640      1641      1643      1693      1641      1643      1693      1694
      1641      1643      1693      1695      1641      1643      1693      1696
      1642      1641      1643      1644      1642      1641      1643      1645
      1642      1641      1643      1693      1643      1693      1696      1697
      1643      1693      1696      1698      1643      1693      1696      1699
      1644      1643      1693      1694      1644      1643      1693      1695
      1644      1643      1693      1696      1645      1643      1693      1694
      1645      1643      1693      1695      1645      1643      1693      1696
      1646      1649      1652      1653      1646      1649      1652      1654
      1646      1649      1652      1655      1647      1646      1649      1650
      1647      1646      1649      1651      1647      1646      1649      1652
      1648      1646      1649      1650      1648      1646      1649      1651
      1648      1646      1649      1652      1649      1652      1655      1656
      1649      1652      1655      1657      1649      1652      1655      1658
      1650      1649      1652      1653      1650      1649      1652      1654
      1650      1649      1652      1655      1651      1649      1652      1653
      1651      1649      1652      1654      1651      1649      1652      1655
      1652      1655      1658      1659      1652      1655      1658      1660
      1652      1655      1658      1661      1653      1652      1655      1656
      1653      1652      1655      1657      1653      1652      1655      1658
      1654      1652      1655      1656      1654      1652      1655      1657
      1654      1652      1655      1658      1655      1658      1661      1662
      1655      1658      1661      1663      1655      1658      1661      1664
      1656      1655      1658      1659      1656      1655      1658      1660
      1656      1655      1658      1661      1657      1655      1658      1659
      1657      1655      1658      1660      1657      1655      1658      1661
      1658      1661      1664      1665      1658      1661      1664      1666
      1659      1658      1661      1662      1659      1658      1661      1663
      1659      1658      1661      1664      1660      1658      1661      1662
      1660      1658      1661      1663      1660      1658      1661      1664
      1661      1664      1666      1667      1661      1664      1666      1668
      1662      1661      1664      1665      1662      1661      1664      1666
      1663      1661      1664      1665      1663      1661      1664      1666
      1664      1666      1668      1669      1664      1666      1668      1670
      1664      1666      1668      1671      1665      1664      1666      1667
      1665      1664      1666      1668      1666      1668      1671      1672
      1666      1668      1671      1673      1666      1668      1671      1674
      1667      1666      1668      1669      1667      1666      1668      1670
      1667      1666      1668      1671      1668      1671      1674      1675
      1668      1671      1674      1676      1668      1671      1674      1677
      1669      1668      1671      1672      1669      1668      1671      1673
      1669      1668      1671      1674      1670      1668      1671      1672
      1670      1668      1671      1673      1670      1668      1671      1674
      1671      1674      1677      1678      1671      1674      1677      1679
      1671      1674      1677      1680      1672      1671      1674      1675
      1672      1671      1674      1676      1672      1671      1674      1677
      1673      1671      1674      1675      1673      1671      1674      1676
      1673      1671      1674      1677      1674      1677      1680      1681
      1674      1677      1680      1682      1674      1677      1680      1683
      1675      1674      1677      1678      1675      1674      1677      1679
      1675      1674      1677      1680      1676      1674      1677      1678
      1676      1674      1677      1679      1676      1674      1677      1680
      1677      1680      1683      1684      1677      1680      1683      1685
      1677      1680      1683      1686      1678      1677      1680      1681
      1678      1677      1680      1682      1678      1677      1680      1683
      1679      1677      1680      1681      1679      1677      1680      1682
      1679      1677      1680      1683      1680      1683      1686      1687
      1680      1683      1686      1688      1680      1683      1686      1689
      1681      1680      1683      1684      1681      1680      1683      1685
      1681      1680      1683      1686      1682      1680      1683      1684
      1682      1680      1683      1685      1682      1680      1683      1686
      1683      1686      1689      1690      1683      1686      1689      1691
      1683      1686      1689      1692      1684      1683      1686      1687
      1684      1683      1686      1688      1684      1683      1686      1689
      1685      1683      1686      1687      1685      1683      1686      1688
      1685      1683      1686      1689      1687      1686      1689      1690
      1687      1686      1689      1691      1687      1686      1689      1692
      1688      1686      1689      1690      1688      1686      1689      1691
      1688      1686      1689      1692      1693      1696      1699      1700
      1693      1696      1699      1701      1693      1696      1699      1702
      1694      1693      1696      1697      1694      1693      1696      1698
      1694      1693      1696      1699      1695      1693      1696      1697
      1695      1693      1696      1698      1695      1693      1696      1699
      1696      1699      1702      1703      1696      1699      1702      1704
      1696      1699      1702      1705      1697      1696      1699      1700
      1697      1696      1699      1701      1697      1696      1699      1702
      1698      1696      1699      1700      1698      1696      1699      1701
      1698      1696      1699      1702      1699      1702      1705      1706
      1699      1702      1705      1707      1699      1702      1705      1708
      1700      1699      1702      1703      1700      1699      1702      1704
      1700      1699      1702      1705      1701      1699      1702      1703
      1701      1699      1702      1704      1701      1699      1702      1705
      1702      1705      1708      1709      1702      1705      1708      1710
      1702      1705      1708      1711      1703      1702      1705      1706
      1703      1702      1705      1707      1703      1702      1705      1708
      1704      1702      1705      1706      1704      1702      1705      1707
      1704      1702      1705      1708      1705      1708      1711      1712
      1705      1708      1711      1713      1705      1708      1711      1714
      1706      1705      1708      1709      1706      1705      1708      1710
      1706      1705      1708      1711      1707      1705      1708      1709
      1707      1705      1708      1710      1707      1705      1708      1711
      1708      1711      1714      1715      1708      1711      1714      1716
      1708      1711      1714      1717      1709      1708      1711      1712
      1709      1708      1711      1713      1709      1708      1711      1714
      1710      1708      1711      1712      1710      1708      1711      1713
      1710      1708      1711      1714      1711      1714      1717      1718
      1711      1714      1717      1719      1711      1714      1717      1720
      1712      1711      1714      1715      1712      1711      1714      1716
      1712      1711      1714      1717      1713      1711      1714      1715
      1713      1711      1714      1716      1713      1711      1714      1717
      1714      1717      1720      1721      1714      1717      1720      1722
      1714      1717      1720      1723      1715      1714      1717      1718
      1715      1714      1717      1719      1715      1714      1717      1720
      1716      1714      1717      1718      1716      1714      1717      1719
      1716      1714      1717      1720      1717      1720      1723      1724
      1717      1720      1723      1725      1717      1720      1723      1726
      1718      1717      1720      1721      1718      1717      1720      1722
      1718      1717      1720      1723      1719      1717      1720      1721
      1719      1717      1720      1722      1719      1717      1720      1723
      1720      1723      1726      1727      1720      1723      1726      1728
      1720      1723      1726      1729      1721      1720      1723      1724
      1721      1720      1723      1725      1721      1720      1723      1726
      1722      1720      1723      1724      1722      1720      1723      1725
      1722      1720      1723      1726      1723      1726      1729      1730
      1723      1726      1729      1731      1723      1726      1729      1732
      1724      1723      1726      1727      1724      1723      1726      1728
      1724      1723      1726      1729      1725      1723      1726      1727
      1725      1723      1726      1728      1725      1723      1726      1729
      1726      1729      1732      1733      1726      1729      1732      1734
      1726      1729      1732      1735      1727      1726      1729      1730
      1727      1726      1729      1731      1727      1726      1729      1732
      1728      1726      1729      1730      1728      1726      1729      1731
      1728      1726      1729      1732      1730      1729      1732      1733
      1730      1729      1732      1734      1730      1729      1732      1735
      1731      1729      1732      1733      1731      1729      1732      1734
      1731      1729      1732      1735      1736      1737      1752      1753
      1736      1737      1752      1754      1736      1737      1752      1758
      1737      1736      1740      1741      1737      1736      1740      1742
      1737      1736      1740      1743      1737      1736      1744      1745
      1737      1736      1744      1746      1737      1736      1744      1747
      1737      1736      1748      1749      1737      1736      1748      1750
      1737      1736      1748      1751      1737      1752      1758      1755
      1738      1737      1736      1740      1738      1737      1736      1744
      1738      1737      1736      1748      1738      1737      1752      1753
      1738      1737      1752      1754      1738      1737      1752      1758
      1739      1737      1736      1740      1739      1737      1736      1744
      1739      1737      1736      1748      1739      1737      1752      1753
      1739      1737      1752      1754      1739      1737      1752      1758
      1740      1736      1737      1752      1740      1736      1744      1745
      1740      1736      1744      1746      1740      1736      1744      1747
      1740      1736      1748      1749      1740      1736      1748      1750
      1740      1736      1748      1751      1741      1740      1736      1744
      1741      1740      1736      1748      1742      1740      1736      1744
      1742      1740      1736      1748      1743      1740      1736      1744
      1743      1740      1736      1748      1744      1736      1737      1752
      1744      1736      1748      1749      1744      1736      1748      1750
      1744      1736      1748      1751      1745      1744      1736      1748
      1746      1744      1736      1748      1747      1744      1736      1748
      1748      1736      1737      1752      1752      1758      1755      1756
      1752      1758      1755      1757      1752      1758      1755      1759
      1753      1752      1758      1755      1754      1752      1758      1755
      1755      1759      1760      1761      1755      1759      1760      1762
      1755      1759      1760      1763      1756      1755      1759      1760
      1757      1755      1759      1760      1758      1755      1759      1760
      1759      1760      1763      1764      1759      1760      1763      1765
      1759      1760      1763      1771      1760      1763      1765      1766
      1760      1763      1771      1772      1760      1763      1771      1773
      1760      1763      1771      1774      1761      1760      1763      1764
      1761      1760      1763      1765      1761      1760      1763      1771
      1762      1760      1763      1764      1762      1760      1763      1765
      1762      1760      1763      1771      1763      1765      1766      1767
      1763      1765      1766      1768      1763      1771      1774      1775
      1764      1763      1765      1766      1764      1763      1771      1772
      1764      1763      1771      1773      1764      1763      1771      1774
      1765      1763      1771      1772      1765      1763      1771      1773
      1765      1763      1771      1774      1765      1766      1768      1769
      1765      1766      1768      1770      1765      1766      1768      1780
      1766      1765      1763      1771      1766      1768      1780      1781
      1766      1768      1780      1782      1766      1768      1780      1783
      1767      1766      1768      1769      1767      1766      1768      1770
      1767      1766      1768      1780      1768      1780      1783      1784
      1768      1780      1783      1785      1768      1780      1783      1786
      1769      1768      1780      1781      1769      1768      1780      1782
      1769      1768      1780      1783      1770      1768      1780      1781
      1770      1768      1780      1782      1770      1768      1780      1783
      1771      1774      1775      1776      1771      1774      1775      1777
      1772      1771      1774      1775      1773      1771      1774      1775
      1774      1775      1777      1778      1774      1775      1777      1779
      1774      1775      1777      1827      1775      1777      1827      1828
      1775      1777      1827      1829      1775      1777      1827      1830
      1776      1775      1777      1778      1776      1775      1777      1779
      1776      1775      1777      1827      1777      1827      1830      1831
      1777      1827      1830      1832      1777      1827      1830      1833
      1778      1777      1827      1828      1778      1777      1827      1829
      1778      1777      1827      1830      1779      1777      1827      1828
      1779      1777      1827      1829      1779      1777      1827      1830
      1780      1783      1786      1787      1780      1783      1786      1788
      1780      1783      1786      1789      1781      1780      1783      1784
      1781      1780      1783      1785      1781      1780      1783      1786
      1782      1780      1783      1784      1782      1780      1783      1785
      1782      1780      1783      1786      1783      1786      1789      1790
      1783      1786      1789      1791      1783      1786      1789      1792
      1784      1783      1786      1787      1784      1783      1786      1788
      1784      1783      1786      1789      1785      1783      1786      1787
      1785      1783      1786      1788      1785      1783      1786      1789
      1786      1789      1792      1793      1786      1789      1792      1794
      1786      1789      1792      1795      1787      1786      1789      1790
      1787      1786      1789      1791      1787      1786      1789      1792
      1788      1786      1789      1790      1788      1786      1789      1791
      1788      1786      1789      1792      1789      1792      1795      1796
      1789      1792      1795      1797      1789      1792      1795      1798
      1790      1789      1792      1793      1790      1789      1792      1794
      1790      1789      1792      1795      1791      1789      1792      1793
      1791      1789      1792      1794      1791      1789      1792      1795
      1792      1795      1798      1799      1792      1795      1798      1800
      1793      1792      1795      1796      1793      1792      1795      1797
      1793      1792      1795      1798      1794      1792      1795      1796
      1794      1792      1795      1797      1794      1792      1795      1798
      1795      1798      1800      1801      1795      1798      1800      1802
      1796      1795      1798      1799      1796      1795      1798      1800
      1797      1795      1798      1799      1797      1795      1798      1800
      1798      1800      1802      1803      1798      1800      1802      1804
      1798      1800      1802      1805      1799      1798      1800      1801
      1799      1798      1800      1802      1800      1802      1805      1806
      1800      1802      1805      1807      1800      1802      1805      1808
      1801      1800      1802      1803      1801      1800      1802      1804
      1801      1800      1802      1805      1802      1805      1808      1809
      1802      1805      1808      1810      1802      1805      1808      1811
      1803      1802      1805      1806      1803      1802      1805      1807
      1803      1802      1805      1808      1804      1802      1805      1806
      1804      1802      1805      1807      1804      1802      1805      1808
      1805      1808      1811      1812      1805      1808      1811      1813
      1805      1808      1811      1814      1806      1805      1808      1809
      1806      1805      1808      1810      1806      1805      1808      1811
      1807      1805      1808      1809      1807      1805      1808      1810
      1807      1805      1808      1811      1808      1811      1814      1815
      1808      1811      1814      1816      1808      1811      1814      1817
      1809      1808      1811      1812      1809      1808      1811      1813
      1809      1808      1811      1814      1810      1808      1811      1812
      1810      1808      1811      1813      1810      1808      1811      1814
      1811      1814      1817      1818      1811      1814      1817      1819
      1811      1814      1817      1820      1812      1811      1814      1815
      1812      1811      1814      1816      1812      1811      1814      1817
      1813      1811      1814      1815      1813      1811      1814      1816
      1813      1811      1814      1817      1814      1817      1820      1821
      1814      1817      1820      1822      1814      1817      1820      1823
      1815      1814      1817      1818      1815      1814      1817      1819
      1815      1814      1817      1820      1816      1814      1817      1818
      1816      1814      1817      1819      1816      1814      1817      1820
      1817      1820      1823      1824      1817      1820      1823      1825
      1817      1820      1823      1826      1818      1817      1820      1821
      1818      1817      1820      1822      1818      1817      1820      1823
      1819      1817      1820      1821      1819      1817      1820      1822
      1819      1817      1820      1823      1821      1820      1823      1824
      1821      1820      1823      1825      1821      1820      1823      1826
      1822      1820      1823      1824      1822      1820      1823      1825
      1822      1820      1823      1826      1827      1830      1833      1834
      1827      1830      1833      1835      1827      1830      1833      1836
      1828      1827      1830      1831      1828      1827      1830      1832
      1828      1827      1830      1833      1829      1827      1830      1831
      1829      1827      1830      1832      1829      1827      1830      1833
      1830      1833      1836      1837      1830      1833      1836      1838
      1830      1833      1836      1839      1831      1830      1833      1834
      1831      1830      1833      1835      1831      1830      1833      1836
      1832      1830      1833      1834      1832      1830      1833      1835
      1832      1830      1833      1836      1833      1836      1839      1840
      1833      1836      1839      1841      1833      1836      1839      1842
      1834      1833      1836      1837      1834      1833      1836      1838
      1834      1833      1836      1839      1835      1833      1836      1837
      1835      1833      1836      1838      1835      1833      1836      1839
      1836      1839      1842      1843      1836      1839      1842      1844
      1836      1839      1842      1845      1837      1836      1839      1840
      1837      1836      1839      1841      1837      1836      1839      1842
      1838      1836      1839      1840      1838      1836      1839      1841
      1838      1836      1839      1842      1839      1842      1845      1846
      1839      1842      1845      1847      1839      1842      1845      1848
      1840      1839      1842      1843      1840      1839      1842      1844
      1840      1839      1842      1845      1841      1839      1842      1843
      1841      1839      1842      1844      1841      1839      1842      1845
      1842      1845      1848      1849      1842      1845      1848      1850
      1842      1845      1848      1851      1843      1842      1845      1846
      1843      1842      1845      1847      1843      1842      1845      1848
      1844      1842      1845      1846      1844      1842      1845      1847
      1844      1842      1845      1848      1845      1848      1851      1852
      1845      1848      1851      1853      1845      1848      1851      1854
      1846      1845      1848      1849      1846      1845      1848      1850
      1846      1845      1848      1851      1847      1845      1848      1849
      1847      1845      1848      1850      1847      1845      1848      1851
      1848      1851      1854      1855      1848      1851      1854      1856
      1848      1851      1854      1857      1849      1848      1851      1852
      1849      1848      1851      1853      1849      1848      1851      1854
      1850      1848      1851      1852      1850      1848      1851      1853
      1850      1848      1851      1854      1851      1854      1857      1858
      1851      1854      1857      1859      1851      1854      1857      1860
      1852      1851      1854      1855      1852      1851      1854      1856
      1852      1851      1854      1857      1853      1851      1854      1855
      1853      1851      1854      1856      1853      1851      1854      1857
      1854      1857      1860      1861      1854      1857      1860      1862
      1854      1857      1860      1863      1855      1854      1857      1858
      1855      1854      1857      1859      1855      1854      1857      1860
      1856      1854      1857      1858      1856      1854      1857      1859
      1856      1854      1857      1860      1857      1860      1863      1864
      1857      1860      1863      1865      1857      1860      1863      1866
      1858      1857      1860      1861      1858      1857      1860      1862
      1858      1857      1860      1863      1859      1857      1860      1861
      1859      1857      1860      1862      1859      1857      1860      1863
      1860      1863      1866      1867      1860      1863      1866      1868
      1860      1863      1866      1869      1861      1860      1863      1864
      1861      1860      1863      1865      1861      1860      1863      1866
      1862      1860      1863      1864      1862      1860      1863      1865
      1862      1860      1863      1866      1864      1863      1866      1867
      1864      1863      1866      1868      1864      1863      1866      1869
      1865      1863      1866      1867      1865      1863      1866      1868
      1865      1863      1866      1869      1870      1874      1876      1877
      1870      1874      1876      1878      1870      1874      1879      1880
      1870      1874      1879      1881      1870      1874      1879      1885
      1871      1870      1874      1875      1871      1870      1874      1876
      1871      1870      1874      1879      1872      1870      1874      1875
      1872      1870      1874      1876      1872      1870      1874      1879
      1873      1870      1874      1875      1873      1870      1874      1876
      1873      1870      1874      1879      1874      1879      1885      1882
      1875      1874      1876      1877      1875      1874      1876      1878
      1875      1874      1879      1880      1875      1874      1879      1881
      1875      1874      1879      1885      1876      1874      1879      1880
      1876      1874      1879      1881      1876      1874      1879      1885
      1877      1876      1874      1879      1878      1876      1874      1879
      1879      1885      1882      1883      1879      1885      1882      1884
      1879      1885      1882      1886      1880      1879      1885      1882
      1881      1879      1885      1882      1882      1886      1887      1888
      1882      1886      1887      1889      1882      1886      1887      1890
      1883      1882      1886      1887      1884      1882      1886      1887
      1885      1882      1886      1887      1886      1887      1890      1891
      1886      1887      1890      1892      1886      1887      1890      1898
      1887      1890      1892      1893      1887      1890      1898      1899
      1887      1890      1898      1900      1887      1890      1898      1901
      1888      1887      1890      1891      1888      1887      1890      1892
      1888      1887      1890      1898      1889      1887      1890      1891
      1889      1887      1890      1892      1889      1887      1890      1898
      1890      1892      1893      1894      1890      1892      1893      1895
      1890      1898      1901      1902      1891      1890      1892      1893
      1891      1890      1898      1899      1891      1890      1898      1900
      1891      1890      1898      1901      1892      1890      1898      1899
      1892      1890      1898      1900      1892      1890      1898      1901
      1892      1893      1895      1896      1892      1893      1895      1897
      1892      1893      1895      1907      1893      1892      1890      1898
      1893      1895      1907      1908      1893      1895      1907      1909
      1893      1895      1907      1910      1894      1893      1895      1896
      1894      1893      1895      1897      1894      1893      1895      1907
      1895      1907      1910      1911      1895      1907      1910      1912
      1895      1907      1910      1913      1896      1895      1907      1908
      1896      1895      1907      1909      1896      1895      1907      1910
      1897      1895      1907      1908      1897      1895      1907      1909
      1897      1895      1907      1910      1898      1901      1902      1903
      1898      1901      1902      1904      1899      1898      1901      1902
      1900      1898      1901      1902      1901      1902      1904      1905
      1901      1902      1904      1906      1901      1902      1904      1954
      1902      1904      1954      1955      1902      1904      1954      1956
      1902      1904      1954      1957      1903      1902      1904      1905
      1903      1902      1904      1906      1903      1902      1904      1954
      1904      1954      1957      1958      1904      1954      1957      1959
      1904      1954      1957      1960      1905      1904      1954      1955
      1905      1904      1954      1956      1905      1904      1954      1957
      1906      1904      1954      1955      1906      1904      1954      1956
      1906      1904      1954      1957      1907      1910      1913      1914
      1907      1910      1913      1915      1907      1910      1913      1916
      1908      1907      1910      1911      1908      1907      1910      1912
      1908      1907      1910      1913      1909      1907      1910      1911
      1909      1907      1910      1912      1909      1907      1910      1913
      1910      1913      1916      1917      1910      1913      1916      1918
      1910      1913      1916      1919      1911      1910      1913      1914
      1911      1910      1913      1915      1911      1910      1913      1916
      1912      1910      1913      1914      1912      1910      1913      1915
      1912      1910      1913      1916      1913      1916      1919      1920
      1913      1916      1919      1921      1913      1916      1919      1922
      1914      1913      1916      1917      1914      1913      1916      1918
      1914      1913      1916      1919      1915      1913      1916      1917
      1915      1913      1916      1918      1915      1913      1916      1919
      1916      1919      1922      1923      1916      1919      1922      1924
      1916      1919      1922      1925      1917      1916      1919      1920
      1917      1916      1919      1921      1917      1916      1919      1922
      1918      1916      1919      1920      1918      1916      1919      1921
      1918      1916      1919      1922      1919      1922      1925      1926
      1919      1922      1925      1927      1920      1919      1922      1923
      1920      1919      1922      1924      1920      1919      1922      1925
      1921      1919      1922      1923      1921      1919      1922      1924
      1921      1919      1922      1925      1922      1925      1927      1928
      1922      1925      1927      1929      1923      1922      1925      1926
      1923      1922      1925      1927      1924      1922      1925      1926
      1924      1922      1925      1927      1925      1927      1929      1930
      1925      1927      1929      1931      1925      1927      1929      1932
      1926      1925      1927      1928      1926      1925      1927      1929
      1927      1929      1932      1933      1927      1929      1932      1934
      1927      1929      1932      1935      1928      1927      1929      1930
      1928      1927      1929      1931      1928      1927      1929      1932
      1929      1932      1935      1936      1929      1932      1935      1937
      1929      1932      1935      1938      1930      1929      1932      1933
      1930      1929      1932      1934      1930      1929      1932      1935
      1931      1929      1932      1933      1931      1929      1932      1934
      1931      1929      1932      1935      1932      1935      1938      1939
      1932      1935      1938      1940      1932      1935      1938      1941
      1933      1932      1935      1936      1933      1932      1935      1937
      1933      1932      1935      1938      1934      1932      1935      1936
      1934      1932      1935      1937      1934      1932      1935      1938
      1935      1938      1941      1942      1935      1938      1941      1943
      1935      1938      1941      1944      1936      1935      1938      1939
      1936      1935      1938      1940      1936      1935      1938      1941
      1937      1935      1938      1939      1937      1935      1938      1940
      1937      1935      1938      1941      1938      1941      1944      1945
      1938      1941      1944      1946      1938      1941      1944      1947
      1939      1938      1941      1942      1939      1938      1941      1943
      1939      1938      1941      1944      1940      1938      1941      1942
      1940      1938      1941      1943      1940      1938      1941      1944
      1941      1944      1947      1948      1941      1944      1947      1949
      1941      1944      1947      1950      1942      1941      1944      1945
      1942      1941      1944      1946      1942      1941      1944      1947
      1943      1941      1944      1945      1943      1941      1944      1946
      1943      1941      1944      1947      1944      1947      1950      1951
      1944      1947      1950      1952      1944      1947      1950      1953
      1945      1944      1947      1948      1945      1944      1947      1949
      1945      1944      1947      1950      1946      1944      1947      1948
      1946      1944      1947      1949      1946      1944      1947      1950
      1948      1947      1950      1951      1948      1947      1950      1952
      1948      1947      1950      1953      1949      1947      1950      1951
      1949      1947      1950      1952      1949      1947      1950      1953
      1954      1957      1960      1961      1954      1957      1960      1962
      1954      1957      1960      1963      1955      1954      1957      1958
      1955      1954      1957      1959      1955      1954      1957      1960
      1956      1954      1957      1958      1956      1954      1957      1959
      1956      1954      1957      1960      1957      1960      1963      1964
      1957      1960      1963      1965      1957      1960      1963      1966
      1958      1957      1960      1961      1958      1957      1960      1962
      1958      1957      1960      1963      1959      1957      1960      1961
      1959      1957      1960      1962      1959      1957      1960      1963
      1960      1963      1966      1967      1960      1963      1966      1968
      1960      1963      1966      1969      1961      1960      1963      1964
      1961      1960      1963      1965      1961      1960      1963      1966
      1962      1960      1963      1964      1962      1960      1963      1965
      1962      1960      1963      1966      1963      1966      1969      1970
      1963      1966      1969      1971      1963      1966      1969      1972
      1964      1963      1966      1967      1964      1963      1966      1968
      1964      1963      1966      1969      1965      1963      1966      1967
      1965      1963      1966      1968      1965      1963      1966      1969
      1966      1969      1972      1973      1966      1969      1972      1974
      1966      1969      1972      1975      1967      1966      1969      1970
      1967      1966      1969      1971      1967      1966      1969      1972
      1968      1966      1969      1970      1968      1966      1969      1971
      1968      1966      1969      1972      1969      1972      1975      1976
      1969      1972      1975      1977      1969      1972      1975      1978
      1970      1969      1972      1973      1970      1969      1972      1974
      1970      1969      1972      1975      1971      1969      1972      1973
      1971      1969      1972      1974      1971      1969      1972      1975
      1972      1975      1978      1979      1972      1975      1978      1980
      1972      1975      1978      1981      1973      1972      1975      1976
      1973      1972      1975      1977      1973      1972      1975      1978
      1974      1972      1975      1976      1974      1972      1975      1977
      1974      1972      1975      1978      1975      1978      1981      1982
      1975      1978      1981      1983      1975      1978      1981      1984
      1976      1975      1978      1979      1976      1975      1978      1980
      1976      1975      1978      1981      1977      1975      1978      1979
      1977      1975      1978      1980      1977      1975      1978      1981
      1978      1981      1984      1985      1978      1981      1984      1986
      1978      1981      1984      1987      1979      1978      1981      1982
      1979      1978      1981      1983      1979      1978      1981      1984
      1980      1978      1981      1982      1980      1978      1981      1983
      1980      1978      1981      1984      1981      1984      1987      1988
      1981      1984      1987      1989      1981      1984      1987      1990
      1982      1981      1984      1985      1982      1981      1984      1986
      1982      1981      1984      1987      1983      1981      1984      1985
      1983      1981      1984      1986      1983      1981      1984      1987
      1984      1987      1990      1991      1984      1987      1990      1992
      1984      1987      1990      1993      1985      1984      1987      1988
      1985      1984      1987      1989      1985      1984      1987      1990
      1986      1984      1987      1988      1986      1984      1987      1989
      1986      1984      1987      1990      1987      1990      1993      1994
      1987      1990      1993      1995      1987      1990      1993      1996
      1988      1987      1990      1991      1988      1987      1990      1992
      1988      1987      1990      1993      1989      1987      1990      1991
      1989      1987      1990      1992      1989      1987      1990      1993
      1991      1990      1993      1994      1991      1990      1993      1995
      1991      1990      1993      1996      1992      1990      1993      1994
      1992      1990      1993      1995      1992      1990      1993      1996
      1997      1998      2013      2014      1997      1998      2013      2015
      1997      1998      2013      2019      1998      1997      2001      2002
      1998      1997      2001      2003      1998      1997      2001      2004
      1998      1997      2005      2006      1998      1997      2005      2007
      1998      1997      2005      2008      1998      1997      2009      2010
      1998      1997      2009      2011      1998      1997      2009      2012
      1998      2013      2019      2016      1999      1998      1997      2001
      1999      1998      1997      2005      1999      1998      1997      2009
      1999      1998      2013      2014      1999      1998      2013      2015
      1999      1998      2013      2019      2000      1998      1997      2001
      2000      1998      1997      2005      2000      1998      1997      2009
      2000      1998      2013      2014      2000      1998      2013      2015
      2000      1998      2013      2019      2001      1997      1998      2013
      2001      1997      2005      2006      2001      1997      2005      2007
      2001      1997      2005      2008      2001      1997      2009      2010
      2001      1997      2009      2011      2001      1997      2009      2012
      2002      2001      1997      2005      2002      2001      1997      2009
      2003      2001      1997      2005      2003      2001      1997      2009
      2004      2001      1997      2005      2004      2001      1997      2009
      2005      1997      1998      2013      2005      1997      2009      2010
      2005      1997      2009      2011      2005      1997      2009      2012
      2006      2005      1997      2009      2007      2005      1997      2009
      2008      2005      1997      2009      2009      1997      1998      2013
      2013      2019      2016      2017      2013      2019      2016      2018
      2013      2019      2016      2020      2014      2013      2019      2016
      2015      2013      2019      2016      2016      2020      2021      2022
      2016      2020      2021      2023      2016      2020      2021      2024
      2017      2016      2020      2021      2018      2016      2020      2021
      2019      2016      2020      2021      2020      2021      2024      2025
      2020      2021      2024      2026      2020      2021      2024      2032
      2021      2024      2026      2027      2021      2024      2032      2033
      2021      2024      2032      2034      2021      2024      2032      2035
      2022      2021      2024      2025      2022      2021      2024      2026
      2022      2021      2024      2032      2023      2021      2024      2025
      2023      2021      2024      2026      2023      2021      2024      2032
      2024      2026      2027      2028      2024      2026      2027      2029
      2024      2032      2035      2036      2025      2024      2026      2027
      2025      2024      2032      2033      2025      2024      2032      2034
      2025      2024      2032      2035      2026      2024      2032      2033
      2026      2024      2032      2034      2026      2024      2032      2035
      2026      2027      2029      2030      2026      2027      2029      2031
      2026      2027      2029      2041      2027      2026      2024      2032
      2027      2029      2041      2042      2027      2029      2041      2043
      2027      2029      2041      2044      2028      2027      2029      2030
      2028      2027      2029      2031      2028      2027      2029      2041
      2029      2041      2044      2045      2029      2041      2044      2046
      2029      2041      2044      2047      2030      2029      2041      2042
      2030      2029      2041      2043      2030      2029      2041      2044
      2031      2029      2041      2042      2031      2029      2041      2043
      2031      2029      2041      2044      2032      2035      2036      2037
      2032      2035      2036      2038      2033      2032      2035      2036
      2034      2032      2035      2036      2035      2036      2038      2039
      2035      2036      2038      2040      2035      2036      2038      2088
      2036      2038      2088      2089      2036      2038      2088      2090
      2036      2038      2088      2091      2037      2036      2038      2039
      2037      2036      2038      2040      2037      2036      2038      2088
      2038      2088      2091      2092      2038      2088      2091      2093
      2038      2088      2091      2094      2039      2038      2088      2089
      2039      2038      2088      2090      2039      2038      2088      2091
      2040      2038      2088      2089      2040      2038      2088      2090
      2040      2038      2088      2091      2041      2044      2047      2048
      2041      2044      2047      2049      2041      2044      2047      2050
      2042      2041      2044      2045      2042      2041      2044      2046
      2042      2041      2044      2047      2043      2041      2044      2045
      2043      2041      2044      2046      2043      2041      2044      2047
      2044      2047      2050      2051      2044      2047      2050      2052
      2044      2047      2050      2053      2045      2044      2047      2048
      2045      2044      2047      2049      2045      2044      2047      2050
      2046      2044      2047      2048      2046      2044      2047      2049
      2046      2044      2047      2050      2047      2050      2053      2054
      2047      2050      2053      2055      2047      2050      2053      2056
      2048      2047      2050      2051      2048      2047      2050      2052
      2048      2047      2050      2053      2049      2047      2050      2051
      2049      2047      2050      2052      2049      2047      2050      2053
      2050      2053      2056      2057      2050      2053      2056      2058
      2050      2053      2056      2059      2051      2050      2053      2054
      2051      2050      2053      2055      2051      2050      2053      2056
      2052      2050      2053      2054      2052      2050      2053      2055
      2052      2050      2053      2056      2053      2056      2059      2060
      2053      2056      2059      2061      2054      2053      2056      2057
      2054      2053      2056      2058      2054      2053      2056      2059
      2055      2053      2056      2057      2055      2053      2056      2058
      2055      2053      2056      2059      2056      2059      2061      2062
      2056      2059      2061      2063      2057      2056      2059      2060
      2057      2056      2059      2061      2058      2056      2059      2060
      2058      2056      2059      2061      2059      2061      2063      2064
      2059      2061      2063      2065      2059      2061      2063      2066
      2060      2059      2061      2062      2060      2059      2061      2063
      2061      2063      2066      2067      2061      2063      2066      2068
      2061      2063      2066      2069      2062      2061      2063      2064
      2062      2061      2063      2065      2062      2061      2063      2066
      2063      2066      2069      2070      2063      2066      2069      2071
      2063      2066      2069      2072      2064      2063      2066      2067
      2064      2063      2066      2068      2064      2063      2066      2069
      2065      2063      2066      2067      2065      2063      2066      2068
      2065      2063      2066      2069      2066      2069      2072      2073
      2066      2069      2072      2074      2066      2069      2072      2075
      2067      2066      2069      2070      2067      2066      2069      2071
      2067      2066      2069      2072      2068      2066      2069      2070
      2068      2066      2069      2071      2068      2066      2069      2072
      2069      2072      2075      2076      2069      2072      2075      2077
      2069      2072      2075      2078      2070      2069      2072      2073
      2070      2069      2072      2074      2070      2069      2072      2075
      2071      2069      2072      2073      2071      2069      2072      2074
      2071      2069      2072      2075      2072      2075      2078      2079
      2072      2075      2078      2080      2072      2075      2078      2081
      2073      2072      2075      2076      2073      2072      2075      2077
      2073      2072      2075      2078      2074      2072      2075      2076
      2074      2072      2075      2077      2074      2072      2075      2078
      2075      2078      2081      2082      2075      2078      2081      2083
      2075      2078      2081      2084      2076      2075      2078      2079
      2076      2075      2078      2080      2076      2075      2078      2081
      2077      2075      2078      2079      2077      2075      2078      2080
      2077      2075      2078      2081      2078      2081      2084      2085
      2078      2081      2084      2086      2078      2081      2084      2087
      2079      2078      2081      2082      2079      2078      2081      2083
      2079      2078      2081      2084      2080      2078      2081      2082
      2080      2078      2081      2083      2080      2078      2081      2084
      2082      2081      2084      2085      2082      2081      2084      2086
      2082      2081      2084      2087      2083      2081      2084      2085
      2083      2081      2084      2086      2083      2081      2084      2087
      2088      2091      2094      2095      2088      2091      2094      2096
      2088      2091      2094      2097      2089      2088      2091      2092
      2089      2088      2091      2093      2089      2088      2091      2094
      2090      2088      2091      2092      2090      2088      2091      2093
      2090      2088      2091      2094      2091      2094      2097      2098
      2091      2094      2097      2099      2091      2094      2097      2100
      2092      2091      2094      2095      2092      2091      2094      2096
      2092      2091      2094      2097      2093      2091      2094      2095
      2093      2091      2094      2096      2093      2091      2094      2097
      2094      2097      2100      2101      2094      2097      2100      2102
      2094      2097      2100      2103      2095      2094      2097      2098
      2095      2094      2097      2099      2095      2094      2097      2100
      2096      2094      2097      2098      2096      2094      2097      2099
      2096      2094      2097      2100      2097      2100      2103      2104
      2097      2100      2103      2105      2097      2100      2103      2106
      2098      2097      2100      2101      2098      2097      2100      2102
      2098      2097      2100      2103      2099      2097      2100      2101
      2099      2097      2100      2102      2099      2097      2100      2103
      2100      2103      2106      2107      2100      2103      2106      2108
      2100      2103      2106      2109      2101      2100      2103      2104
      2101      2100      2103      2105      2101      2100      2103      2106
      2102      2100      2103      2104      2102      2100      2103      2105
      2102      2100      2103      2106      2103      2106      2109      2110
      2103      2106      2109      2111      2103      2106      2109      2112
      2104      2103      2106      2107      2104      2103      2106      2108
      2104      2103      2106      2109      2105      2103      2106      2107
      2105      2103      2106      2108      2105      2103      2106      2109
      2106      2109      2112      2113      2106      2109      2112      2114
      2106      2109      2112      2115      2107      2106      2109      2110
      2107      2106      2109      2111      2107      2106      2109      2112
      2108      2106      2109      2110      2108      2106      2109      2111
      2108      2106      2109      2112      2109      2112      2115      2116
      2109      2112      2115      2117      2109      2112      2115      2118
      2110      2109      2112      2113      2110      2109      2112      2114
      2110      2109      2112      2115      2111      2109      2112      2113
      2111      2109      2112      2114      2111      2109      2112      2115
      2112      2115      2118      2119      2112      2115      2118      2120
      2112      2115      2118      2121      2113      2112      2115      2116
      2113      2112      2115      2117      2113      2112      2115      2118
      2114      2112      2115      2116      2114      2112      2115      2117
      2114      2112      2115      2118      2115      2118      2121      2122
      2115      2118      2121      2123      2115      2118      2121      2124
      2116      2115      2118      2119      2116      2115      2118      2120
      2116      2115      2118      2121      2117      2115      2118      2119
      2117      2115      2118      2120      2117      2115      2118      2121
      2118      2121      2124      2125      2118      2121      2124      2126
      2118      2121      2124      2127      2119      2118      2121      2122
      2119      2118      2121      2123      2119      2118      2121      2124
      2120      2118      2121      2122      2120      2118      2121      2123
      2120      2118      2121      2124      2121      2124      2127      2128
      2121      2124      2127      2129      2121      2124      2127      2130
      2122      2121      2124      2125      2122      2121      2124      2126
      2122      2121      2124      2127      2123      2121      2124      2125
      2123      2121      2124      2126      2123      2121      2124      2127
      2125      2124      2127      2128      2125      2124      2127      2129
      2125      2124      2127      2130      2126      2124      2127      2128
      2126      2124      2127      2129      2126      2124      2127      2130
      2131      2132      2147      2148      2131      2132      2147      2149
      2131      2132      2147      2153      2132      2131      2135      2136
      2132      2131      2135      2137      2132      2131      2135      2138
      2132      2131      2139      2140      2132      2131      2139      2141
      2132      2131      2139      2142      2132      2131      2143      2144
      2132      2131      2143      2145      2132      2131      2143      2146
      2132      2147      2153      2150      2133      2132      2131      2135
      2133      2132      2131      2139      2133      2132      2131      2143
      2133      2132      2147      2148      2133      2132      2147      2149
      2133      2132      2147      2153      2134      2132      2131      2135
      2134      2132      2131      2139      2134      2132      2131      2143
      2134      2132      2147      2148      2134      2132      2147      2149
      2134      2132      2147      2153      2135      2131      2132      2147
      2135      2131      2139      2140      2135      2131      2139      2141
      2135      2131      2139      2142      2135      2131      2143      2144
      2135      2131      2143      2145      2135      2131      2143      2146
      2136      2135      2131      2139      2136      2135      2131      2143
      2137      2135      2131      2139      2137      2135      2131      2143
      2138      2135      2131      2139      2138      2135      2131      2143
      2139      2131      2132      2147      2139      2131      2143      2144
      2139      2131      2143      2145      2139      2131      2143      2146
      2140      2139      2131      2143      2141      2139      2131      2143
      2142      2139      2131      2143      2143      2131      2132      2147
      2147      2153      2150      2151      2147      2153      2150      2152
      2147      2153      2150      2154      2148      2147      2153      2150
      2149      2147      2153      2150      2150      2154      2155      2156
      2150      2154      2155      2157      2150      2154      2155      2158
      2151      2150      2154      2155      2152      2150      2154      2155
      2153      2150      2154      2155      2154      2155      2158      2159
      2154      2155      2158      2160      2154      2155      2158      2166
      2155      2158      2160      2161      2155      2158      2166      2167
      2155      2158      2166      2168      2155      2158      2166      2169
      2156      2155      2158      2159      2156      2155      2158      2160
      2156      2155      2158      2166      2157      2155      2158      2159
      2157      2155      2158      2160      2157      2155      2158      2166
      2158      2160      2161      2162      2158      2160      2161      2163
      2158      2166      2169      2170      2159      2158      2160      2161
      2159      2158      2166      2167      2159      2158      2166      2168
      2159      2158      2166      2169      2160      2158      2166      2167
      2160      2158      2166      2168      2160      2158      2166      2169
      2160      2161      2163      2164      2160      2161      2163      2165
      2160      2161      2163      2175      2161      2160      2158      2166
      2161      2163      2175      2176      2161      2163      2175      2177
      2161      2163      2175      2178      2162      2161      2163      2164
      2162      2161      2163      2165      2162      2161      2163      2175
      2163      2175      2178      2179      2163      2175      2178      2180
      2163      2175      2178      2181      2164      2163      2175      2176
      2164      2163      2175      2177      2164      2163      2175      2178
      2165      2163      2175      2176      2165      2163      2175      2177
      2165      2163      2175      2178      2166      2169      2170      2171
      2166      2169      2170      2172      2167      2166      2169      2170
      2168      2166      2169      2170      2169      2170      2172      2173
      2169      2170      2172      2174      2169      2170      2172      2222
      2170      2172      2222      2223      2170      2172      2222      2224
      2170      2172      2222      2225      2171      2170      2172      2173
      2171      2170      2172      2174      2171      2170      2172      2222
      2172      2222      2225      2226      2172      2222      2225      2227
      2172      2222      2225      2228      2173      2172      2222      2223
      2173      2172      2222      2224      2173      2172      2222      2225
      2174      2172      2222      2223      2174      2172      2222      2224
      2174      2172      2222      2225      2175      2178      2181      2182
      2175      2178      2181      2183      2175      2178      2181      2184
      2176      2175      2178      2179      2176      2175      2178      2180
      2176      2175      2178      2181      2177      2175      2178      2179
      2177      2175      2178      2180      2177      2175      2178      2181
      2178      2181      2184      2185      2178      2181      2184      2186
      2178      2181      2184      2187      2179      2178      2181      2182
      2179      2178      2181      2183      2179      2178      2181      2184
      2180      2178      2181      2182      2180      2178      2181      2183
      2180      2178      2181      2184      2181      2184      2187      2188
      2181      2184      2187      2189      2181      2184      2187      2190
      2182      2181      2184      2185      2182      2181      2184      2186
      2182      2181      2184      2187      2183      2181      2184      2185
      2183      2181      2184      2186      2183      2181      2184      2187
      2184      2187      2190      2191      2184      2187      2190      2192
      2184      2187      2190      2193      2185      2184      2187      2188
      2185      2184      2187      2189      2185      2184      2187      2190
      2186      2184      2187      2188      2186      2184      2187      2189
      2186      2184      2187      2190      2187      2190      2193      2194
      2187      2190      2193      2195      2188      2187      2190      2191
      2188      2187      2190      2192      2188      2187      2190      2193
      2189      2187      2190      2191      2189      2187      2190      2192
      2189      2187      2190      2193      2190      2193      2195      2196
      2190      2193      2195      2197      2191      2190      2193      2194
      2191      2190      2193      2195      2192      2190      2193      2194
      2192      2190      2193      2195      2193      2195      2197      2198
      2193      2195      2197      2199      2193      2195      2197      2200
      2194      2193      2195      2196      2194      2193      2195      2197
      2195      2197      2200      2201      2195      2197      2200      2202
      2195      2197      2200      2203      2196      2195      2197      2198
      2196      2195      2197      2199      2196      2195      2197      2200
      2197      2200      2203      2204      2197      2200      2203      2205
      2197      2200      2203      2206      2198      2197      2200      2201
      2198      2197      2200      2202      2198      2197      2200      2203
      2199      2197      2200      2201      2199      2197      2200      2202
      2199      2197      2200      2203      2200      2203      2206      2207
      2200      2203      2206      2208      2200      2203      2206      2209
      2201      2200      2203      2204      2201      2200      2203      2205
      2201      2200      2203      2206      2202      2200      2203      2204
      2202      2200      2203      2205      2202      2200      2203      2206
      2203      2206      2209      2210      2203      2206      2209      2211
      2203      2206      2209      2212      2204      2203      2206      2207
      2204      2203      2206      2208      2204      2203      2206      2209
      2205      2203      2206      2207      2205      2203      2206      2208
      2205      2203      2206      2209      2206      2209      2212      2213
      2206      2209      2212      2214      2206      2209      2212      2215
      2207      2206      2209      2210      2207      2206      2209      2211
      2207      2206      2209      2212      2208      2206      2209      2210
      2208      2206      2209      2211      2208      2206      2209      2212
      2209      2212      2215      2216      2209      2212      2215      2217
      2209      2212      2215      2218      2210      2209      2212      2213
      2210      2209      2212      2214      2210      2209      2212      2215
      2211      2209      2212      2213      2211      2209      2212      2214
      2211      2209      2212      2215      2212      2215      2218      2219
      2212      2215      2218      2220      2212      2215      2218      2221
      2213      2212      2215      2216      2213      2212      2215      2217
      2213      2212      2215      2218      2214      2212      2215      2216
      2214      2212      2215      2217      2214      2212      2215      2218
      2216      2215      2218      2219      2216      2215      2218      2220
      2216      2215      2218      2221      2217      2215      2218      2219
      2217      2215      2218      2220      2217      2215      2218      2221
      2222      2225      2228      2229      2222      2225      2228      2230
      2222      2225      2228      2231      2223      2222      2225      2226
      2223      2222      2225      2227      2223      2222      2225      2228
      2224      2222      2225      2226      2224      2222      2225      2227
      2224      2222      2225      2228      2225      2228      2231      2232
      2225      2228      2231      2233      2225      2228      2231      2234
      2226      2225      2228      2229      2226      2225      2228      2230
      2226      2225      2228      2231      2227      2225      2228      2229
      2227      2225      2228      2230      2227      2225      2228      2231
      2228      2231      2234      2235      2228      2231      2234      2236
      2228      2231      2234      2237      2229      2228      2231      2232
      2229      2228      2231      2233      2229      2228      2231      2234
      2230      2228      2231      2232      2230      2228      2231      2233
      2230      2228      2231      2234      2231      2234      2237      2238
      2231      2234      2237      2239      2231      2234      2237      2240
      2232      2231      2234      2235      2232      2231      2234      2236
      2232      2231      2234      2237      2233      2231      2234      2235
      2233      2231      2234      2236      2233      2231      2234      2237
      2234      2237      2240      2241      2234      2237      2240      2242
      2234      2237      2240      2243      2235      2234      2237      2238
      2235      2234      2237      2239      2235      2234      2237      2240
      2236      2234      2237      2238      2236      2234      2237      2239
      2236      2234      2237      2240      2237      2240      2243      2244
      2237      2240      2243      2245      2237      2240      2243      2246
      2238      2237      2240      2241      2238      2237      2240      2242
      2238      2237      2240      2243      2239      2237      2240      2241
      2239      2237      2240      2242      2239      2237      2240      2243
      2240      2243      2246      2247      2240      2243      2246      2248
      2240      2243      2246      2249      2241      2240      2243      2244
      2241      2240      2243      2245      2241      2240      2243      2246
      2242      2240      2243      2244      2242      2240      2243      2245
      2242      2240      2243      2246      2243      2246      2249      2250
      2243      2246      2249      2251      2243      2246      2249      2252
      2244      2243      2246      2247      2244      2243      2246      2248
      2244      2243      2246      2249      2245      2243      2246      2247
      2245      2243      2246      2248      2245      2243      2246      2249
      2246      2249      2252      2253      2246      2249      2252      2254
      2246      2249      2252      2255      2247      2246      2249      2250
      2247      2246      2249      2251      2247      2246      2249      2252
      2248      2246      2249      2250      2248      2246      2249      2251
      2248      2246      2249      2252      2249      2252      2255      2256
      2249      2252      2255      2257      2249      2252      2255      2258
      2250      2249      2252      2253      2250      2249      2252      2254
      2250      2249      2252      2255      2251      2249      2252      2253
      2251      2249      2252      2254      2251      2249      2252      2255
      2252      2255      2258      2259      2252      2255      2258      2260
      2252      2255      2258      2261      2253      2252      2255      2256
      2253      2252      2255      2257      2253      2252      2255      2258
      2254      2252      2255      2256      2254      2252      2255      2257
      2254      2252      2255      2258      2255      2258      2261      2262
      2255      2258      2261      2263      2255      2258      2261      2264
      2256      2255      2258      2259      2256      2255      2258      2260
      2256      2255      2258      2261      2257      2255      2258      2259
      2257      2255      2258      2260      2257      2255      2258      2261
      2259      2258      2261      2262      2259      2258      2261      2263
      2259      2258      2261      2264      2260      2258      2261      2262
      2260      2258      2261      2263      2260      2258      2261      2264
      2265      2266      2281      2282      2265      2266      2281      2283
      2265      2266      2281      2287      2266      2265      2269      2270
      2266      2265      2269      2271      2266      2265      2269      2272
      2266      2265      2273      2274      2266      2265      2273      2275
      2266      2265      2273      2276      2266      2265      2277      2278
      2266      2265      2277      2279      2266      2265      2277      2280
      2266      2281      2287      2284      2267      2266      2265      2269
      2267      2266      2265      2273      2267      2266      2265      2277
      2267      2266      2281      2282      2267      2266      2281      2283
      2267      2266      2281      2287      2268      2266      2265      2269
      2268      2266      2265      2273      2268      2266      2265      2277
      2268      2266      2281      2282      2268      2266      2281      2283
      2268      2266      2281      2287      2269      2265      2266      2281
      2269      2265      2273      2274      2269      2265      2273      2275
      2269      2265      2273      2276      2269      2265      2277      2278
      2269      2265      2277      2279      2269      2265      2277      2280
      2270      2269      2265      2273      2270      2269      2265      2277
      2271      2269      2265      2273      2271      2269      2265      2277
      2272      2269      2265      2273      2272      2269      2265      2277
      2273      2265      2266      2281      2273      2265      2277      2278
      2273      2265      2277      2279      2273      2265      2277      2280
      2274      2273      2265      2277      2275      2273      2265      2277
      2276      2273      2265      2277      2277      2265      2266      2281
      2281      2287      2284      2285      2281      2287      2284      2286
      2281      2287      2284      2288      2282      2281      2287      2284
      2283      2281      2287      2284      2284      2288      2289      2290
      2284      2288      2289      2291      2284      2288      2289      2292
      2285      2284      2288      2289      2286      2284      2288      2289
      2287      2284      2288      2289      2288      2289      2292      2293
      2288      2289      2292      2294      2288      2289      2292      2300
      2289      2292      2294      2295      2289      2292      2300      2301
      2289      2292      2300      2302      2289      2292      2300      2303
      2290      2289      2292      2293      2290      2289      2292      2294
      2290      2289      2292      2300      2291      2289      2292      2293
      2291      2289      2292      2294      2291      2289      2292      2300
      2292      2294      2295      2296      2292      2294      2295      2297
      2292      2300      2303      2304      2293      2292      2294      2295
      2293      2292      2300      2301      2293      2292      2300      2302
      2293      2292      2300      2303      2294      2292      2300      2301
      2294      2292      2300      2302      2294      2292      2300      2303
      2294      2295      2297      2298      2294      2295      2297      2299
      2294      2295      2297      2309      2295      2294      2292      2300
      2295      2297      2309      2310      2295      2297      2309      2311
      2295      2297      2309      2312      2296      2295      2297      2298
      2296      2295      2297      2299      2296      2295      2297      2309
      2297      2309      2312      2313      2297      2309      2312      2314
      2297      2309      2312      2315      2298      2297      2309      2310
      2298      2297      2309      2311      2298      2297      2309      2312
      2299      2297      2309      2310      2299      2297      2309      2311
      2299      2297      2309      2312      2300      2303      2304      2305
      2300      2303      2304      2306      2301      2300      2303      2304
      2302      2300      2303      2304      2303      2304      2306      2307
      2303      2304      2306      2308      2303      2304      2306      2356
      2304      2306      2356      2357      2304      2306      2356      2358
      2304      2306      2356      2359      2305      2304      2306      2307
      2305      2304      2306      2308      2305      2304      2306      2356
      2306      2356      2359      2360      2306      2356      2359      2361
      2306      2356      2359      2362      2307      2306      2356      2357
      2307      2306      2356      2358      2307      2306      2356      2359
      2308      2306      2356      2357      2308      2306      2356      2358
      2308      2306      2356      2359      2309      2312      2315      2316
      2309      2312      2315      2317      2309      2312      2315      2318
      2310      2309      2312      2313      2310      2309      2312      2314
      2310      2309      2312      2315      2311      2309      2312      2313
      2311      2309      2312      2314      2311      2309      2312      2315
      2312      2315      2318      2319      2312      2315      2318      2320
      2312      2315      2318      2321      2313      2312      2315      2316
      2313      2312      2315      2317      2313      2312      2315      2318
      2314      2312      2315      2316      2314      2312      2315      2317
      2314      2312      2315      2318      2315      2318      2321      2322
      2315      2318      2321      2323      2315      2318      2321      2324
      2316      2315      2318      2319      2316      2315      2318      2320
      2316      2315      2318      2321      2317      2315      2318      2319
      2317      2315      2318      2320      2317      2315      2318      2321
      2318      2321      2324      2325      2318      2321      2324      2326
      2318      2321      2324      2327      2319      2318      2321      2322
      2319      2318      2321      2323      2319      2318      2321      2324
      2320      2318      2321      2322      2320      2318      2321      2323
      2320      2318      2321      2324      2321      2324      2327      2328
      2321      2324      2327      2329      2322      2321      2324      2325
      2322      2321      2324      2326      2322      2321      2324      2327
      2323      2321      2324      2325      2323      2321      2324      2326
      2323      2321      2324      2327      2324      2327      2329      2330
      2324      2327      2329      2331      2325      2324      2327      2328
      2325      2324      2327      2329      2326      2324      2327      2328
      2326      2324      2327      2329      2327      2329      2331      2332
      2327      2329      2331      2333      2327      2329      2331      2334
      2328      2327      2329      2330      2328      2327      2329      2331
      2329      2331      2334      2335      2329      2331      2334      2336
      2329      2331      2334      2337      2330      2329      2331      2332
      2330      2329      2331      2333      2330      2329      2331      2334
      2331      2334      2337      2338      2331      2334      2337      2339
      2331      2334      2337      2340      2332      2331      2334      2335
      2332      2331      2334      2336      2332      2331      2334      2337
      2333      2331      2334      2335      2333      2331      2334      2336
      2333      2331      2334      2337      2334      2337      2340      2341
      2334      2337      2340      2342      2334      2337      2340      2343
      2335      2334      2337      2338      2335      2334      2337      2339
      2335      2334      2337      2340      2336      2334      2337      2338
      2336      2334      2337      2339      2336      2334      2337      2340
      2337      2340      2343      2344      2337      2340      2343      2345
      2337      2340      2343      2346      2338      2337      2340      2341
      2338      2337      2340      2342      2338      2337      2340      2343
      2339      2337      2340      2341      2339      2337      2340      2342
      2339      2337      2340      2343      2340      2343      2346      2347
      2340      2343      2346      2348      2340      2343      2346      2349
      2341      2340      2343      2344      2341      2340      2343      2345
      2341      2340      2343      2346      2342      2340      2343      2344
      2342      2340      2343      2345      2342      2340      2343      2346
      2343      2346      2349      2350      2343      2346      2349      2351
      2343      2346      2349      2352      2344      2343      2346      2347
      2344      2343      2346      2348      2344      2343      2346      2349
      2345      2343      2346      2347      2345      2343      2346      2348
      2345      2343      2346      2349      2346      2349      2352      2353
      2346      2349      2352      2354      2346      2349      2352      2355
      2347      2346      2349      2350      2347      2346      2349      2351
      2347      2346      2349      2352      2348      2346      2349      2350
      2348      2346      2349      2351      2348      2346      2349      2352
      2350      2349      2352      2353      2350      2349      2352      2354
      2350      2349      2352      2355      2351      2349      2352      2353
      2351      2349      2352      2354      2351      2349      2352      2355
      2356      2359      2362      2363      2356      2359      2362      2364
      2356      2359      2362      2365      2357      2356      2359      2360
      2357      2356      2359      2361      2357      2356      2359      2362
      2358      2356      2359      2360      2358      2356      2359      2361
      2358      2356      2359      2362      2359      2362      2365      2366
      2359      2362      2365      2367      2359      2362      2365      2368
      2360      2359      2362      2363      2360      2359      2362      2364
      2360      2359      2362      2365      2361      2359      2362      2363
      2361      2359      2362      2364      2361      2359      2362      2365
      2362      2365      2368      2369      2362      2365      2368      2370
      2362      2365      2368      2371      2363      2362      2365      2366
      2363      2362      2365      2367      2363      2362      2365      2368
      2364      2362      2365      2366      2364      2362      2365      2367
      2364      2362      2365      2368      2365      2368      2371      2372
      2365      2368      2371      2373      2365      2368      2371      2374
      2366      2365      2368      2369      2366      2365      2368      2370
      2366      2365      2368      2371      2367      2365      2368      2369
      2367      2365      2368      2370      2367      2365      2368      2371
      2368      2371      2374      2375      2368      2371      2374      2376
      2368      2371      2374      2377      2369      2368      2371      2372
      2369      2368      2371      2373      2369      2368      2371      2374
      2370      2368      2371      2372      2370      2368      2371      2373
      2370      2368      2371      2374      2371      2374      2377      2378
      2371      2374      2377      2379      2371      2374      2377      2380
      2372      2371      2374      2375      2372      2371      2374      2376
      2372      2371      2374      2377      2373      2371      2374      2375
      2373      2371      2374      2376      2373      2371      2374      2377
      2374      2377      2380      2381      2374      2377      2380      2382
      2374      2377      2380      2383      2375      2374      2377      2378
      2375      2374      2377      2379      2375      2374      2377      2380
      2376      2374      2377      2378      2376      2374      2377      2379
      2376      2374      2377      2380      2377      2380      2383      2384
      2377      2380      2383      2385      2377      2380      2383      2386
      2378      2377      2380      2381      2378      2377      2380      2382
      2378      2377      2380      2383      2379      2377      2380      2381
      2379      2377      2380      2382      2379      2377      2380      2383
      2380      2383      2386      2387      2380      2383      2386      2388
      2380      2383      2386      2389      2381      2380      2383      2384
      2381      2380      2383      2385      2381      2380      2383      2386
      2382      2380      2383      2384      2382      2380      2383      2385
      2382      2380      2383      2386      2383      2386      2389      2390
      2383      2386      2389      2391      2383      2386      2389      2392
      2384      2383      2386      2387      2384      2383      2386      2388
      2384      2383      2386      2389      2385      2383      2386      2387
      2385      2383      2386      2388      2385      2383      2386      2389
      2386      2389      2392      2393      2386      2389      2392      2394
      2386      2389      2392      2395      2387      2386      2389      2390
      2387      2386      2389      2391      2387      2386      2389      2392
      2388      2386      2389      2390      2388      2386      2389      2391
      2388      2386      2389      2392      2389      2392      2395      2396
      2389      2392      2395      2397      2389      2392      2395      2398
      2390      2389      2392      2393      2390      2389      2392      2394
      2390      2389      2392      2395      2391      2389      2392      2393
      2391      2389      2392      2394      2391      2389      2392      2395
      2393      2392      2395      2396      2393      2392      2395      2397
      2393      2392      2395      2398      2394      2392      2395      2396
      2394      2392      2395      2397      2394      2392      2395      2398
      2399      2400      2415      2416      2399      2400      2415      2417
      2399      2400      2415      2421      2400      2399      2403      2404
      2400      2399      2403      2405      2400      2399      2403      2406
      2400      2399      2407      2408      2400      2399      2407      2409
      2400      2399      2407      2410      2400      2399      2411      2412
      2400      2399      2411      2413      2400      2399      2411      2414
      2400      2415      2421      2418      2401      2400      2399      2403
      2401      2400      2399      2407      2401      2400      2399      2411
      2401      2400      2415      2416      2401      2400      2415      2417
      2401      2400      2415      2421      2402      2400      2399      2403
      2402      2400      2399      2407      2402      2400      2399      2411
      2402      2400      2415      2416      2402      2400      2415      2417
      2402      2400      2415      2421      2403      2399      2400      2415
      2403      2399      2407      2408      2403      2399      2407      2409
      2403      2399      2407      2410      2403      2399      2411      2412
      2403      2399      2411      2413      2403      2399      2411      2414
      2404      2403      2399      2407      2404      2403      2399      2411
      2405      2403      2399      2407      2405      2403      2399      2411
      2406      2403      2399      2407      2406      2403      2399      2411
      2407      2399      2400      2415      2407      2399      2411      2412
      2407      2399      2411      2413      2407      2399      2411      2414
      2408      2407      2399      2411      2409      2407      2399      2411
      2410      2407      2399      2411      2411      2399      2400      2415
      2415      2421      2418      2419      2415      2421      2418      2420
      2415      2421      2418      2422      2416      2415      2421      2418
      2417      2415      2421      2418      2418      2422      2423      2424
      2418      2422      2423      2425      2418      2422      2423      2426
      2419      2418      2422      2423      2420      2418      2422      2423
      2421      2418      2422      2423      2422      2423      2426      2427
      2422      2423      2426      2428      2422      2423      2426      2434
      2423      2426      2428      2429      2423      2426      2434      2435
      2423      2426      2434      2436      2423      2426      2434      2437
      2424      2423      2426      2427      2424      2423      2426      2428
      2424      2423      2426      2434      2425      2423      2426      2427
      2425      2423      2426      2428      2425      2423      2426      2434
      2426      2428      2429      2430      2426      2428      2429      2431
      2426      2434      2437      2438      2427      2426      2428      2429
      2427      2426      2434      2435      2427      2426      2434      2436
      2427      2426      2434      2437      2428      2426      2434      2435
      2428      2426      2434      2436      2428      2426      2434      2437
      2428      2429      2431      2432      2428      2429      2431      2433
      2428      2429      2431      2443      2429      2428      2426      2434
      2429      2431      2443      2444      2429      2431      2443      2445
      2429      2431      2443      2446      2430      2429      2431      2432
      2430      2429      2431      2433      2430      2429      2431      2443
      2431      2443      2446      2447      2431      2443      2446      2448
      2431      2443      2446      2449      2432      2431      2443      2444
      2432      2431      2443      2445      2432      2431      2443      2446
      2433      2431      2443      2444      2433      2431      2443      2445
      2433      2431      2443      2446      2434      2437      2438      2439
      2434      2437      2438      2440      2435      2434      2437      2438
      2436      2434      2437      2438      2437      2438      2440      2441
      2437      2438      2440      2442      2437      2438      2440      2490
      2438      2440      2490      2491      2438      2440      2490      2492
      2438      2440      2490      2493      2439      2438      2440      2441
      2439      2438      2440      2442      2439      2438      2440      2490
      2440      2490      2493      2494      2440      2490      2493      2495
      2440      2490      2493      2496      2441      2440      2490      2491
      2441      2440      2490      2492      2441      2440      2490      2493
      2442      2440      2490      2491      2442      2440      2490      2492
      2442      2440      2490      2493      2443      2446      2449      2450
      2443      2446      2449      2451      2443      2446      2449      2452
      2444      2443      2446      2447      2444      2443      2446      2448
      2444      2443      2446      2449      2445      2443      2446      2447
      2445      2443      2446      2448      2445      2443      2446      2449
      2446      2449      2452      2453      2446      2449      2452      2454
      2446      2449      2452      2455      2447      2446      2449      2450
      2447      2446      2449      2451      2447      2446      2449      2452
      2448      2446      2449      2450      2448      2446      2449      2451
      2448      2446      2449      2452      2449      2452      2455      2456
      2449      2452      2455      2457      2449      2452      2455      2458
      2450      2449      2452      2453      2450      2449      2452      2454
      2450      2449      2452      2455      2451      2449      2452      2453
      2451      2449      2452      2454      2451      2449      2452      2455
      2452      2455      2458      2459      2452      2455      2458      2460
      2452      2455      2458      2461      2453      2452      2455      2456
      2453      2452      2455      2457      2453      2452      2455      2458
      2454      2452      2455      2456      2454      2452      2455      2457
      2454      2452      2455      2458      2455      2458      2461      2462
      2455      2458      2461      2463      2456      2455      2458      2459
      2456      2455      2458      2460      2456      2455      2458      2461
      2457      2455      2458      2459      2457      2455      2458      2460
      2457      2455      2458      2461      2458      2461      2463      2464
      2458      2461      2463      2465      2459      2458      2461      2462
      2459      2458      2461      2463      2460      2458      2461      2462
      2460      2458      2461      2463      2461      2463      2465      2466
      2461      2463      2465      2467      2461      2463      2465      2468
      2462      2461      2463      2464      2462      2461      2463      2465
      2463      2465      2468      2469      2463      2465      2468      2470
      2463      2465      2468      2471      2464      2463      2465      2466
      2464      2463      2465      2467      2464      2463      2465      2468
      2465      2468      2471      2472      2465      2468      2471      2473
      2465      2468      2471      2474      2466      2465      2468      2469
      2466      2465      2468      2470      2466      2465      2468      2471
      2467      2465      2468      2469      2467      2465      2468      2470
      2467      2465      2468      2471      2468      2471      2474      2475
      2468      2471      2474      2476      2468      2471      2474      2477
      2469      2468      2471      2472      2469      2468      2471      2473
      2469      2468      2471      2474      2470      2468      2471      2472
      2470      2468      2471      2473      2470      2468      2471      2474
      2471      2474      2477      2478      2471      2474      2477      2479
      2471      2474      2477      2480      2472      2471      2474      2475
      2472      2471      2474      2476      2472      2471      2474      2477
      2473      2471      2474      2475      2473      2471      2474      2476
      2473      2471      2474      2477      2474      2477      2480      2481
      2474      2477      2480      2482      2474      2477      2480      2483
      2475      2474      2477      2478      2475      2474      2477      2479
      2475      2474      2477      2480      2476      2474      2477      2478
      2476      2474      2477      2479      2476      2474      2477      2480
      2477      2480      2483      2484      2477      2480      2483      2485
      2477      2480      2483      2486      2478      2477      2480      2481
      2478      2477      2480      2482      2478      2477      2480      2483
      2479      2477      2480      2481      2479      2477      2480      2482
      2479      2477      2480      2483      2480      2483      2486      2487
      2480      2483      2486      2488      2480      2483      2486      2489
      2481      2480      2483      2484      2481      2480      2483      2485
      2481      2480      2483      2486      2482      2480      2483      2484
      2482      2480      2483      2485      2482      2480      2483      2486
      2484      2483      2486      2487      2484      2483      2486      2488
      2484      2483      2486      2489      2485      2483      2486      2487
      2485      2483      2486      2488      2485      2483      2486      2489
      2490      2493      2496      2497      2490      2493      2496      2498
      2490      2493      2496      2499      2491      2490      2493      2494
      2491      2490      2493      2495      2491      2490      2493      2496
      2492      2490      2493      2494      2492      2490      2493      2495
      2492      2490      2493      2496      2493      2496      2499      2500
      2493      2496      2499      2501      2493      2496      2499      2502
      2494      2493      2496      2497      2494      2493      2496      2498
      2494      2493      2496      2499      2495      2493      2496      2497
      2495      2493      2496      2498      2495      2493      2496      2499
      2496      2499      2502      2503      2496      2499      2502      2504
      2496      2499      2502      2505      2497      2496      2499      2500
      2497      2496      2499      2501      2497      2496      2499      2502
      2498      2496      2499      2500      2498      2496      2499      2501
      2498      2496      2499      2502      2499      2502      2505      2506
      2499      2502      2505      2507      2499      2502      2505      2508
      2500      2499      2502      2503      2500      2499      2502      2504
      2500      2499      2502      2505      2501      2499      2502      2503
      2501      2499      2502      2504      2501      2499      2502      2505
      2502      2505      2508      2509      2502      2505      2508      2510
      2502      2505      2508      2511      2503      2502      2505      2506
      2503      2502      2505      2507      2503      2502      2505      2508
      2504      2502      2505      2506      2504      2502      2505      2507
      2504      2502      2505      2508      2505      2508      2511      2512
      2505      2508      2511      2513      2505      2508      2511      2514
      2506      2505      2508      2509      2506      2505      2508      2510
      2506      2505      2508      2511      2507      2505      2508      2509
      2507      2505      2508      2510      2507      2505      2508      2511
      2508      2511      2514      2515      2508      2511      2514      2516
      2508      2511      2514      2517      2509      2508      2511      2512
      2509      2508      2511      2513      2509      2508      2511      2514
      2510      2508      2511      2512      2510      2508      2511      2513
      2510      2508      2511      2514      2511      2514      2517      2518
      2511      2514      2517      2519      2511      2514      2517      2520
      2512      2511      2514      2515      2512      2511      2514      2516
      2512      2511      2514      2517      2513      2511      2514      2515
      2513      2511      2514      2516      2513      2511      2514      2517
      2514      2517      2520      2521      2514      2517      2520      2522
      2514      2517      2520      2523      2515      2514      2517      2518
      2515      2514      2517      2519      2515      2514      2517      2520
      2516      2514      2517      2518      2516      2514      2517      2519
      2516      2514      2517      2520      2517      2520      2523      2524
      2517      2520      2523      2525      2517      2520      2523      2526
      2518      2517      2520      2521      2518      2517      2520      2522
      2518      2517      2520      2523      2519      2517      2520      2521
      2519      2517      2520      2522      2519      2517      2520      2523
      2520      2523      2526      2527      2520      2523      2526      2528
      2520      2523      2526      2529      2521      2520      2523      2524
      2521      2520      2523      2525      2521      2520      2523      2526
      2522      2520      2523      2524      2522      2520      2523      2525
      2522      2520      2523      2526      2523      2526      2529      2530
      2523      2526      2529      2531      2523      2526      2529      2532
      2524      2523      2526      2527      2524      2523      2526      2528
      2524      2523      2526      2529      2525      2523      2526      2527
      2525      2523      2526      2528      2525      2523      2526      2529
      2527      2526      2529      2530      2527      2526      2529      2531
      2527      2526      2529      2532      2528      2526      2529      2530
      2528      2526      2529      2531      2528      2526      2529      2532
      2533      2534      2549      2550      2533      2534      2549      2551
      2533      2534      2549      2555      2534      2533      2537      2538
      2534      2533      2537      2539      2534      2533      2537      2540
      2534      2533      2541      2542      2534      2533      2541      2543
      2534      2533      2541      2544      2534      2533      2545      2546
      2534      2533      2545      2547      2534      2533      2545      2548
      2534      2549      2555      2552      2535      2534      2533      2537
      2535      2534      2533      2541      2535      2534      2533      2545
      2535      2534      2549      2550      2535      2534      2549      2551
      2535      2534      2549      2555      2536      2534      2533      2537
      2536      2534      2533      2541      2536      2534      2533      2545
      2536      2534      2549      2550      2536      2534      2549      2551
      2536      2534      2549      2555      2537      2533      2534      2549
      2537      2533      2541      2542      2537      2533      2541      2543
      2537      2533      2541      2544      2537      2533      2545      2546
      2537      2533      2545      2547      2537      2533      2545      2548
      2538      2537      2533      2541      2538      2537      2533      2545
      2539      2537      2533      2541      2539      2537      2533      2545
      2540      2537      2533      2541      2540      2537      2533      2545
      2541      2533      2534      2549      2541      2533      2545      2546
      2541      2533      2545      2547      2541      2533      2545      2548
      2542      2541      2533      2545      2543      2541      2533      2545
      2544      2541      2533      2545      2545      2533      2534      2549
      2549      2555      2552      2553      2549      2555      2552      2554
      2549      2555      2552      2556      2550      2549      2555      2552
      2551      2549      2555      2552      2552      2556      2557      2558
      2552      2556      2557      2559      2552      2556      2557      2560
      2553      2552      2556      2557      2554      2552      2556      2557
      2555      2552      2556      2557      2556      2557      2560      2561
      2556      2557      2560      2562      2556      2557      2560      2568
      2557      2560      2562      2563      2557      2560      2568      2569
      2557      2560      2568      2570      2557      2560      2568      2571
      2558      2557      2560      2561      2558      2557      2560      2562
      2558      2557      2560      2568      2559      2557      2560      2561
      2559      2557      2560      2562      2559      2557      2560      2568
      2560      2562      2563      2564      2560      2562      2563      2565
      2560      2568      2571      2572      2561      2560      2562      2563
      2561      2560      2568      2569      2561      2560      2568      2570
      2561      2560      2568      2571      2562      2560      2568      2569
      2562      2560      2568      2570      2562      2560      2568      2571
      2562      2563      2565      2566      2562      2563      2565      2567
      2562      2563      2565      2577      2563      2562      2560      2568
      2563      2565      2577      2578      2563      2565      2577      2579
      2563      2565      2577      2580      2564      2563      2565      2566
      2564      2563      2565      2567      2564      2563      2565      2577
      2565      2577      2580      2581      2565      2577      2580      2582
      2565      2577      2580      2583      2566      2565      2577      2578
      2566      2565      2577      2579      2566      2565      2577      2580
      2567      2565      2577      2578      2567      2565      2577      2579
      2567      2565      2577      2580      2568      2571      2572      2573
      2568      2571      2572      2574      2569      2568      2571      2572
      2570      2568      2571      2572      2571      2572      2574      2575
      2571      2572      2574      2576      2571      2572      2574      2624
      2572      2574      2624      2625      2572      2574      2624      2626
      2572      2574      2624      2627      2573      2572      2574      2575
      2573      2572      2574      2576      2573      2572      2574      2624
      2574      2624      2627      2628      2574      2624      2627      2629
      2574      2624      2627      2630      2575      2574      2624      2625
      2575      2574      2624      2626      2575      2574      2624      2627
      2576      2574      2624      2625      2576      2574      2624      2626
      2576      2574      2624      2627      2577      2580      2583      2584
      2577      2580      2583      2585      2577      2580      2583      2586
      2578      2577      2580      2581      2578      2577      2580      2582
      2578      2577      2580      2583      2579      2577      2580      2581
      2579      2577      2580      2582      2579      2577      2580      2583
      2580      2583      2586      2587      2580      2583      2586      2588
      2580      2583      2586      2589      2581      2580      2583      2584
      2581      2580      2583      2585      2581      2580      2583      2586
      2582      2580      2583      2584      2582      2580      2583      2585
      2582      2580      2583      2586      2583      2586      2589      2590
      2583      2586      2589      2591      2583      2586      2589      2592
      2584      2583      2586      2587      2584      2583      2586      2588
      2584      2583      2586      2589      2585      2583      2586      2587
      2585      2583      2586      2588      2585      2583      2586      2589
      2586      2589      2592      2593      2586      2589      2592      2594
      2586      2589      2592      2595      2587      2586      2589      2590
      2587      2586      2589      2591      2587      2586      2589      2592
      2588      2586      2589      2590      2588      2586      2589      2591
      2588      2586      2589      2592      2589      2592      2595      2596
      2589      2592      2595      2597      2590      2589      2592      2593
      2590      2589      2592      2594      2590      2589      2592      2595
      2591      2589      2592      2593      2591      2589      2592      2594
      2591      2589      2592      2595      2592      2595      2597      2598
      2592      2595      2597      2599      2593      2592      2595      2596
      2593      2592      2595      2597      2594      2592      2595      2596
      2594      2592      2595      2597      2595      2597      2599      2600
      2595      2597      2599      2601      2595      2597      2599      2602
      2596      2595      2597      2598      2596      2595      2597      2599
      2597      2599      2602      2603      2597      2599      2602      2604
      2597      2599      2602      2605      2598      2597      2599      2600
      2598      2597      2599      2601      2598      2597      2599      2602
      2599      2602      2605      2606      2599      2602      2605      2607
      2599      2602      2605      2608      2600      2599      2602      2603
      2600      2599      2602      2604      2600      2599      2602      2605
      2601      2599      2602      2603      2601      2599      2602      2604
      2601      2599      2602      2605      2602      2605      2608      2609
      2602      2605      2608      2610      2602      2605      2608      2611
      2603      2602      2605      2606      2603      2602      2605      2607
      2603      2602      2605      2608      2604      2602      2605      2606
      2604      2602      2605      2607      2604      2602      2605      2608
      2605      2608      2611      2612      2605      2608      2611      2613
      2605      2608      2611      2614      2606      2605      2608      2609
      2606      2605      2608      2610      2606      2605      2608      2611
      2607      2605      2608      2609      2607      2605      2608      2610
      2607      2605      2608      2611      2608      2611      2614      2615
      2608      2611      2614      2616      2608      2611      2614      2617
      2609      2608      2611      2612      2609      2608      2611      2613
      2609      2608      2611      2614      2610      2608      2611      2612
      2610      2608      2611      2613      2610      2608      2611      2614
      2611      2614      2617      2618      2611      2614      2617      2619
      2611      2614      2617      2620      2612      2611      2614      2615
      2612      2611      2614      2616      2612      2611      2614      2617
      2613      2611      2614      2615      2613      2611      2614      2616
      2613      2611      2614      2617      2614      2617      2620      2621
      2614      2617      2620      2622      2614      2617      2620      2623
      2615      2614      2617      2618      2615      2614      2617      2619
      2615      2614      2617      2620      2616      2614      2617      2618
      2616      2614      2617      2619      2616      2614      2617      2620
      2618      2617      2620      2621      2618      2617      2620      2622
      2618      2617      2620      2623      2619      2617      2620      2621
      2619      2617      2620      2622      2619      2617      2620      2623
      2624      2627      2630      2631      2624      2627      2630      2632
      2624      2627      2630      2633      2625      2624      2627      2628
      2625      2624      2627      2629      2625      2624      2627      2630
      2626      2624      2627      2628      2626      2624      2627      2629
      2626      2624      2627      2630      2627      2630      2633      2634
      2627      2630      2633      2635      2627      2630      2633      2636
      2628      2627      2630      2631      2628      2627      2630      2632
      2628      2627      2630      2633      2629      2627      2630      2631
      2629      2627      2630      2632      2629      2627      2630      2633
      2630      2633      2636      2637      2630      2633      2636      2638
      2630      2633      2636      2639      2631      2630      2633      2634
      2631      2630      2633      2635      2631      2630      2633      2636
      2632      2630      2633      2634      2632      2630      2633      2635
      2632      2630      2633      2636      2633      2636      2639      2640
      2633      2636      2639      2641      2633      2636      2639      2642
      2634      2633      2636      2637      2634      2633      2636      2638
      2634      2633      2636      2639      2635      2633      2636      2637
      2635      2633      2636      2638      2635      2633      2636      2639
      2636      2639      2642      2643      2636      2639      2642      2644
      2636      2639      2642      2645      2637      2636      2639      2640
      2637      2636      2639      2641      2637      2636      2639      2642
      2638      2636      2639      2640      2638      2636      2639      2641
      2638      2636      2639      2642      2639      2642      2645      2646
      2639      2642      2645      2647      2639      2642      2645      2648
      2640      2639      2642      2643      2640      2639      2642      2644
      2640      2639      2642      2645      2641      2639      2642      2643
      2641      2639      2642      2644      2641      2639      2642      2645
      2642      2645      2648      2649      2642      2645      2648      2650
      2642      2645      2648      2651      2643      2642      2645      2646
      2643      2642      2645      2647      2643      2642      2645      2648
      2644      2642      2645      2646      2644      2642      2645      2647
      2644      2642      2645      2648      2645      2648      2651      2652
      2645      2648      2651      2653      2645      2648      2651      2654
      2646      2645      2648      2649      2646      2645      2648      2650
      2646      2645      2648      2651      2647      2645      2648      2649
      2647      2645      2648      2650      2647      2645      2648      2651
      2648      2651      2654      2655      2648      2651      2654      2656
      2648      2651      2654      2657      2649      2648      2651      2652
      2649      2648      2651      2653      2649      2648      2651      2654
      2650      2648      2651      2652      2650      2648      2651      2653
      2650      2648      2651      2654      2651      2654      2657      2658
      2651      2654      2657      2659      2651      2654      2657      2660
      2652      2651      2654      2655      2652      2651      2654      2656
      2652      2651      2654      2657      2653      2651      2654      2655
      2653      2651      2654      2656      2653      2651      2654      2657
      2654      2657      2660      2661      2654      2657      2660      2662
      2654      2657      2660      2663      2655      2654      2657      2658
      2655      2654      2657      2659      2655      2654      2657      2660
      2656      2654      2657      2658      2656      2654      2657      2659
      2656      2654      2657      2660      2657      2660      2663      2664
      2657      2660      2663      2665      2657      2660      2663      2666
      2658      2657      2660      2661      2658      2657      2660      2662
      2658      2657      2660      2663      2659      2657      2660      2661
      2659      2657      2660      2662      2659      2657      2660      2663
      2661      2660      2663      2664      2661      2660      2663      2665
      2661      2660      2663      2666      2662      2660      2663      2664
      2662      2660      2663      2665      2662      2660      2663      2666
      2667      2668      2683      2684      2667      2668      2683      2685
      2667      2668      2683      2689      2668      2667      2671      2672
      2668      2667      2671      2673      2668      2667      2671      2674
      2668      2667      2675      2676      2668      2667      2675      2677
      2668      2667      2675      2678      2668      2667      2679      2680
      2668      2667      2679      2681      2668      2667      2679      2682
      2668      2683      2689      2686      2669      2668      2667      2671
      2669      2668      2667      2675      2669      2668      2667      2679
      2669      2668      2683      2684      2669      2668      2683      2685
      2669      2668      2683      2689      2670      2668      2667      2671
      2670      2668      2667      2675      2670      2668      2667      2679
      2670      2668      2683      2684      2670      2668      2683      2685
      2670      2668      2683      2689      2671      2667      2668      2683
      2671      2667      2675      2676      2671      2667      2675      2677
      2671      2667      2675      2678      2671      2667      2679      2680
      2671      2667      2679      2681      2671      2667      2679      2682
      2672      2671      2667      2675      2672      2671      2667      2679
      2673      2671      2667      2675      2673      2671      2667      2679
      2674      2671      2667      2675      2674      2671      2667      2679
      2675      2667      2668      2683      2675      2667      2679      2680
      2675      2667      2679      2681      2675      2667      2679      2682
      2676      2675      2667      2679      2677      2675      2667      2679
      2678      2675      2667      2679      2679      2667      2668      2683
      2683      2689      2686      2687      2683      2689      2686      2688
      2683      2689      2686      2690      2684      2683      2689      2686
      2685      2683      2689      2686      2686      2690      2691      2692
      2686      2690      2691      2693      2686      2690      2691      2694
      2687      2686      2690      2691      2688      2686      2690      2691
      2689      2686      2690      2691      2690      2691      2694      2695
      2690      2691      2694      2696      2690      2691      2694      2702
      2691      2694      2696      2697      2691      2694      2702      2703
      2691      2694      2702      2704      2691      2694      2702      2705
      2692      2691      2694      2695      2692      2691      2694      2696
      2692      2691      2694      2702      2693      2691      2694      2695
      2693      2691      2694      2696      2693      2691      2694      2702
      2694      2696      2697      2698      2694      2696      2697      2699
      2694      2702      2705      2706      2695      2694      2696      2697
      2695      2694      2702      2703      2695      2694      2702      2704
      2695      2694      2702      2705      2696      2694      2702      2703
      2696      2694      2702      2704      2696      2694      2702      2705
      2696      2697      2699      2700      2696      2697      2699      2701
      2696      2697      2699      2711      2697      2696      2694      2702
      2697      2699      2711      2712      2697      2699      2711      2713
      2697      2699      2711      2714      2698      2697      2699      2700
      2698      2697      2699      2701      2698      2697      2699      2711
      2699      2711      2714      2715      2699      2711      2714      2716
      2699      2711      2714      2717      2700      2699      2711      2712
      2700      2699      2711      2713      2700      2699      2711      2714
      2701      2699      2711      2712      2701      2699      2711      2713
      2701      2699      2711      2714      2702      2705      2706      2707
      2702      2705      2706      2708      2703      2702      2705      2706
      2704      2702      2705      2706      2705      2706      2708      2709
      2705      2706      2708      2710      2705      2706      2708      2758
      2706      2708      2758      2759      2706      2708      2758      2760
      2706      2708      2758      2761      2707      2706      2708      2709
      2707      2706      2708      2710      2707      2706      2708      2758
      2708      2758      2761      2762      2708      2758      2761      2763
      2708      2758      2761      2764      2709      2708      2758      2759
      2709      2708      2758      2760      2709      2708      2758      2761
      2710      2708      2758      2759      2710      2708      2758      2760
      2710      2708      2758      2761      2711      2714      2717      2718
      2711      2714      2717      2719      2711      2714      2717      2720
      2712      2711      2714      2715      2712      2711      2714      2716
      2712      2711      2714      2717      2713      2711      2714      2715
      2713      2711      2714      2716      2713      2711      2714      2717
      2714      2717      2720      2721      2714      2717      2720      2722
      2714      2717      2720      2723      2715      2714      2717      2718
      2715      2714      2717      2719      2715      2714      2717      2720
      2716      2714      2717      2718      2716      2714      2717      2719
      2716      2714      2717      2720      2717      2720      2723      2724
      2717      2720      2723      2725      2717      2720      2723      2726
      2718      2717      2720      2721      2718      2717      2720      2722
      2718      2717      2720      2723      2719      2717      2720      2721
      2719      2717      2720      2722      2719      2717      2720      2723
      2720      2723      2726      2727      2720      2723      2726      2728
      2720      2723      2726      2729      2721      2720      2723      2724
      2721      2720      2723      2725      2721      2720      2723      2726
      2722      2720      2723      2724      2722      2720      2723      2725
      2722      2720      2723      2726      2723      2726      2729      2730
      2723      2726      2729      2731      2724      2723      2726      2727
      2724      2723      2726      2728      2724      2723      2726      2729
      2725      2723      2726      2727      2725      2723      2726      2728
      2725      2723      2726      2729      2726      2729      2731      2732
      2726      2729      2731      2733      2727      2726      2729      2730
      2727      2726      2729      2731      2728      2726      2729      2730
      2728      2726      2729      2731      2729      2731      2733      2734
      2729      2731      2733      2735      2729      2731      2733      2736
      2730      2729      2731      2732      2730      2729      2731      2733
      2731      2733      2736      2737      2731      2733      2736      2738
      2731      2733      2736      2739      2732      2731      2733      2734
      2732      2731      2733      2735      2732      2731      2733      2736
      2733      2736      2739      2740      2733      2736      2739      2741
      2733      2736      2739      2742      2734      2733      2736      2737
      2734      2733      2736      2738      2734      2733      2736      2739
      2735      2733      2736      2737      2735      2733      2736      2738
      2735      2733      2736      2739      2736      2739      2742      2743
      2736      2739      2742      2744      2736      2739      2742      2745
      2737      2736      2739      2740      2737      2736      2739      2741
      2737      2736      2739      2742      2738      2736      2739      2740
      2738      2736      2739      2741      2738      2736      2739      2742
      2739      2742      2745      2746      2739      2742      2745      2747
      2739      2742      2745      2748      2740      2739      2742      2743
      2740      2739      2742      2744      2740      2739      2742      2745
      2741      2739      2742      2743      2741      2739      2742      2744
      2741      2739      2742      2745      2742      2745      2748      2749
      2742      2745      2748      2750      2742      2745      2748      2751
      2743      2742      2745      2746      2743      2742      2745      2747
      2743      2742      2745      2748      2744      2742      2745      2746
      2744      2742      2745      2747      2744      2742      2745      2748
      2745      2748      2751      2752      2745      2748      2751      2753
      2745      2748      2751      2754      2746      2745      2748      2749
      2746      2745      2748      2750      2746      2745      2748      2751
      2747      2745      2748      2749      2747      2745      2748      2750
      2747      2745      2748      2751      2748      2751      2754      2755
      2748      2751      2754      2756      2748      2751      2754      2757
      2749      2748      2751      2752      2749      2748      2751      2753
      2749      2748      2751      2754      2750      2748      2751      2752
      2750      2748      2751      2753      2750      2748      2751      2754
      2752      2751      2754      2755      2752      2751      2754      2756
      2752      2751      2754      2757      2753      2751      2754      2755
      2753      2751      2754      2756      2753      2751      2754      2757
      2758      2761      2764      2765      2758      2761      2764      2766
      2758      2761      2764      2767      2759      2758      2761      2762
      2759      2758      2761      2763      2759      2758      2761      2764
      2760      2758      2761      2762      2760      2758      2761      2763
      2760      2758      2761      2764      2761      2764      2767      2768
      2761      2764      2767      2769      2761      2764      2767      2770
      2762      2761      2764      2765      2762      2761      2764      2766
      2762      2761      2764      2767      2763      2761      2764      2765
      2763      2761      2764      2766      2763      2761      2764      2767
      2764      2767      2770      2771      2764      2767      2770      2772
      2764      2767      2770      2773      2765      2764      2767      2768
      2765      2764      2767      2769      2765      2764      2767      2770
      2766      2764      2767      2768      2766      2764      2767      2769
      2766      2764      2767      2770      2767      2770      2773      2774
      2767      2770      2773      2775      2767      2770      2773      2776
      2768      2767      2770      2771      2768      2767      2770      2772
      2768      2767      2770      2773      2769      2767      2770      2771
      2769      2767      2770      2772      2769      2767      2770      2773
      2770      2773      2776      2777      2770      2773      2776      2778
      2770      2773      2776      2779      2771      2770      2773      2774
      2771      2770      2773      2775      2771      2770      2773      2776
      2772      2770      2773      2774      2772      2770      2773      2775
      2772      2770      2773      2776      2773      2776      2779      2780
      2773      2776      2779      2781      2773      2776      2779      2782
      2774      2773      2776      2777      2774      2773      2776      2778
      2774      2773      2776      2779      2775      2773      2776      2777
      2775      2773      2776      2778      2775      2773      2776      2779
      2776      2779      2782      2783      2776      2779      2782      2784
      2776      2779      2782      2785      2777      2776      2779      2780
      2777      2776      2779      2781      2777      2776      2779      2782
      2778      2776      2779      2780      2778      2776      2779      2781
      2778      2776      2779      2782      2779      2782      2785      2786
      2779      2782      2785      2787      2779      2782      2785      2788
      2780      2779      2782      2783      2780      2779      2782      2784
      2780      2779      2782      2785      2781      2779      2782      2783
      2781      2779      2782      2784      2781      2779      2782      2785
      2782      2785      2788      2789      2782      2785      2788      2790
      2782      2785      2788      2791      2783      2782      2785      2786
      2783      2782      2785      2787      2783      2782      2785      2788
      2784      2782      2785      2786      2784      2782      2785      2787
      2784      2782      2785      2788      2785      2788      2791      2792
      2785      2788      2791      2793      2785      2788      2791      2794
      2786      2785      2788      2789      2786      2785      2788      2790
      2786      2785      2788      2791      2787      2785      2788      2789
      2787      2785      2788      2790      2787      2785      2788      2791
      2788      2791      2794      2795      2788      2791      2794      2796
      2788      2791      2794      2797      2789      2788      2791      2792
      2789      2788      2791      2793      2789      2788      2791      2794
      2790      2788      2791      2792      2790      2788      2791      2793
      2790      2788      2791      2794      2791      2794      2797      2798
      2791      2794      2797      2799      2791      2794      2797      2800
      2792      2791      2794      2795      2792      2791      2794      2796
      2792      2791      2794      2797      2793      2791      2794      2795
      2793      2791      2794      2796      2793      2791      2794      2797
      2795      2794      2797      2798      2795      2794      2797      2799
      2795      2794      2797      2800      2796      2794      2797      2798
      2796      2794      2797      2799      2796      2794      2797      2800
      2801      2805      2807      2808      2801      2805      2807      2809
      2801      2805      2810      2811      2801      2805      2810      2812
      2801      2805      2810      2816      2802      2801      2805      2806
      2802      2801      2805      2807      2802      2801      2805      2810
      2803      2801      2805      2806      2803      2801      2805      2807
      2803      2801      2805      2810      2804      2801      2805      2806
      2804      2801      2805      2807      2804      2801      2805      2810
      2805      2810      2816      2813      2806      2805      2807      2808
      2806      2805      2807      2809      2806      2805      2810      2811
      2806      2805      2810      2812      2806      2805      2810      2816
      2807      2805      2810      2811      2807      2805      2810      2812
      2807      2805      2810      2816      2808      2807      2805      2810
      2809      2807      2805      2810      2810      2816      2813      2814
      2810      2816      2813      2815      2810      2816      2813      2817
      2811      2810      2816      2813      2812      2810      2816      2813
      2813      2817      2818      2819      2813      2817      2818      2820
      2813      2817      2818      2821      2814      2813      2817      2818
      2815      2813      2817      2818      2816      2813      2817      2818
      2817      2818      2821      2822      2817      2818      2821      2823
      2817      2818      2821      2829      2818      2821      2823      2824
      2818      2821      2829      2830      2818      2821      2829      2831
      2818      2821      2829      2832      2819      2818      2821      2822
      2819      2818      2821      2823      2819      2818      2821      2829
      2820      2818      2821      2822      2820      2818      2821      2823
      2820      2818      2821      2829      2821      2823      2824      2825
      2821      2823      2824      2826      2821      2829      2832      2833
      2822      2821      2823      2824      2822      2821      2829      2830
      2822      2821      2829      2831      2822      2821      2829      2832
      2823      2821      2829      2830      2823      2821      2829      2831
      2823      2821      2829      2832      2823      2824      2826      2827
      2823      2824      2826      2828      2823      2824      2826      2838
      2824      2823      2821      2829      2824      2826      2838      2839
      2824      2826      2838      2840      2824      2826      2838      2841
      2825      2824      2826      2827      2825      2824      2826      2828
      2825      2824      2826      2838      2826      2838      2841      2842
      2826      2838      2841      2843      2826      2838      2841      2844
      2827      2826      2838      2839      2827      2826      2838      2840
      2827      2826      2838      2841      2828      2826      2838      2839
      2828      2826      2838      2840      2828      2826      2838      2841
      2829      2832      2833      2834      2829      2832      2833      2835
      2830      2829      2832      2833      2831      2829      2832      2833
      2832      2833      2835      2836      2832      2833      2835      2837
      2832      2833      2835      2885      2833      2835      2885      2886
      2833      2835      2885      2887      2833      2835      2885      2888
      2834      2833      2835      2836      2834      2833      2835      2837
      2834      2833      2835      2885      2835      2885      2888      2889
      2835      2885      2888      2890      2835      2885      2888      2891
      2836      2835      2885      2886      2836      2835      2885      2887
      2836      2835      2885      2888      2837      2835      2885      2886
      2837      2835      2885      2887      2837      2835      2885      2888
      2838      2841      2844      2845      2838      2841      2844      2846
      2838      2841      2844      2847      2839      2838      2841      2842
      2839      2838      2841      2843      2839      2838      2841      2844
      2840      2838      2841      2842      2840      2838      2841      2843
      2840      2838      2841      2844      2841      2844      2847      2848
      2841      2844      2847      2849      2841      2844      2847      2850
      2842      2841      2844      2845      2842      2841      2844      2846
      2842      2841      2844      2847      2843      2841      2844      2845
      2843      2841      2844      2846      2843      2841      2844      2847
      2844      2847      2850      2851      2844      2847      2850      2852
      2844      2847      2850      2853      2845      2844      2847      2848
      2845      2844      2847      2849      2845      2844      2847      2850
      2846      2844      2847      2848      2846      2844      2847      2849
      2846      2844      2847      2850      2847      2850      2853      2854
      2847      2850      2853      2855      2847      2850      2853      2856
      2848      2847      2850      2851      2848      2847      2850      2852
      2848      2847      2850      2853      2849      2847      2850      2851
      2849      2847      2850      2852      2849      2847      2850      2853
      2850      2853      2856      2857      2850      2853      2856      2858
      2851      2850      2853      2854      2851      2850      2853      2855
      2851      2850      2853      2856      2852      2850      2853      2854
      2852      2850      2853      2855      2852      2850      2853      2856
      2853      2856      2858      2859      2853      2856      2858      2860
      2854      2853      2856      2857      2854      2853      2856      2858
      2855      2853      2856      2857      2855      2853      2856      2858
      2856      2858      2860      2861      2856      2858      2860      2862
      2856      2858      2860      2863      2857      2856      2858      2859
      2857      2856      2858      2860      2858      2860      2863      2864
      2858      2860      2863      2865      2858      2860      2863      2866
      2859      2858      2860      2861      2859      2858      2860      2862
      2859      2858      2860      2863      2860      2863      2866      2867
      2860      2863      2866      2868      2860      2863      2866      2869
      2861      2860      2863      2864      2861      2860      2863      2865
      2861      2860      2863      2866      2862      2860      2863      2864
      2862      2860      2863      2865      2862      2860      2863      2866
      2863      2866      2869      2870      2863      2866      2869      2871
      2863      2866      2869      2872      2864      2863      2866      2867
      2864      2863      2866      2868      2864      2863      2866      2869
      2865      2863      2866      2867      2865      2863      2866      2868
      2865      2863      2866      2869      2866      2869      2872      2873
      2866      2869      2872      2874      2866      2869      2872      2875
      2867      2866      2869      2870      2867      2866      2869      2871
      2867      2866      2869      2872      2868      2866      2869      2870
      2868      2866      2869      2871      2868      2866      2869      2872
      2869      2872      2875      2876      2869      2872      2875      2877
      2869      2872      2875      2878      2870      2869      2872      2873
      2870      2869      2872      2874      2870      2869      2872      2875
      2871      2869      2872      2873      2871      2869      2872      2874
      2871      2869      2872      2875      2872      2875      2878      2879
      2872      2875      2878      2880      2872      2875      2878      2881
      2873      2872      2875      2876      2873      2872      2875      2877
      2873      2872      2875      2878      2874      2872      2875      2876
      2874      2872      2875      2877      2874      2872      2875      2878
      2875      2878      2881      2882      2875      2878      2881      2883
      2875      2878      2881      2884      2876      2875      2878      2879
      2876      2875      2878      2880      2876      2875      2878      2881
      2877      2875      2878      2879      2877      2875      2878      2880
      2877      2875      2878      2881      2879      2878      2881      2882
      2879      2878      2881      2883      2879      2878      2881      2884
      2880      2878      2881      2882      2880      2878      2881      2883
      2880      2878      2881      2884      2885      2888      2891      2892
      2885      2888      2891      2893      2885      2888      2891      2894
      2886      2885      2888      2889      2886      2885      2888      2890
      2886      2885      2888      2891      2887      2885      2888      2889
      2887      2885      2888      2890      2887      2885      2888      2891
      2888      2891      2894      2895      2888      2891      2894      2896
      2888      2891      2894      2897      2889      2888      2891      2892
      2889      2888      2891      2893      2889      2888      2891      2894
      2890      2888      2891      2892      2890      2888      2891      2893
      2890      2888      2891      2894      2891      2894      2897      2898
      2891      2894      2897      2899      2891      2894      2897      2900
      2892      2891      2894      2895      2892      2891      2894      2896
      2892      2891      2894      2897      2893      2891      2894      2895
      2893      2891      2894      2896      2893      2891      2894      2897
      2894      2897      2900      2901      2894      2897      2900      2902
      2894      2897      2900      2903      2895      2894      2897      2898
      2895      2894      2897      2899      2895      2894      2897      2900
      2896      2894      2897      2898      2896      2894      2897      2899
      2896      2894      2897      2900      2897      2900      2903      2904
      2897      2900      2903      2905      2897      2900      2903      2906
      2898      2897      2900      2901      2898      2897      2900      2902
      2898      2897      2900      2903      2899      2897      2900      2901
      2899      2897      2900      2902      2899      2897      2900      2903
      2900      2903      2906      2907      2900      2903      2906      2908
      2900      2903      2906      2909      2901      2900      2903      2904
      2901      2900      2903      2905      2901      2900      2903      2906
      2902      2900      2903      2904      2902      2900      2903      2905
      2902      2900      2903      2906      2903      2906      2909      2910
      2903      2906      2909      2911      2903      2906      2909      2912
      2904      2903      2906      2907      2904      2903      2906      2908
      2904      2903      2906      2909      2905      2903      2906      2907
      2905      2903      2906      2908      2905      2903      2906      2909
      2906      2909      2912      2913      2906      2909      2912      2914
      2906      2909      2912      2915      2907      2906      2909      2910
      2907      2906      2909      2911      2907      2906      2909      2912
      2908      2906      2909      2910      2908      2906      2909      2911
      2908      2906      2909      2912      2909      2912      2915      2916
      2909      2912      2915      2917      2909      2912      2915      2918
      2910      2909      2912      2913      2910      2909      2912      2914
      2910      2909      2912      2915      2911      2909      2912      2913
      2911      2909      2912      2914      2911      2909      2912      2915
      2912      2915      2918      2919      2912      2915      2918      2920
      2912      2915      2918      2921      2913      2912      2915      2916
      2913      2912      2915      2917      2913      2912      2915      2918
      2914      2912      2915      2916      2914      2912      2915      2917
      2914      2912      2915      2918      2915      2918      2921      2922
      2915      2918      2921      2923      2915      2918      2921      2924
      2916      2915      2918      2919      2916      2915      2918      2920
      2916      2915      2918      2921      2917      2915      2918      2919
      2917      2915      2918      2920      2917      2915      2918      2921
      2918      2921      2924      2925      2918      2921      2924      2926
      2918      2921      2924      2927      2919      2918      2921      2922
      2919      2918      2921      2923      2919      2918      2921      2924
      2920      2918      2921      2922      2920      2918      2921      2923
      2920      2918      2921      2924      2922      2921      2924      2925
      2922      2921      2924      2926      2922      2921      2924      2927
      2923      2921      2924      2925      2923      2921      2924      2926
      2923      2921      2924      2927      2928      2929      2944      2945
      2928      2929      2944      2946      2928      2929      2944      2950
      2929      2928      2932      2933      2929      2928      2932      2934
      2929      2928      2932      2935      2929      2928      2936      2937
      2929      2928      2936      2938      2929      2928      2936      2939
      2929      2928      2940      2941      2929      2928      2940      2942
      2929      2928      2940      2943      2929      2944      2950      2947
      2930      2929      2928      2932      2930      2929      2928      2936
      2930      2929      2928      2940      2930      2929      2944      2945
      2930      2929      2944      2946      2930      2929      2944      2950
      2931      2929      2928      2932      2931      2929      2928      2936
      2931      2929      2928      2940      2931      2929      2944      2945
      2931      2929      2944      2946      2931      2929      2944      2950
      2932      2928      2929      2944      2932      2928      2936      2937
      2932      2928      2936      2938      2932      2928      2936      2939
      2932      2928      2940      2941      2932      2928      2940      2942
      2932      2928      2940      2943      2933      2932      2928      2936
      2933      2932      2928      2940      2934      2932      2928      2936
      2934      2932      2928      2940      2935      2932      2928      2936
      2935      2932      2928      2940      2936      2928      2929      2944
      2936      2928      2940      2941      2936      2928      2940      2942
      2936      2928      2940      2943      2937      2936      2928      2940
      2938      2936      2928      2940      2939      2936      2928      2940
      2940      2928      2929      2944      2944      2950      2947      2948
      2944      2950      2947      2949      2944      2950      2947      2951
      2945      2944      2950      2947      2946      2944      2950      2947
      2947      2951      2952      2953      2947      2951      2952      2954
      2947      2951      2952      2955      2948      2947      2951      2952
      2949      2947      2951      2952      2950      2947      2951      2952
      2951      2952      2955      2956      2951      2952      2955      2957
      2951      2952      2955      2963      2952      2955      2957      2958
      2952      2955      2963      2964      2952      2955      2963      2965
      2952      2955      2963      2966      2953      2952      2955      2956
      2953      2952      2955      2957      2953      2952      2955      2963
      2954      2952      2955      2956      2954      2952      2955      2957
      2954      2952      2955      2963      2955      2957      2958      2959
      2955      2957      2958      2960      2955      2963      2966      2967
      2956      2955      2957      2958      2956      2955      2963      2964
      2956      2955      2963      2965      2956      2955      2963      2966
      2957      2955      2963      2964      2957      2955      2963      2965
      2957      2955      2963      2966      2957      2958      2960      2961
      2957      2958      2960      2962      2957      2958      2960      2972
      2958      2957      2955      2963      2958      2960      2972      2973
      2958      2960      2972      2974      2958      2960      2972      2975
      2959      2958      2960      2961      2959      2958      2960      2962
      2959      2958      2960      2972      2960      2972      2975      2976
      2960      2972      2975      2977      2960      2972      2975      2978
      2961      2960      2972      2973      2961      2960      2972      2974
      2961      2960      2972      2975      2962      2960      2972      2973
      2962      2960      2972      2974      2962      2960      2972      2975
      2963      2966      2967      2968      2963      2966      2967      2969
      2964      2963      2966      2967      2965      2963      2966      2967
      2966      2967      2969      2970      2966      2967      2969      2971
      2966      2967      2969      3019      2967      2969      3019      3020
      2967      2969      3019      3021      2967      2969      3019      3022
      2968      2967      2969      2970      2968      2967      2969      2971
      2968      2967      2969      3019      2969      3019      3022      3023
      2969      3019      3022      3024      2969      3019      3022      3025
      2970      2969      3019      3020      2970      2969      3019      3021
      2970      2969      3019      3022      2971      2969      3019      3020
      2971      2969      3019      3021      2971      2969      3019      3022
      2972      2975      2978      2979      2972      2975      2978      2980
      2972      2975      2978      2981      2973      2972      2975      2976
      2973      2972      2975      2977      2973      2972      2975      2978
      2974      2972      2975      2976      2974      2972      2975      2977
      2974      2972      2975      2978      2975      2978      2981      2982
      2975      2978      2981      2983      2975      2978      2981      2984
      2976      2975      2978      2979      2976      2975      2978      2980
      2976      2975      2978      2981      2977      2975      2978      2979
      2977      2975      2978      2980      2977      2975      2978      2981
      2978      2981      2984      2985      2978      2981      2984      2986
      2978      2981      2984      2987      2979      2978      2981      2982
      2979      2978      2981      2983      2979      2978      2981      2984
      2980      2978      2981      2982      2980      2978      2981      2983
      2980      2978      2981      2984      2981      2984      2987      2988
      2981      2984      2987      2989      2981      2984      2987      2990
      2982      2981      2984      2985      2982      2981      2984      2986
      2982      2981      2984      2987      2983      2981      2984      2985
      2983      2981      2984      2986      2983      2981      2984      2987
      2984      2987      2990      2991      2984      2987      2990      2992
      2985      2984      2987      2988      2985      2984      2987      2989
      2985      2984      2987      2990      2986      2984      2987      2988
      2986      2984      2987      2989      2986      2984      2987      2990
      2987      2990      2992      2993      2987      2990      2992      2994
      2988      2987      2990      2991      2988      2987      2990      2992
      2989      2987      2990      2991      2989      2987      2990      2992
      2990      2992      2994      2995      2990      2992      2994      2996
      2990      2992      2994      2997      2991      2990      2992      2993
      2991      2990      2992      2994      2992      2994      2997      2998
      2992      2994      2997      2999      2992      2994      2997      3000
      2993      2992      2994      2995      2993      2992      2994      2996
      2993      2992      2994      2997      2994      2997      3000      3001
      2994      2997      3000      3002      2994      2997      3000      3003
      2995      2994      2997      2998      2995      2994      2997      2999
      2995      2994      2997      3000      2996      2994      2997      2998
      2996      2994      2997      2999      2996      2994      2997      3000
      2997      3000      3003      3004      2997      3000      3003      3005
      2997      3000      3003      3006      2998      2997      3000      3001
      2998      2997      3000      3002      2998      2997      3000      3003
      2999      2997      3000      3001      2999      2997      3000      3002
      2999      2997      3000      3003      3000      3003      3006      3007
      3000      3003      3006      3008      3000      3003      3006      3009
      3001      3000      3003      3004      3001      3000      3003      3005
      3001      3000      3003      3006      3002      3000      3003      3004
      3002      3000      3003      3005      3002      3000      3003      3006
      3003      3006      3009      3010      3003      3006      3009      3011
      3003      3006      3009      3012      3004      3003      3006      3007
      3004      3003      3006      3008      3004      3003      3006      3009
      3005      3003      3006      3007      3005      3003      3006      3008
      3005      3003      3006      3009      3006      3009      3012      3013
      3006      3009      3012      3014      3006      3009      3012      3015
      3007      3006      3009      3010      3007      3006      3009      3011
      3007      3006      3009      3012      3008      3006      3009      3010
      3008      3006      3009      3011      3008      3006      3009      3012
      3009      3012      3015      3016      3009      3012      3015      3017
      3009      3012      3015      3018      3010      3009      3012      3013
      3010      3009      3012      3014      3010      3009      3012      3015
      3011      3009      3012      3013      3011      3009      3012      3014
      3011      3009      3012      3015      3013      3012      3015      3016
      3013      3012      3015      3017      3013      3012      3015      3018
      3014      3012      3015      3016      3014      3012      3015      3017
      3014      3012      3015      3018      3019      3022      3025      3026
      3019      3022      3025      3027      3019      3022      3025      3028
      3020      3019      3022      3023      3020      3019      3022      3024
      3020      3019      3022      3025      3021      3019      3022      3023
      3021      3019      3022      3024      3021      3019      3022      3025
      3022      3025      3028      3029      3022      3025      3028      3030
      3022      3025      3028      3031      3023      3022      3025      3026
      3023      3022      3025      3027      3023      3022      3025      3028
      3024      3022      3025      3026      3024      3022      3025      3027
      3024      3022      3025      3028      3025      3028      3031      3032
      3025      3028      3031      3033      3025      3028      3031      3034
      3026      3025      3028      3029      3026      3025      3028      3030
      3026      3025      3028      3031      3027      3025      3028      3029
      3027      3025      3028      3030      3027      3025      3028      3031
      3028      3031      3034      3035      3028      3031      3034      3036
      3028      3031      3034      3037      3029      3028      3031      3032
      3029      3028      3031      3033      3029      3028      3031      3034
      3030      3028      3031      3032      3030      3028      3031      3033
      3030      3028      3031      3034      3031      3034      3037      3038
      3031      3034      3037      3039      3031      3034      3037      3040
      3032      3031      3034      3035      3032      3031      3034      3036
      3032      3031      3034      3037      3033      3031      3034      3035
      3033      3031      3034      3036      3033      3031      3034      3037
      3034      3037      3040      3041      3034      3037      3040      3042
      3034      3037      3040      3043      3035      3034      3037      3038
      3035      3034      3037      3039      3035      3034      3037      3040
      3036      3034      3037      3038      3036      3034      3037      3039
      3036      3034      3037      3040      3037      3040      3043      3044
      3037      3040      3043      3045      3037      3040      3043      3046
      3038      3037      3040      3041      3038      3037      3040      3042
      3038      3037      3040      3043      3039      3037      3040      3041
      3039      3037      3040      3042      3039      3037      3040      3043
      3040      3043      3046      3047      3040      3043      3046      3048
      3040      3043      3046      3049      3041      3040      3043      3044
      3041      3040      3043      3045      3041      3040      3043      3046
      3042      3040      3043      3044      3042      3040      3043      3045
      3042      3040      3043      3046      3043      3046      3049      3050
      3043      3046      3049      3051      3043      3046      3049      3052
      3044      3043      3046      3047      3044      3043      3046      3048
      3044      3043      3046      3049      3045      3043      3046      3047
      3045      3043      3046      3048      3045      3043      3046      3049
      3046      3049      3052      3053      3046      3049      3052      3054
      3046      3049      3052      3055      3047      3046      3049      3050
      3047      3046      3049      3051      3047      3046      3049      3052
      3048      3046      3049      3050      3048      3046      3049      3051
      3048      3046      3049      3052      3049      3052      3055      3056
      3049      3052      3055      3057      3049      3052      3055      3058
      3050      3049      3052      3053      3050      3049      3052      3054
      3050      3049      3052      3055      3051      3049      3052      3053
      3051      3049      3052      3054      3051      3049      3052      3055
      3052      3055      3058      3059      3052      3055      3058      3060
      3052      3055      3058      3061      3053      3052      3055      3056
      3053      3052      3055      3057      3053      3052      3055      3058
      3054      3052      3055      3056      3054      3052      3055      3057
      3054      3052      3055      3058      3056      3055      3058      3059
      3056      3055      3058      3060      3056      3055      3058      3061
      3057      3055      3058      3059      3057      3055      3058      3060
      3057      3055      3058      3061      3062      3066      3068      3069
      3062      3066      3068      3070      3062      3066      3071      3072
      3062      3066      3071      3073      3062      3066      3071      3077
      3063      3062      3066      3067      3063      3062      3066      3068
      3063      3062      3066      3071      3064      3062      3066      3067
      3064      3062      3066      3068      3064      3062      3066      3071
      3065      3062      3066      3067      3065      3062      3066      3068
      3065      3062      3066      3071      3066      3071      3077      3074
      3067      3066      3068      3069      3067      3066      3068      3070
      3067      3066      3071      3072      3067      3066      3071      3073
      3067      3066      3071      3077      3068      3066      3071      3072
      3068      3066      3071      3073      3068      3066      3071      3077
      3069      3068      3066      3071      3070      3068      3066      3071
      3071      3077      3074      3075      3071      3077      3074      3076
      3071      3077      3074      3078      3072      3071      3077      3074
      3073      3071      3077      3074      3074      3078      3079      3080
      3074      3078      3079      3081      3074      3078      3079      3082
      3075      3074      3078      3079      3076      3074      3078      3079
      3077      3074      3078      3079      3078      3079      3082      3083
      3078      3079      3082      3084      3078      3079      3082      3090
      3079      3082      3084      3085      3079      3082      3090      3091
      3079      3082      3090      3092      3079      3082      3090      3093
      3080      3079      3082      3083      3080      3079      3082      3084
      3080      3079      3082      3090      3081      3079      3082      3083
      3081      3079      3082      3084      3081      3079      3082      3090
      3082      3084      3085      3086      3082      3084      3085      3087
      3082      3090      3093      3094      3083      3082      3084      3085
      3083      3082      3090      3091      3083      3082      3090      3092
      3083      3082      3090      3093      3084      3082      3090      3091
      3084      3082      3090      3092      3084      3082      3090      3093
      3084      3085      3087      3088      3084      3085      3087      3089
      3084      3085      3087      3099      3085      3084      3082      3090
      3085      3087      3099      3100      3085      3087      3099      3101
      3085      3087      3099      3102      3086      3085      3087      3088
      3086      3085      3087      3089      3086      3085      3087      3099
      3087      3099      3102      3103      3087      3099      3102      3104
      3087      3099      3102      3105      3088      3087      3099      3100
      3088      3087      3099      3101      3088      3087      3099      3102
      3089      3087      3099      3100      3089      3087      3099      3101
      3089      3087      3099      3102      3090      3093      3094      3095
      3090      3093      3094      3096      3091      3090      3093      3094
      3092      3090      3093      3094      3093      3094      3096      3097
      3093      3094      3096      3098      3093      3094      3096      3146
      3094      3096      3146      3147      3094      3096      3146      3148
      3094      3096      3146      3149      3095      3094      3096      3097
      3095      3094      3096      3098      3095      3094      3096      3146
      3096      3146      3149      3150      3096      3146      3149      3151
      3096      3146      3149      3152      3097      3096      3146      3147
      3097      3096      3146      3148      3097      3096      3146      3149
      3098      3096      3146      3147      3098      3096      3146      3148
      3098      3096      3146      3149      3099      3102      3105      3106
      3099      3102      3105      3107      3099      3102      3105      3108
      3100      3099      3102      3103      3100      3099      3102      3104
      3100      3099      3102      3105      3101      3099      3102      3103
      3101      3099      3102      3104      3101      3099      3102      3105
      3102      3105      3108      3109      3102      3105      3108      3110
      3102      3105      3108      3111      3103      3102      3105      3106
      3103      3102      3105      3107      3103      3102      3105      3108
      3104      3102      3105      3106      3104      3102      3105      3107
      3104      3102      3105      3108      3105      3108      3111      3112
      3105      3108      3111      3113      3105      3108      3111      3114
      3106      3105      3108      3109      3106      3105      3108      3110
      3106      3105      3108      3111      3107      3105      3108      3109
      3107      3105      3108      3110      3107      3105      3108      3111
      3108      3111      3114      3115      3108      3111      3114      3116
      3108      3111      3114      3117      3109      3108      3111      3112
      3109      3108      3111      3113      3109      3108      3111      3114
      3110      3108      3111      3112      3110      3108      3111      3113
      3110      3108      3111      3114      3111      3114      3117      3118
      3111      3114      3117      3119      3112      3111      3114      3115
      3112      3111      3114      3116      3112      3111      3114      3117
      3113      3111      3114      3115      3113      3111      3114      3116
      3113      3111      3114      3117      3114      3117      3119      3120
      3114      3117      3119      3121      3115      3114      3117      3118
      3115      3114      3117      3119      3116      3114      3117      3118
      3116      3114      3117      3119      3117      3119      3121      3122
      3117      3119      3121      3123      3117      3119      3121      3124
      3118      3117      3119      3120      3118      3117      3119      3121
      3119      3121      3124      3125      3119      3121      3124      3126
      3119      3121      3124      3127      3120      3119      3121      3122
      3120      3119      3121      3123      3120      3119      3121      3124
      3121      3124      3127      3128      3121      3124      3127      3129
      3121      3124      3127      3130      3122      3121      3124      3125
      3122      3121      3124      3126      3122      3121      3124      3127
      3123      3121      3124      3125      3123      3121      3124      3126
      3123      3121      3124      3127      3124      3127      3130      3131
      3124      3127      3130      3132      3124      3127      3130      3133
      3125      3124      3127      3128      3125      3124      3127      3129
      3125      3124      3127      3130      3126      3124      3127      3128
      3126      3124      3127      3129      3126      3124      3127      3130
      3127      3130      3133      3134      3127      3130      3133      3135
      3127      3130      3133      3136      3128      3127      3130      3131
      3128      3127      3130      3132      3128      3127      3130      3133
      3129      3127      3130      3131      3129      3127      3130      3132
      3129      3127      3130      3133      3130      3133      3136      3137
      3130      3133      3136      3138      3130      3133      3136      3139
      3131      3130      3133      3134      3131      3130      3133      3135
      3131      3130      3133      3136      3132      3130      3133      3134
      3132      3130      3133      3135      3132      3130      3133      3136
      3133      3136      3139      3140      3133      3136      3139      3141
      3133      3136      3139      3142      3134      3133      3136      3137
      3134      3133      3136      3138      3134      3133      3136      3139
      3135      3133      3136      3137      3135      3133      3136      3138
      3135      3133      3136      3139      3136      3139      3142      3143
      3136      3139      3142      3144      3136      3139      3142      3145
      3137      3136      3139      3140      3137      3136      3139      3141
      3137      3136      3139      3142      3138      3136      3139      3140
      3138      3136      3139      3141      3138      3136      3139      3142
      3140      3139      3142      3143      3140      3139      3142      3144
      3140      3139      3142      3145      3141      3139      3142      3143
      3141      3139      3142      3144      3141      3139      3142      3145
      3146      3149      3152      3153      3146      3149      3152      3154
      3146      3149      3152      3155      3147      3146      3149      3150
      3147      3146      3149      3151      3147      3146      3149      3152
      3148      3146      3149      3150      3148      3146      3149      3151
      3148      3146      3149      3152      3149      3152      3155      3156
      3149      3152      3155      3157      3149      3152      3155      3158
      3150      3149      3152      3153      3150      3149      3152      3154
      3150      3149      3152      3155      3151      3149      3152      3153
      3151      3149      3152      3154      3151      3149      3152      3155
      3152      3155      3158      3159      3152      3155      3158      3160
      3152      3155      3158      3161      3153      3152      3155      3156
      3153      3152      3155      3157      3153      3152      3155      3158
      3154      3152      3155      3156      3154      3152      3155      3157
      3154      3152      3155      3158      3155      3158      3161      3162
      3155      3158      3161      3163      3155      3158      3161      3164
      3156      3155      3158      3159      3156      3155      3158      3160
      3156      3155      3158      3161      3157      3155      3158      3159
      3157      3155      3158      3160      3157      3155      3158      3161
      3158      3161      3164      3165      3158      3161      3164      3166
      3158      3161      3164      3167      3159      3158      3161      3162
      3159      3158      3161      3163      3159      3158      3161      3164
      3160      3158      3161      3162      3160      3158      3161      3163
      3160      3158      3161      3164      3161      3164      3167      3168
      3161      3164      3167      3169      3161      3164      3167      3170
      3162      3161      3164      3165      3162      3161      3164      3166
      3162      3161      3164      3167      3163      3161      3164      3165
      3163      3161      3164      3166      3163      3161      3164      3167
      3164      3167      3170      3171      3164      3167      3170      3172
      3164      3167      3170      3173      3165      3164      3167      3168
      3165      3164      3167      3169      3165      3164      3167      3170
      3166      3164      3167      3168      3166      3164      3167      3169
      3166      3164      3167      3170      3167      3170      3173      3174
      3167      3170      3173      3175      3167      3170      3173      3176
      3168      3167      3170      3171      3168      3167      3170      3172
      3168      3167      3170      3173      3169      3167      3170      3171
      3169      3167      3170      3172      3169      3167      3170      3173
      3170      3173      3176      3177      3170      3173      3176      3178
      3170      3173      3176      3179      3171      3170      3173      3174
      3171      3170      3173      3175      3171      3170      3173      3176
      3172      3170      3173      3174      3172      3170      3173      3175
      3172      3170      3173      3176      3173      3176      3179      3180
      3173      3176      3179      3181      3173      3176      3179      3182
      3174      3173      3176      3177      3174      3173      3176      3178
      3174      3173      3176      3179      3175      3173      3176      3177
      3175      3173      3176      3178      3175      3173      3176      3179
      3176      3179      3182      3183      3176      3179      3182      3184
      3176      3179      3182      3185      3177      3176      3179      3180
      3177      3176      3179      3181      3177      3176      3179      3182
      3178      3176      3179      3180      3178      3176      3179      3181
      3178      3176      3179      3182      3179      3182      3185      3186
      3179      3182      3185      3187      3179      3182      3185      3188
      3180      3179      3182      3183      3180      3179      3182      3184
      3180      3179      3182      3185      3181      3179      3182      3183
      3181      3179      3182      3184      3181      3179      3182      3185
      3183      3182      3185      3186      3183      3182      3185      3187
      3183      3182      3185      3188      3184      3182      3185      3186
      3184      3182      3185      3187      3184      3182      3185      3188
      3189      3190      3205      3206      3189      3190      3205      3207
      3189      3190      3205      3211      3190      3189      3193      3194
      3190      3189      3193      3195      3190      3189      3193      3196
      3190      3189      3197      3198      3190      3189      3197      3199
      3190      3189      3197      3200      3190      3189      3201      3202
      3190      3189      3201      3203      3190      3189      3201      3204
      3190      3205      3211      3208      3191      3190      3189      3193
      3191      3190      3189      3197      3191      3190      3189      3201
      3191      3190      3205      3206      3191      3190      3205      3207
      3191      3190      3205      3211      3192      3190      3189      3193
      3192      3190      3189      3197      3192      3190      3189      3201
      3192      3190      3205      3206      3192      3190      3205      3207
      3192      3190      3205      3211      3193      3189      3190      3205
      3193      3189      3197      3198      3193      3189      3197      3199
      3193      3189      3197      3200      3193      3189      3201      3202
      3193      3189      3201      3203      3193      3189      3201      3204
      3194      3193      3189      3197      3194      3193      3189      3201
      3195      3193      3189      3197      3195      3193      3189      3201
      3196      3193      3189      3197      3196      3193      3189      3201
      3197      3189      3190      3205      3197      3189      3201      3202
      3197      3189      3201      3203      3197      3189      3201      3204
      3198      3197      3189      3201      3199      3197      3189      3201
      3200      3197      3189      3201      3201      3189      3190      3205
      3205      3211      3208      3209      3205      3211      3208      3210
      3205      3211      3208      3212      3206      3205      3211      3208
      3207      3205      3211      3208      3208      3212      3213      3214
      3208      3212      3213      3215      3208      3212      3213      3216
      3209      3208      3212      3213      3210      3208      3212      3213
      3211      3208      3212      3213      3212      3213      3216      3217
      3212      3213      3216      3218      3212      3213      3216      3224
      3213      3216      3218      3219      3213      3216      3224      3225
      3213      3216      3224      3226      3213      3216      3224      3227
      3214      3213      3216      3217      3214      3213      3216      3218
      3214      3213      3216      3224      3215      3213      3216      3217
      3215      3213      3216      3218      3215      3213      3216      3224
      3216      3218      3219      3220      3216      3218      3219      3221
      3216      3224      3227      3228      3217      3216      3218      3219
      3217      3216      3224      3225      3217      3216      3224      3226
      3217      3216      3224      3227      3218      3216      3224      3225
      3218      3216      3224      3226      3218      3216      3224      3227
      3218      3219      3221      3222      3218      3219      3221      3223
      3218      3219      3221      3233      3219      3218      3216      3224
      3219      3221      3233      3234      3219      3221      3233      3235
      3219      3221      3233      3236      3220      3219      3221      3222
      3220      3219      3221      3223      3220      3219      3221      3233
      3221      3233      3236      3237      3221      3233      3236      3238
      3221      3233      3236      3239      3222      3221      3233      3234
      3222      3221      3233      3235      3222      3221      3233      3236
      3223      3221      3233      3234      3223      3221      3233      3235
      3223      3221      3233      3236      3224      3227      3228      3229
      3224      3227      3228      3230      3225      3224      3227      3228
      3226      3224      3227      3228      3227      3228      3230      3231
      3227      3228      3230      3232      3227      3228      3230      3280
      3228      3230      3280      3281      3228      3230      3280      3282
      3228      3230      3280      3283      3229      3228      3230      3231
      3229      3228      3230      3232      3229      3228      3230      3280
      3230      3280      3283      3284      3230      3280      3283      3285
      3230      3280      3283      3286      3231      3230      3280      3281
      3231      3230      3280      3282      3231      3230      3280      3283
      3232      3230      3280      3281      3232      3230      3280      3282
      3232      3230      3280      3283      3233      3236      3239      3240
      3233      3236      3239      3241      3233      3236      3239      3242
      3234      3233      3236      3237      3234      3233      3236      3238
      3234      3233      3236      3239      3235      3233      3236      3237
      3235      3233      3236      3238      3235      3233      3236      3239
      3236      3239      3242      3243      3236      3239      3242      3244
      3236      3239      3242      3245      3237      3236      3239      3240
      3237      3236      3239      3241      3237      3236      3239      3242
      3238      3236      3239      3240      3238      3236      3239      3241
      3238      3236      3239      3242      3239      3242      3245      3246
      3239      3242      3245      3247      3239      3242      3245      3248
      3240      3239      3242      3243      3240      3239      3242      3244
      3240      3239      3242      3245      3241      3239      3242      3243
      3241      3239      3242      3244      3241      3239      3242      3245
      3242      3245      3248      3249      3242      3245      3248      3250
      3242      3245      3248      3251      3243      3242      3245      3246
      3243      3242      3245      3247      3243      3242      3245      3248
      3244      3242      3245      3246      3244      3242      3245      3247
      3244      3242      3245      3248      3245      3248      3251      3252
      3245      3248      3251      3253      3246      3245      3248      3249
      3246      3245      3248      3250      3246      3245      3248      3251
      3247      3245      3248      3249      3247      3245      3248      3250
      3247      3245      3248      3251      3248      3251      3253      3254
      3248      3251      3253      3255      3249      3248      3251      3252
      3249      3248      3251      3253      3250      3248      3251      3252
      3250      3248      3251      3253      3251      3253      3255      3256
      3251      3253      3255      3257      3251      3253      3255      3258
      3252      3251      3253      3254      3252      3251      3253      3255
      3253      3255      3258      3259      3253      3255      3258      3260
      3253      3255      3258      3261      3254      3253      3255      3256
      3254      3253      3255      3257      3254      3253      3255      3258
      3255      3258      3261      3262      3255      3258      3261      3263
      3255      3258      3261      3264      3256      3255      3258      3259
      3256      3255      3258      3260      3256      3255      3258      3261
      3257      3255      3258      3259      3257      3255      3258      3260
      3257      3255      3258      3261      3258      3261      3264      3265
      3258      3261      3264      3266      3258      3261      3264      3267
      3259      3258      3261      3262      3259      3258      3261      3263
      3259      3258      3261      3264      3260      3258      3261      3262
      3260      3258      3261      3263      3260      3258      3261      3264
      3261      3264      3267      3268      3261      3264      3267      3269
      3261      3264      3267      3270      3262      3261      3264      3265
      3262      3261      3264      3266      3262      3261      3264      3267
      3263      3261      3264      3265      3263      3261      3264      3266
      3263      3261      3264      3267      3264      3267      3270      3271
      3264      3267      3270      3272      3264      3267      3270      3273
      3265      3264      3267      3268      3265      3264      3267      3269
      3265      3264      3267      3270      3266      3264      3267      3268
      3266      3264      3267      3269      3266      3264      3267      3270
      3267      3270      3273      3274      3267      3270      3273      3275
      3267      3270      3273      3276      3268      3267      3270      3271
      3268      3267      3270      3272      3268      3267      3270      3273
      3269      3267      3270      3271      3269      3267      3270      3272
      3269      3267      3270      3273      3270      3273      3276      3277
      3270      3273      3276      3278      3270      3273      3276      3279
      3271      3270      3273      3274      3271      3270      3273      3275
      3271      3270      3273      3276      3272      3270      3273      3274
      3272      3270      3273      3275      3272      3270      3273      3276
      3274      3273      3276      3277      3274      3273      3276      3278
      3274      3273      3276      3279      3275      3273      3276      3277
      3275      3273      3276      3278      3275      3273      3276      3279
      3280      3283      3286      3287      3280      3283      3286      3288
      3280      3283      3286      3289      3281      3280      3283      3284
      3281      3280      3283      3285      3281      3280      3283      3286
      3282      3280      3283      3284      3282      3280      3283      3285
      3282      3280      3283      3286      3283      3286      3289      3290
      3283      3286      3289      3291      3283      3286      3289      3292
      3284      3283      3286      3287      3284      3283      3286      3288
      3284      3283      3286      3289      3285      3283      3286      3287
      3285      3283      3286      3288      3285      3283      3286      3289
      3286      3289      3292      3293      3286      3289      3292      3294
      3286      3289      3292      3295      3287      3286      3289      3290
      3287      3286      3289      3291      3287      3286      3289      3292
      3288      3286      3289      3290      3288      3286      3289      3291
      3288      3286      3289      3292      3289      3292      3295      3296
      3289      3292      3295      3297      3289      3292      3295      3298
      3290      3289      3292      3293      3290      3289      3292      3294
      3290      3289      3292      3295      3291      3289      3292      3293
      3291      3289      3292      3294      3291      3289      3292      3295
      3292      3295      3298      3299      3292      3295      3298      3300
      3292      3295      3298      3301      3293      3292      3295      3296
      3293      3292      3295      3297      3293      3292      3295      3298
      3294      3292      3295      3296      3294      3292      3295      3297
      3294      3292      3295      3298      3295      3298      3301      3302
      3295      3298      3301      3303      3295      3298      3301      3304
      3296      3295      3298      3299      3296      3295      3298      3300
      3296      3295      3298      3301      3297      3295      3298      3299
      3297      3295      3298      3300      3297      3295      3298      3301
      3298      3301      3304      3305      3298      3301      3304      3306
      3298      3301      3304      3307      3299      3298      3301      3302
      3299      3298      3301      3303      3299      3298      3301      3304
      3300      3298      3301      3302      3300      3298      3301      3303
      3300      3298      3301      3304      3301      3304      3307      3308
      3301      3304      3307      3309      3301      3304      3307      3310
      3302      3301      3304      3305      3302      3301      3304      3306
      3302      3301      3304      3307      3303      3301      3304      3305
      3303      3301      3304      3306      3303      3301      3304      3307
      3304      3307      3310      3311      3304      3307      3310      3312
      3304      3307      3310      3313      3305      3304      3307      3308
      3305      3304      3307      3309      3305      3304      3307      3310
      3306      3304      3307      3308      3306      3304      3307      3309
      3306      3304      3307      3310      3307      3310      3313      3314
      3307      3310      3313      3315      3307      3310      3313      3316
      3308      3307      3310      3311      3308      3307      3310      3312
      3308      3307      3310      3313      3309      3307      3310      3311
      3309      3307      3310      3312      3309      3307      3310      3313
      3310      3313      3316      3317      3310      3313      3316      3318
      3310      3313      3316      3319      3311      3310      3313      3314
      3311      3310      3313      3315      3311      3310      3313      3316
      3312      3310      3313      3314      3312      3310      3313      3315
      3312      3310      3313      3316      3313      3316      3319      3320
      3313      3316      3319      3321      3313      3316      3319      3322
      3314      3313      3316      3317      3314      3313      3316      3318
      3314      3313      3316      3319      3315      3313      3316      3317
      3315      3313      3316      3318      3315      3313      3316      3319
      3317      3316      3319      3320      3317      3316      3319      3321
      3317      3316      3319      3322      3318      3316      3319      3320
      3318      3316      3319      3321      3318      3316      3319      3322
      3323      3324      3339      3340      3323      3324      3339      3341
      3323      3324      3339      3345      3324      3323      3327      3328
      3324      3323      3327      3329      3324      3323      3327      3330
      3324      3323      3331      3332      3324      3323      3331      3333
      3324      3323      3331      3334      3324      3323      3335      3336
      3324      3323      3335      3337      3324      3323      3335      3338
      3324      3339      3345      3342      3325      3324      3323      3327
      3325      3324      3323      3331      3325      3324      3323      3335
      3325      3324      3339      3340      3325      3324      3339      3341
      3325      3324      3339      3345      3326      3324      3323      3327
      3326      3324      3323      3331      3326      3324      3323      3335
      3326      3324      3339      3340      3326      3324      3339      3341
      3326      3324      3339      3345      3327      3323      3324      3339
      3327      3323      3331      3332      3327      3323      3331      3333
      3327      3323      3331      3334      3327      3323      3335      3336
      3327      3323      3335      3337      3327      3323      3335      3338
      3328      3327      3323      3331      3328      3327      3323      3335
      3329      3327      3323      3331      3329      3327      3323      3335
      3330      3327      3323      3331      3330      3327      3323      3335
      3331      3323      3324      3339      3331      3323      3335      3336
      3331      3323      3335      3337      3331      3323      3335      3338
      3332      3331      3323      3335      3333      3331      3323      3335
      3334      3331      3323      3335      3335      3323      3324      3339
      3339      3345      3342      3343      3339      3345      3342      3344
      3339      3345      3342      3346      3340      3339      3345      3342
      3341      3339      3345      3342      3342      3346      3347      3348
      3342      3346      3347      3349      3342      3346      3347      3350
      3343      3342      3346      3347      3344      3342      3346      3347
      3345      3342      3346      3347      3346      3347      3350      3351
      3346      3347      3350      3352      3346      3347      3350      3358
      3347      3350      3352      3353      3347      3350      3358      3359
      3347      3350      3358      3360      3347      3350      3358      3361
      3348      3347      3350      3351      3348      3347      3350      3352
      3348      3347      3350      3358      3349      3347      3350      3351
      3349      3347      3350      3352      3349      3347      3350      3358
      3350      3352      3353      3354      3350      3352      3353      3355
      3350      3358      3361      3362      3351      3350      3352      3353
      3351      3350      3358      3359      3351      3350      3358      3360
      3351      3350      3358      3361      3352      3350      3358      3359
      3352      3350      3358      3360      3352      3350      3358      3361
      3352      3353      3355      3356      3352      3353      3355      3357
      3352      3353      3355      3367      3353      3352      3350      3358
      3353      3355      3367      3368      3353      3355      3367      3369
      3353      3355      3367      3370      3354      3353      3355      3356
      3354      3353      3355      3357      3354      3353      3355      3367
      3355      3367      3370      3371      3355      3367      3370      3372
      3355      3367      3370      3373      3356      3355      3367      3368
      3356      3355      3367      3369      3356      3355      3367      3370
      3357      3355      3367      3368      3357      3355      3367      3369
      3357      3355      3367      3370      3358      3361      3362      3363
      3358      3361      3362      3364      3359      3358      3361      3362
      3360      3358      3361      3362      3361      3362      3364      3365
      3361      3362      3364      3366      3361      3362      3364      3414
      3362      3364      3414      3415      3362      3364      3414      3416
      3362      3364      3414      3417      3363      3362      3364      3365
      3363      3362      3364      3366      3363      3362      3364      3414
      3364      3414      3417      3418      3364      3414      3417      3419
      3364      3414      3417      3420      3365      3364      3414      3415
      3365      3364      3414      3416      3365      3364      3414      3417
      3366      3364      3414      3415      3366      3364      3414      3416
      3366      3364      3414      3417      3367      3370      3373      3374
      3367      3370      3373      3375      3367      3370      3373      3376
      3368      3367      3370      3371      3368      3367      3370      3372
      3368      3367      3370      3373      3369      3367      3370      3371
      3369      3367      3370      3372      3369      3367      3370      3373
      3370      3373      3376      3377      3370      3373      3376      3378
      3370      3373      3376      3379      3371      3370      3373      3374
      3371      3370      3373      3375      3371      3370      3373      3376
      3372      3370      3373      3374      3372      3370      3373      3375
      3372      3370      3373      3376      3373      3376      3379      3380
      3373      3376      3379      3381      3373      3376      3379      3382
      3374      3373      3376      3377      3374      3373      3376      3378
      3374      3373      3376      3379      3375      3373      3376      3377
      3375      3373      3376      3378      3375      3373      3376      3379
      3376      3379      3382      3383      3376      3379      3382      3384
      3376      3379      3382      3385      3377      3376      3379      3380
      3377      3376      3379      3381      3377      3376      3379      3382
      3378      3376      3379      3380      3378      3376      3379      3381
      3378      3376      3379      3382      3379      3382      3385      3386
      3379      3382      3385      3387      3380      3379      3382      3383
      3380      3379      3382      3384      3380      3379      3382      3385
      3381      3379      3382      3383      3381      3379      3382      3384
      3381      3379      3382      3385      3382      3385      3387      3388
      3382      3385      3387      3389      3383      3382      3385      3386
      3383      3382      3385      3387      3384      3382      3385      3386
      3384      3382      3385      3387      3385      3387      3389      3390
      3385      3387      3389      3391      3385      3387      3389      3392
      3386      3385      3387      3388      3386      3385      3387      3389
      3387      3389      3392      3393      3387      3389      3392      3394
      3387      3389      3392      3395      3388      3387      3389      3390
      3388      3387      3389      3391      3388      3387      3389      3392
      3389      3392      3395      3396      3389      3392      3395      3397
      3389      3392      3395      3398      3390      3389      3392      3393
      3390      3389      3392      3394      3390      3389      3392      3395
      3391      3389      3392      3393      3391      3389      3392      3394
      3391      3389      3392      3395      3392      3395      3398      3399
      3392      3395      3398      3400      3392      3395      3398      3401
      3393      3392      3395      3396      3393      3392      3395      3397
      3393      3392      3395      3398      3394      3392      3395      3396
      3394      3392      3395      3397      3394      3392      3395      3398
      3395      3398      3401      3402      3395      3398      3401      3403
      3395      3398      3401      3404      3396      3395      3398      3399
      3396      3395      3398      3400      3396      3395      3398      3401
      3397      3395      3398      3399      3397      3395      3398      3400
      3397      3395      3398      3401      3398      3401      3404      3405
      3398      3401      3404      3406      3398      3401      3404      3407
      3399      3398      3401      3402      3399      3398      3401      3403
      3399      3398      3401      3404      3400      3398      3401      3402
      3400      3398      3401      3403      3400      3398      3401      3404
      3401      3404      3407      3408      3401      3404      3407      3409
      3401      3404      3407      3410      3402      3401      3404      3405
      3402      3401      3404      3406      3402      3401      3404      3407
      3403      3401      3404      3405      3403      3401      3404      3406
      3403      3401      3404      3407      3404      3407      3410      3411
      3404      3407      3410      3412      3404      3407      3410      3413
      3405      3404      3407      3408      3405      3404      3407      3409
      3405      3404      3407      3410      3406      3404      3407      3408
      3406      3404      3407      3409      3406      3404      3407      3410
      3408      3407      3410      3411      3408      3407      3410      3412
      3408      3407      3410      3413      3409      3407      3410      3411
      3409      3407      3410      3412      3409      3407      3410      3413
      3414      3417      3420      3421      3414      3417      3420      3422
      3414      3417      3420      3423      3415      3414      3417      3418
      3415      3414      3417      3419      3415      3414      3417      3420
      3416      3414      3417      3418      3416      3414      3417      3419
      3416      3414      3417      3420      3417      3420      3423      3424
      3417      3420      3423      3425      3417      3420      3423      3426
      3418      3417      3420      3421      3418      3417      3420      3422
      3418      3417      3420      3423      3419      3417      3420      3421
      3419      3417      3420      3422      3419      3417      3420      3423
      3420      3423      3426      3427      3420      3423      3426      3428
      3420      3423      3426      3429      3421      3420      3423      3424
      3421      3420      3423      3425      3421      3420      3423      3426
      3422      3420      3423      3424      3422      3420      3423      3425
      3422      3420      3423      3426      3423      3426      3429      3430
      3423      3426      3429      3431      3423      3426      3429      3432
      3424      3423      3426      3427      3424      3423      3426      3428
      3424      3423      3426      3429      3425      3423      3426      3427
      3425      3423      3426      3428      3425      3423      3426      3429
      3426      3429      3432      3433      3426      3429      3432      3434
      3426      3429      3432      3435      3427      3426      3429      3430
      3427      3426      3429      3431      3427      3426      3429      3432
      3428      3426      3429      3430      3428      3426      3429      3431
      3428      3426      3429      3432      3429      3432      3435      3436
      3429      3432      3435      3437      3429      3432      3435      3438
      3430      3429      3432      3433      3430      3429      3432      3434
      3430      3429      3432      3435      3431      3429      3432      3433
      3431      3429      3432      3434      3431      3429      3432      3435
      3432      3435      3438      3439      3432      3435      3438      3440
      3432      3435      3438      3441      3433      3432      3435      3436
      3433      3432      3435      3437      3433      3432      3435      3438
      3434      3432      3435      3436      3434      3432      3435      3437
      3434      3432      3435      3438      3435      3438      3441      3442
      3435      3438      3441      3443      3435      3438      3441      3444
      3436      3435      3438      3439      3436      3435      3438      3440
      3436      3435      3438      3441      3437      3435      3438      3439
      3437      3435      3438      3440      3437      3435      3438      3441
      3438      3441      3444      3445      3438      3441      3444      3446
      3438      3441      3444      3447      3439      3438      3441      3442
      3439      3438      3441      3443      3439      3438      3441      3444
      3440      3438      3441      3442      3440      3438      3441      3443
      3440      3438      3441      3444      3441      3444      3447      3448
      3441      3444      3447      3449      3441      3444      3447      3450
      3442      3441      3444      3445      3442      3441      3444      3446
      3442      3441      3444      3447      3443      3441      3444      3445
      3443      3441      3444      3446      3443      3441      3444      3447
      3444      3447      3450      3451      3444      3447      3450      3452
      3444      3447      3450      3453      3445      3444      3447      3448
      3445      3444      3447      3449      3445      3444      3447      3450
      3446      3444      3447      3448      3446      3444      3447      3449
      3446      3444      3447      3450      3447      3450      3453      3454
      3447      3450      3453      3455      3447      3450      3453      3456
      3448      3447      3450      3451      3448      3447      3450      3452
      3448      3447      3450      3453      3449      3447      3450      3451
      3449      3447      3450      3452      3449      3447      3450      3453
      3451      3450      3453      3454      3451      3450      3453      3455
      3451      3450      3453      3456      3452      3450      3453      3454
      3452      3450      3453      3455      3452      3450      3453      3456
      3457      3461      3463      3464      3457      3461      3463      3465
      3457      3461      3466      3467      3457      3461      3466      3468
      3457      3461      3466      3472      3458      3457      3461      3462
      3458      3457      3461      3463      3458      3457      3461      3466
      3459      3457      3461      3462      3459      3457      3461      3463
      3459      3457      3461      3466      3460      3457      3461      3462
      3460      3457      3461      3463      3460      3457      3461      3466
      3461      3466      3472      3469      3462      3461      3463      3464
      3462      3461      3463      3465      3462      3461      3466      3467
      3462      3461      3466      3468      3462      3461      3466      3472
      3463      3461      3466      3467      3463      3461      3466      3468
      3463      3461      3466      3472      3464      3463      3461      3466
      3465      3463      3461      3466      3466      3472      3469      3470
      3466      3472      3469      3471      3466      3472      3469      3473
      3467      3466      3472      3469      3468      3466      3472      3469
      3469      3473      3474      3475      3469      3473      3474      3476
      3469      3473      3474      3477      3470      3469      3473      3474
      3471      3469      3473      3474      3472      3469      3473      3474
      3473      3474      3477      3478      3473      3474      3477      3479
      3473      3474      3477      3485      3474      3477      3479      3480
      3474      3477      3485      3486      3474      3477      3485      3487
      3474      3477      3485      3488      3475      3474      3477      3478
      3475      3474      3477      3479      3475      3474      3477      3485
      3476      3474      3477      3478      3476      3474      3477      3479
      3476      3474      3477      3485      3477      3479      3480      3481
      3477      3479      3480      3482      3477      3485      3488      3489
      3478      3477      3479      3480      3478      3477      3485      3486
      3478      3477      3485      3487      3478      3477      3485      3488
      3479      3477      3485      3486      3479      3477      3485      3487
      3479      3477      3485      3488      3479      3480      3482      3483
      3479      3480      3482      3484      3479      3480      3482      3494
      3480      3479      3477      3485      3480      3482      3494      3495
      3480      3482      3494      3496      3480      3482      3494      3497
      3481      3480      3482      3483      3481      3480      3482      3484
      3481      3480      3482      3494      3482      3494      3497      3498
      3482      3494      3497      3499      3482      3494      3497      3500
      3483      3482      3494      3495      3483      3482      3494      3496
      3483      3482      3494      3497      3484      3482      3494      3495
      3484      3482      3494      3496      3484      3482      3494      3497
      3485      3488      3489      3490      3485      3488      3489      3491
      3486      3485      3488      3489      3487      3485      3488      3489
      3488      3489      3491      3492      3488      3489      3491      3493
      3488      3489      3491      3541      3489      3491      3541      3542
      3489      3491      3541      3543      3489      3491      3541      3544
      3490      3489      3491      3492      3490      3489      3491      3493
      3490      3489      3491      3541      3491      3541      3544      3545
      3491      3541      3544      3546      3491      3541      3544      3547
      3492      3491      3541      3542      3492      3491      3541      3543
      3492      3491      3541      3544      3493      3491      3541      3542
      3493      3491      3541      3543      3493      3491      3541      3544
      3494      3497      3500      3501      3494      3497      3500      3502
      3494      3497      3500      3503      3495      3494      3497      3498
      3495      3494      3497      3499      3495      3494      3497      3500
      3496      3494      3497      3498      3496      3494      3497      3499
      3496      3494      3497      3500      3497      3500      3503      3504
      3497      3500      3503      3505      3497      3500      3503      3506
      3498      3497      3500      3501      3498      3497      3500      3502
      3498      3497      3500      3503      3499      3497      3500      3501
      3499      3497      3500      3502      3499      3497      3500      3503
      3500      3503      3506      3507      3500      3503      3506      3508
      3500      3503      3506      3509      3501      3500      3503      3504
      3501      3500      3503      3505      3501      3500      3503      3506
      3502      3500      3503      3504      3502      3500      3503      3505
      3502      3500      3503      3506      3503      3506      3509      3510
      3503      3506      3509      3511      3503      3506      3509      3512
      3504      3503      3506      3507      3504      3503      3506      3508
      3504      3503      3506      3509      3505      3503      3506      3507
      3505      3503      3506      3508      3505      3503      3506      3509
      3506      3509      3512      3513      3506      3509      3512      3514
      3507      3506      3509      3510      3507      3506      3509      3511
      3507      3506      3509      3512      3508      3506      3509      3510
      3508      3506      3509      3511      3508      3506      3509      3512
      3509      3512      3514      3515      3509      3512      3514      3516
      3510      3509      3512      3513      3510      3509      3512      3514
      3511      3509      3512      3513      3511      3509      3512      3514
      3512      3514      3516      3517      3512      3514      3516      3518
      3512      3514      3516      3519      3513      3512      3514      3515
      3513      3512      3514      3516      3514      3516      3519      3520
      3514      3516      3519      3521      3514      3516      3519      3522
      3515      3514      3516      3517      3515      3514      3516      3518
      3515      3514      3516      3519      3516      3519      3522      3523
      3516      3519      3522      3524      3516      3519      3522      3525
      3517      3516      3519      3520      3517      3516      3519      3521
      3517      3516      3519      3522      3518      3516      3519      3520
      3518      3516      3519      3521      3518      3516      3519      3522
      3519      3522      3525      3526      3519      3522      3525      3527
      3519      3522      3525      3528      3520      3519      3522      3523
      3520      3519      3522      3524      3520      3519      3522      3525
      3521      3519      3522      3523      3521      3519      3522      3524
      3521      3519      3522      3525      3522      3525      3528      3529
      3522      3525      3528      3530      3522      3525      3528      3531
      3523      3522      3525      3526      3523      3522      3525      3527
      3523      3522      3525      3528      3524      3522      3525      3526
      3524      3522      3525      3527      3524      3522      3525      3528
      3525      3528      3531      3532      3525      3528      3531      3533
      3525      3528      3531      3534      3526      3525      3528      3529
      3526      3525      3528      3530      3526      3525      3528      3531
      3527      3525      3528      3529      3527      3525      3528      3530
      3527      3525      3528      3531      3528      3531      3534      3535
      3528      3531      3534      3536      3528      3531      3534      3537
      3529      3528      3531      3532      3529      3528      3531      3533
      3529      3528      3531      3534      3530      3528      3531      3532
      3530      3528      3531      3533      3530      3528      3531      3534
      3531      3534      3537      3538      3531      3534      3537      3539
      3531      3534      3537      3540      3532      3531      3534      3535
      3532      3531      3534      3536      3532      3531      3534      3537
      3533      3531      3534      3535      3533      3531      3534      3536
      3533      3531      3534      3537      3535      3534      3537      3538
      3535      3534      3537      3539      3535      3534      3537      3540
      3536      3534      3537      3538      3536      3534      3537      3539
      3536      3534      3537      3540      3541      3544      3547      3548
      3541      3544      3547      3549      3541      3544      3547      3550
      3542      3541      3544      3545      3542      3541      3544      3546
      3542      3541      3544      3547      3543      3541      3544      3545
      3543      3541      3544      3546      3543      3541      3544      3547
      3544      3547      3550      3551      3544      3547      3550      3552
      3544      3547      3550      3553      3545      3544      3547      3548
      3545      3544      3547      3549      3545      3544      3547      3550
      3546      3544      3547      3548      3546      3544      3547      3549
      3546      3544      3547      3550      3547      3550      3553      3554
      3547      3550      3553      3555      3547      3550      3553      3556
      3548      3547      3550      3551      3548      3547      3550      3552
      3548      3547      3550      3553      3549      3547      3550      3551
      3549      3547      3550      3552      3549      3547      3550      3553
      3550      3553      3556      3557      3550      3553      3556      3558
      3550      3553      3556      3559      3551      3550      3553      3554
      3551      3550      3553      3555      3551      3550      3553      3556
      3552      3550      3553      3554      3552      3550      3553      3555
      3552      3550      3553      3556      3553      3556      3559      3560
      3553      3556      3559      3561      3553      3556      3559      3562
      3554      3553      3556      3557      3554      3553      3556      3558
      3554      3553      3556      3559      3555      3553      3556      3557
      3555      3553      3556      3558      3555      3553      3556      3559
      3556      3559      3562      3563      3556      3559      3562      3564
      3556      3559      3562      3565      3557      3556      3559      3560
      3557      3556      3559      3561      3557      3556      3559      3562
      3558      3556      3559      3560      3558      3556      3559      3561
      3558      3556      3559      3562      3559      3562      3565      3566
      3559      3562      3565      3567      3559      3562      3565      3568
      3560      3559      3562      3563      3560      3559      3562      3564
      3560      3559      3562      3565      3561      3559      3562      3563
      3561      3559      3562      3564      3561      3559      3562      3565
      3562      3565      3568      3569      3562      3565      3568      3570
      3562      3565      3568      3571      3563      3562      3565      3566
      3563      3562      3565      3567      3563      3562      3565      3568
      3564      3562      3565      3566      3564      3562      3565      3567
      3564      3562      3565      3568      3565      3568      3571      3572
      3565      3568      3571      3573      3565      3568      3571      3574
      3566      3565      3568      3569      3566      3565      3568      3570
      3566      3565      3568      3571      3567      3565      3568      3569
      3567      3565      3568      3570      3567      3565      3568      3571
      3568      3571      3574      3575      3568      3571      3574      3576
      3568      3571      3574      3577      3569      3568      3571      3572
      3569      3568      3571      3573      3569      3568      3571      3574
      3570      3568      3571      3572      3570      3568      3571      3573
      3570      3568      3571      3574      3571      3574      3577      3578
      3571      3574      3577      3579      3571      3574      3577      3580
      3572      3571      3574      3575      3572      3571      3574      3576
      3572      3571      3574      3577      3573      3571      3574      3575
      3573      3571      3574      3576      3573      3571      3574      3577
      3574      3577      3580      3581      3574      3577      3580      3582
      3574      3577      3580      3583      3575      3574      3577      3578
      3575      3574      3577      3579      3575      3574      3577      3580
      3576      3574      3577      3578      3576      3574      3577      3579
      3576      3574      3577      3580      3578      3577      3580      3581
      3578      3577      3580      3582      3578      3577      3580      3583
      3579      3577      3580      3581      3579      3577      3580      3582
      3579      3577      3580      3583      3584      3585      3600      3601
      3584      3585      3600      3602      3584      3585      3600      3606
      3585      3584      3588      3589      3585      3584      3588      3590
      3585      3584      3588      3591      3585      3584      3592      3593
      3585      3584      3592      3594      3585      3584      3592      3595
      3585      3584      3596      3597      3585      3584      3596      3598
      3585      3584      3596      3599      3585      3600      3606      3603
      3586      3585      3584      3588      3586      3585      3584      3592
      3586      3585      3584      3596      3586      3585      3600      3601
      3586      3585      3600      3602      3586      3585      3600      3606
      3587      3585      3584      3588      3587      3585      3584      3592
      3587      3585      3584      3596      3587      3585      3600      3601
      3587      3585      3600      3602      3587      3585      3600      3606
      3588      3584      3585      3600      3588      3584      3592      3593
      3588      3584      3592      3594      3588      3584      3592      3595
      3588      3584      3596      3597      3588      3584      3596      3598
      3588      3584      3596      3599      3589      3588      3584      3592
      3589      3588      3584      3596      3590      3588      3584      3592
      3590      3588      3584      3596      3591      3588      3584      3592
      3591      3588      3584      3596      3592      3584      3585      3600
      3592      3584      3596      3597      3592      3584      3596      3598
      3592      3584      3596      3599      3593      3592      3584      3596
      3594      3592      3584      3596      3595      3592      3584      3596
      3596      3584      3585      3600      3600      3606      3603      3604
      3600      3606      3603      3605      3600      3606      3603      3607
      3601      3600      3606      3603      3602      3600      3606      3603
      3603      3607      3608      3609      3603      3607      3608      3610
      3603      3607      3608      3611      3604      3603      3607      3608
      3605      3603      3607      3608      3606      3603      3607      3608
      3607      3608      3611      3612      3607      3608      3611      3613
      3607      3608      3611      3619      3608      3611      3613      3614
      3608      3611      3619      3620      3608      3611      3619      3621
      3608      3611      3619      3622      3609      3608      3611      3612
      3609      3608      3611      3613      3609      3608      3611      3619
      3610      3608      3611      3612      3610      3608      3611      3613
      3610      3608      3611      3619      3611      3613      3614      3615
      3611      3613      3614      3616      3611      3619      3622      3623
      3612      3611      3613      3614      3612      3611      3619      3620
      3612      3611      3619      3621      3612      3611      3619      3622
      3613      3611      3619      3620      3613      3611      3619      3621
      3613      3611      3619      3622      3613      3614      3616      3617
      3613      3614      3616      3618      3613      3614      3616      3628
      3614      3613      3611      3619      3614      3616      3628      3629
      3614      3616      3628      3630      3614      3616      3628      3631
      3615      3614      3616      3617      3615      3614      3616      3618
      3615      3614      3616      3628      3616      3628      3631      3632
      3616      3628      3631      3633      3616      3628      3631      3634
      3617      3616      3628      3629      3617      3616      3628      3630
      3617      3616      3628      3631      3618      3616      3628      3629
      3618      3616      3628      3630      3618      3616      3628      3631
      3619      3622      3623      3624      3619      3622      3623      3625
      3620      3619      3622      3623      3621      3619      3622      3623
      3622      3623      3625      3626      3622      3623      3625      3627
      3622      3623      3625      3675      3623      3625      3675      3676
      3623      3625      3675      3677      3623      3625      3675      3678
      3624      3623      3625      3626      3624      3623      3625      3627
      3624      3623      3625      3675      3625      3675      3678      3679
      3625      3675      3678      3680      3625      3675      3678      3681
      3626      3625      3675      3676      3626      3625      3675      3677
      3626      3625      3675      3678      3627      3625      3675      3676
      3627      3625      3675      3677      3627      3625      3675      3678
      3628      3631      3634      3635      3628      3631      3634      3636
      3628      3631      3634      3637      3629      3628      3631      3632
      3629      3628      3631      3633      3629      3628      3631      3634
      3630      3628      3631      3632      3630      3628      3631      3633
      3630      3628      3631      3634      3631      3634      3637      3638
      3631      3634      3637      3639      3631      3634      3637      3640
      3632      3631      3634      3635      3632      3631      3634      3636
      3632      3631      3634      3637      3633      3631      3634      3635
      3633      3631      3634      3636      3633      3631      3634      3637
      3634      3637      3640      3641      3634      3637      3640      3642
      3634      3637      3640      3643      3635      3634      3637      3638
      3635      3634      3637      3639      3635      3634      3637      3640
      3636      3634      3637      3638      3636      3634      3637      3639
      3636      3634      3637      3640      3637      3640      3643      3644
      3637      3640      3643      3645      3637      3640      3643      3646
      3638      3637      3640      3641      3638      3637      3640      3642
      3638      3637      3640      3643      3639      3637      3640      3641
      3639      3637      3640      3642      3639      3637      3640      3643
      3640      3643      3646      3647      3640      3643      3646      3648
      3641      3640      3643      3644      3641      3640      3643      3645
      3641      3640      3643      3646      3642      3640      3643      3644
      3642      3640      3643      3645      3642      3640      3643      3646
      3643      3646      3648      3649      3643      3646      3648      3650
      3644      3643      3646      3647      3644      3643      3646      3648
      3645      3643      3646      3647      3645      3643      3646      3648
      3646      3648      3650      3651      3646      3648      3650      3652
      3646      3648      3650      3653      3647      3646      3648      3649
      3647      3646      3648      3650      3648      3650      3653      3654
      3648      3650      3653      3655      3648      3650      3653      3656
      3649      3648      3650      3651      3649      3648      3650      3652
      3649      3648      3650      3653      3650      3653      3656      3657
      3650      3653      3656      3658      3650      3653      3656      3659
      3651      3650      3653      3654      3651      3650      3653      3655
      3651      3650      3653      3656      3652      3650      3653      3654
      3652      3650      3653      3655      3652      3650      3653      3656
      3653      3656      3659      3660      3653      3656      3659      3661
      3653      3656      3659      3662      3654      3653      3656      3657
      3654      3653      3656      3658      3654      3653      3656      3659
      3655      3653      3656      3657      3655      3653      3656      3658
      3655      3653      3656      3659      3656      3659      3662      3663
      3656      3659      3662      3664      3656      3659      3662      3665
      3657      3656      3659      3660      3657      3656      3659      3661
      3657      3656      3659      3662      3658      3656      3659      3660
      3658      3656      3659      3661      3658      3656      3659      3662
      3659      3662      3665      3666      3659      3662      3665      3667
      3659      3662      3665      3668      3660      3659      3662      3663
      3660      3659      3662      3664      3660      3659      3662      3665
      3661      3659      3662      3663      3661      3659      3662      3664
      3661      3659      3662      3665      3662      3665      3668      3669
      3662      3665      3668      3670      3662      3665      3668      3671
      3663      3662      3665      3666      3663      3662      3665      3667
      3663      3662      3665      3668      3664      3662      3665      3666
      3664      3662      3665      3667      3664      3662      3665      3668
      3665      3668      3671      3672      3665      3668      3671      3673
      3665      3668      3671      3674      3666      3665      3668      3669
      3666      3665      3668      3670      3666      3665      3668      3671
      3667      3665      3668      3669      3667      3665      3668      3670
      3667      3665      3668      3671      3669      3668      3671      3672
      3669      3668      3671      3673      3669      3668      3671      3674
      3670      3668      3671      3672      3670      3668      3671      3673
      3670      3668      3671      3674      3675      3678      3681      3682
      3675      3678      3681      3683      3675      3678      3681      3684
      3676      3675      3678      3679      3676      3675      3678      3680
      3676      3675      3678      3681      3677      3675      3678      3679
      3677      3675      3678      3680      3677      3675      3678      3681
      3678      3681      3684      3685      3678      3681      3684      3686
      3678      3681      3684      3687      3679      3678      3681      3682
      3679      3678      3681      3683      3679      3678      3681      3684
      3680      3678      3681      3682      3680      3678      3681      3683
      3680      3678      3681      3684      3681      3684      3687      3688
      3681      3684      3687      3689      3681      3684      3687      3690
      3682      3681      3684      3685      3682      3681      3684      3686
      3682      3681      3684      3687      3683      3681      3684      3685
      3683      3681      3684      3686      3683      3681      3684      3687
      3684      3687      3690      3691      3684      3687      3690      3692
      3684      3687      3690      3693      3685      3684      3687      3688
      3685      3684      3687      3689      3685      3684      3687      3690
      3686      3684      3687      3688      3686      3684      3687      3689
      3686      3684      3687      3690      3687      3690      3693      3694
      3687      3690      3693      3695      3687      3690      3693      3696
      3688      3687      3690      3691      3688      3687      3690      3692
      3688      3687      3690      3693      3689      3687      3690      3691
      3689      3687      3690      3692      3689      3687      3690      3693
      3690      3693      3696      3697      3690      3693      3696      3698
      3690      3693      3696      3699      3691      3690      3693      3694
      3691      3690      3693      3695      3691      3690      3693      3696
      3692      3690      3693      3694      3692      3690      3693      3695
      3692      3690      3693      3696      3693      3696      3699      3700
      3693      3696      3699      3701      3693      3696      3699      3702
      3694      3693      3696      3697      3694      3693      3696      3698
      3694      3693      3696      3699      3695      3693      3696      3697
      3695      3693      3696      3698      3695      3693      3696      3699
      3696      3699      3702      3703      3696      3699      3702      3704
      3696      3699      3702      3705      3697      3696      3699      3700
      3697      3696      3699      3701      3697      3696      3699      3702
      3698      3696      3699      3700      3698      3696      3699      3701
      3698      3696      3699      3702      3699      3702      3705      3706
      3699      3702      3705      3707      3699      3702      3705      3708
      3700      3699      3702      3703      3700      3699      3702      3704
      3700      3699      3702      3705      3701      3699      3702      3703
      3701      3699      3702      3704      3701      3699      3702      3705
      3702      3705      3708      3709      3702      3705      3708      3710
      3702      3705      3708      3711      3703      3702      3705      3706
      3703      3702      3705      3707      3703      3702      3705      3708
      3704      3702      3705      3706      3704      3702      3705      3707
      3704      3702      3705      3708      3705      3708      3711      3712
      3705      3708      3711      3713      3705      3708      3711      3714
      3706      3705      3708      3709      3706      3705      3708      3710
      3706      3705      3708      3711      3707      3705      3708      3709
      3707      3705      3708      3710      3707      3705      3708      3711
      3708      3711      3714      3715      3708      3711      3714      3716
      3708      3711      3714      3717      3709      3708      3711      3712
      3709      3708      3711      3713      3709      3708      3711      3714
      3710      3708      3711      3712      3710      3708      3711      3713
      3710      3708      3711      3714      3712      3711      3714      3715
      3712      3711      3714      3716      3712      3711      3714      3717
      3713      3711      3714      3715      3713      3711      3714      3716
      3713      3711      3714      3717      3718      3719      3734      3735
      3718      3719      3734      3736      3718      3719      3734      3740
      3719      3718      3722      3723      3719      3718      3722      3724
      3719      3718      3722      3725      3719      3718      3726      3727
      3719      3718      3726      3728      3719      3718      3726      3729
      3719      3718      3730      3731      3719      3718      3730      3732
      3719      3718      3730      3733      3719      3734      3740      3737
      3720      3719      3718      3722      3720      3719      3718      3726
      3720      3719      3718      3730      3720      3719      3734      3735
      3720      3719      3734      3736      3720      3719      3734      3740
      3721      3719      3718      3722      3721      3719      3718      3726
      3721      3719      3718      3730      3721      3719      3734      3735
      3721      3719      3734      3736      3721      3719      3734      3740
      3722      3718      3719      3734      3722      3718      3726      3727
      3722      3718      3726      3728      3722      3718      3726      3729
      3722      3718      3730      3731      3722      3718      3730      3732
      3722      3718      3730      3733      3723      3722      3718      3726
      3723      3722      3718      3730      3724      3722      3718      3726
      3724      3722      3718      3730      3725      3722      3718      3726
      3725      3722      3718      3730      3726      3718      3719      3734
      3726      3718      3730      3731      3726      3718      3730      3732
      3726      3718      3730      3733      3727      3726      3718      3730
      3728      3726      3718      3730      3729      3726      3718      3730
      3730      3718      3719      3734      3734      3740      3737      3738
      3734      3740      3737      3739      3734      3740      3737      3741
      3735      3734      3740      3737      3736      3734      3740      3737
      3737      3741      3742      3743      3737      3741      3742      3744
      3737      3741      3742      3745      3738      3737      3741      3742
      3739      3737      3741      3742      3740      3737      3741      3742
      3741      3742      3745      3746      3741      3742      3745      3747
      3741      3742      3745      3753      3742      3745      3747      3748
      3742      3745      3753      3754      3742      3745      3753      3755
      3742      3745      3753      3756      3743      3742      3745      3746
      3743      3742      3745      3747      3743      3742      3745      3753
      3744      3742      3745      3746      3744      3742      3745      3747
      3744      3742      3745      3753      3745      3747      3748      3749
      3745      3747      3748      3750      3745      3753      3756      3757
      3746      3745      3747      3748      3746      3745      3753      3754
      3746      3745      3753      3755      3746      3745      3753      3756
      3747      3745      3753      3754      3747      3745      3753      3755
      3747      3745      3753      3756      3747      3748      3750      3751
      3747      3748      3750      3752      3747      3748      3750      3762
      3748      3747      3745      3753      3748      3750      3762      3763
      3748      3750      3762      3764      3748      3750      3762      3765
      3749      3748      3750      3751      3749      3748      3750      3752
      3749      3748      3750      3762      3750      3762      3765      3766
      3750      3762      3765      3767      3750      3762      3765      3768
      3751      3750      3762      3763      3751      3750      3762      3764
      3751      3750      3762      3765      3752      3750      3762      3763
      3752      3750      3762      3764      3752      3750      3762      3765
      3753      3756      3757      3758      3753      3756      3757      3759
      3754      3753      3756      3757      3755      3753      3756      3757
      3756      3757      3759      3760      3756      3757      3759      3761
      3756      3757      3759      3809      3757      3759      3809      3810
      3757      3759      3809      3811      3757      3759      3809      3812
      3758      3757      3759      3760      3758      3757      3759      3761
      3758      3757      3759      3809      3759      3809      3812      3813
      3759      3809      3812      3814      3759      3809      3812      3815
      3760      3759      3809      3810      3760      3759      3809      3811
      3760      3759      3809      3812      3761      3759      3809      3810
      3761      3759      3809      3811      3761      3759      3809      3812
      3762      3765      3768      3769      3762      3765      3768      3770
      3762      3765      3768      3771      3763      3762      3765      3766
      3763      3762      3765      3767      3763      3762      3765      3768
      3764      3762      3765      3766      3764      3762      3765      3767
      3764      3762      3765      3768      3765      3768      3771      3772
      3765      3768      3771      3773      3765      3768      3771      3774
      3766      3765      3768      3769      3766      3765      3768      3770
      3766      3765      3768      3771      3767      3765      3768      3769
      3767      3765      3768      3770      3767      3765      3768      3771
      3768      3771      3774      3775      3768      3771      3774      3776
      3768      3771      3774      3777      3769      3768      3771      3772
      3769      3768      3771      3773      3769      3768      3771      3774
      3770      3768      3771      3772      3770      3768      3771      3773
      3770      3768      3771      3774      3771      3774      3777      3778
      3771      3774      3777      3779      3771      3774      3777      3780
      3772      3771      3774      3775      3772      3771      3774      3776
      3772      3771      3774      3777      3773      3771      3774      3775
      3773      3771      3774      3776      3773      3771      3774      3777
      3774      3777      3780      3781      3774      3777      3780      3782
      3775      3774      3777      3778      3775      3774      3777      3779
      3775      3774      3777      3780      3776      3774      3777      3778
      3776      3774      3777      3779      3776      3774      3777      3780
      3777      3780      3782      3783      3777      3780      3782      3784
      3778      3777      3780      3781      3778      3777      3780      3782
      3779      3777      3780      3781      3779      3777      3780      3782
      3780      3782      3784      3785      3780      3782      3784      3786
      3780      3782      3784      3787      3781      3780      3782      3783
      3781      3780      3782      3784      3782      3784      3787      3788
      3782      3784      3787      3789      3782      3784      3787      3790
      3783      3782      3784      3785      3783      3782      3784      3786
      3783      3782      3784      3787      3784      3787      3790      3791
      3784      3787      3790      3792      3784      3787      3790      3793
      3785      3784      3787      3788      3785      3784      3787      3789
      3785      3784      3787      3790      3786      3784      3787      3788
      3786      3784      3787      3789      3786      3784      3787      3790
      3787      3790      3793      3794      3787      3790      3793      3795
      3787      3790      3793      3796      3788      3787      3790      3791
      3788      3787      3790      3792      3788      3787      3790      3793
      3789      3787      3790      3791      3789      3787      3790      3792
      3789      3787      3790      3793      3790      3793      3796      3797
      3790      3793      3796      3798      3790      3793      3796      3799
      3791      3790      3793      3794      3791      3790      3793      3795
      3791      3790      3793      3796      3792      3790      3793      3794
      3792      3790      3793      3795      3792      3790      3793      3796
      3793      3796      3799      3800      3793      3796      3799      3801
      3793      3796      3799      3802      3794      3793      3796      3797
      3794      3793      3796      3798      3794      3793      3796      3799
      3795      3793      3796      3797      3795      3793      3796      3798
      3795      3793      3796      3799      3796      3799      3802      3803
      3796      3799      3802      3804      3796      3799      3802      3805
      3797      3796      3799      3800      3797      3796      3799      3801
      3797      3796      3799      3802      3798      3796      3799      3800
      3798      3796      3799      3801      3798      3796      3799      3802
      3799      3802      3805      3806      3799      3802      3805      3807
      3799      3802      3805      3808      3800      3799      3802      3803
      3800      3799      3802      3804      3800      3799      3802      3805
      3801      3799      3802      3803      3801      3799      3802      3804
      3801      3799      3802      3805      3803      3802      3805      3806
      3803      3802      3805      3807      3803      3802      3805      3808
      3804      3802      3805      3806      3804      3802      3805      3807
      3804      3802      3805      3808      3809      3812      3815      3816
      3809      3812      3815      3817      3809      3812      3815      3818
      3810      3809      3812      3813      3810      3809      3812      3814
      3810      3809      3812      3815      3811      3809      3812      3813
      3811      3809      3812      3814      3811      3809      3812      3815
      3812      3815      3818      3819      3812      3815      3818      3820
      3812      3815      3818      3821      3813      3812      3815      3816
      3813      3812      3815      3817      3813      3812      3815      3818
      3814      3812      3815      3816      3814      3812      3815      3817
      3814      3812      3815      3818      3815      3818      3821      3822
      3815      3818      3821      3823      3815      3818      3821      3824
      3816      3815      3818      3819      3816      3815      3818      3820
      3816      3815      3818      3821      3817      3815      3818      3819
      3817      3815      3818      3820      3817      3815      3818      3821
      3818      3821      3824      3825      3818      3821      3824      3826
      3818      3821      3824      3827      3819      3818      3821      3822
      3819      3818      3821      3823      3819      3818      3821      3824
      3820      3818      3821      3822      3820      3818      3821      3823
      3820      3818      3821      3824      3821      3824      3827      3828
      3821      3824      3827      3829      3821      3824      3827      3830
      3822      3821      3824      3825      3822      3821      3824      3826
      3822      3821      3824      3827      3823      3821      3824      3825
      3823      3821      3824      3826      3823      3821      3824      3827
      3824      3827      3830      3831      3824      3827      3830      3832
      3824      3827      3830      3833      3825      3824      3827      3828
      3825      3824      3827      3829      3825      3824      3827      3830
      3826      3824      3827      3828      3826      3824      3827      3829
      3826      3824      3827      3830      3827      3830      3833      3834
      3827      3830      3833      3835      3827      3830      3833      3836
      3828      3827      3830      3831      3828      3827      3830      3832
      3828      3827      3830      3833      3829      3827      3830      3831
      3829      3827      3830      3832      3829      3827      3830      3833
      3830      3833      3836      3837      3830      3833      3836      3838
      3830      3833      3836      3839      3831      3830      3833      3834
      3831      3830      3833      3835      3831      3830      3833      3836
      3832      3830      3833      3834      3832      3830      3833      3835
      3832      3830      3833      3836      3833      3836      3839      3840
      3833      3836      3839      3841      3833      3836      3839      3842
      3834      3833      3836      3837      3834      3833      3836      3838
      3834      3833      3836      3839      3835      3833      3836      3837
      3835      3833      3836      3838      3835      3833      3836      3839
      3836      3839      3842      3843      3836      3839      3842      3844
      3836      3839      3842      3845      3837      3836      3839      3840
      3837      3836      3839      3841      3837      3836      3839      3842
      3838      3836      3839      3840      3838      3836      3839      3841
      3838      3836      3839      3842      3839      3842      3845      3846
      3839      3842      3845      3847      3839      3842      3845      3848
      3840      3839      3842      3843      3840      3839      3842      3844
      3840      3839      3842      3845      3841      3839      3842      3843
      3841      3839      3842      3844      3841      3839      3842      3845
      3842      3845      3848      3849      3842      3845      3848      3850
      3842      3845      3848      3851      3843      3842      3845      3846
      3843      3842      3845      3847      3843      3842      3845      3848
      3844      3842      3845      3846      3844      3842      3845      3847
      3844      3842      3845      3848      3846      3845      3848      3849
      3846      3845      3848      3850      3846      3845      3848      3851
      3847      3845      3848      3849      3847      3845      3848      3850
      3847      3845      3848      3851      3852      3853      3868      3869
      3852      3853      3868      3870      3852      3853      3868      3874
      3853      3852      3856      3857      3853      3852      3856      3858
      3853      3852      3856      3859      3853      3852      3860      3861
      3853      3852      3860      3862      3853      3852      3860      3863
      3853      3852      3864      3865      3853      3852      3864      3866
      3853      3852      3864      3867      3853      3868      3874      3871
      3854      3853      3852      3856      3854      3853      3852      3860
      3854      3853      3852      3864      3854      3853      3868      3869
      3854      3853      3868      3870      3854      3853      3868      3874
      3855      3853      3852      3856      3855      3853      3852      3860
      3855      3853      3852      3864      3855      3853      3868      3869
      3855      3853      3868      3870      3855      3853      3868      3874
      3856      3852      3853      3868      3856      3852      3860      3861
      3856      3852      3860      3862      3856      3852      3860      3863
      3856      3852      3864      3865      3856      3852      3864      3866
      3856      3852      3864      3867      3857      3856      3852      3860
      3857      3856      3852      3864      3858      3856      3852      3860
      3858      3856      3852      3864      3859      3856      3852      3860
      3859      3856      3852      3864      3860      3852      3853      3868
      3860      3852      3864      3865      3860      3852      3864      3866
      3860      3852      3864      3867      3861      3860      3852      3864
      3862      3860      3852      3864      3863      3860      3852      3864
      3864      3852      3853      3868      3868      3874      3871      3872
      3868      3874      3871      3873      3868      3874      3871      3875
      3869      3868      3874      3871      3870      3868      3874      3871
      3871      3875      3876      3877      3871      3875      3876      3878
      3871      3875      3876      3879      3872      3871      3875      3876
      3873      3871      3875      3876      3874      3871      3875      3876
      3875      3876      3879      3880      3875      3876      3879      3881
      3875      3876      3879      3887      3876      3879      3881      3882
      3876      3879      3887      3888      3876      3879      3887      3889
      3876      3879      3887      3890      3877      3876      3879      3880
      3877      3876      3879      3881      3877      3876      3879      3887
      3878      3876      3879      3880      3878      3876      3879      3881
      3878      3876      3879      3887      3879      3881      3882      3883
      3879      3881      3882      3884      3879      3887      3890      3891
      3880      3879      3881      3882      3880      3879      3887      3888
      3880      3879      3887      3889      3880      3879      3887      3890
      3881      3879      3887      3888      3881      3879      3887      3889
      3881      3879      3887      3890      3881      3882      3884      3885
      3881      3882      3884      3886      3881      3882      3884      3896
      3882      3881      3879      3887      3882      3884      3896      3897
      3882      3884      3896      3898      3882      3884      3896      3899
      3883      3882      3884      3885      3883      3882      3884      3886
      3883      3882      3884      3896      3884      3896      3899      3900
      3884      3896      3899      3901      3884      3896      3899      3902
      3885      3884      3896      3897      3885      3884      3896      3898
      3885      3884      3896      3899      3886      3884      3896      3897
      3886      3884      3896      3898      3886      3884      3896      3899
      3887      3890      3891      3892      3887      3890      3891      3893
      3888      3887      3890      3891      3889      3887      3890      3891
      3890      3891      3893      3894      3890      3891      3893      3895
      3890      3891      3893      3943      3891      3893      3943      3944
      3891      3893      3943      3945      3891      3893      3943      3946
      3892      3891      3893      3894      3892      3891      3893      3895
      3892      3891      3893      3943      3893      3943      3946      3947
      3893      3943      3946      3948      3893      3943      3946      3949
      3894      3893      3943      3944      3894      3893      3943      3945
      3894      3893      3943      3946      3895      3893      3943      3944
      3895      3893      3943      3945      3895      3893      3943      3946
      3896      3899      3902      3903      3896      3899      3902      3904
      3896      3899      3902      3905      3897      3896      3899      3900
      3897      3896      3899      3901      3897      3896      3899      3902
      3898      3896      3899      3900      3898      3896      3899      3901
      3898      3896      3899      3902      3899      3902      3905      3906
      3899      3902      3905      3907      3899      3902      3905      3908
      3900      3899      3902      3903      3900      3899      3902      3904
      3900      3899      3902      3905      3901      3899      3902      3903
      3901      3899      3902      3904      3901      3899      3902      3905
      3902      3905      3908      3909      3902      3905      3908      3910
      3902      3905      3908      3911      3903      3902      3905      3906
      3903      3902      3905      3907      3903      3902      3905      3908
      3904      3902      3905      3906      3904      3902      3905      3907
      3904      3902      3905      3908      3905      3908      3911      3912
      3905      3908      3911      3913      3905      3908      3911      3914
      3906      3905      3908      3909      3906      3905      3908      3910
      3906      3905      3908      3911      3907      3905      3908      3909
      3907      3905      3908      3910      3907      3905      3908      3911
      3908      3911      3914      3915      3908      3911      3914      3916
      3909      3908      3911      3912      3909      3908      3911      3913
      3909      3908      3911      3914      3910      3908      3911      3912
      3910      3908      3911      3913      3910      3908      3911      3914
      3911      3914      3916      3917      3911      3914      3916      3918
      3912      3911      3914      3915      3912      3911      3914      3916
      3913      3911      3914      3915      3913      3911      3914      3916
      3914      3916      3918      3919      3914      3916      3918      3920
      3914      3916      3918      3921      3915      3914      3916      3917
      3915      3914      3916      3918      3916      3918      3921      3922
      3916      3918      3921      3923      3916      3918      3921      3924
      3917      3916      3918      3919      3917      3916      3918      3920
      3917      3916      3918      3921      3918      3921      3924      3925
      3918      3921      3924      3926      3918      3921      3924      3927
      3919      3918      3921      3922      3919      3918      3921      3923
      3919      3918      3921      3924      3920      3918      3921      3922
      3920      3918      3921      3923      3920      3918      3921      3924
      3921      3924      3927      3928      3921      3924      3927      3929
      3921      3924      3927      3930      3922      3921      3924      3925
      3922      3921      3924      3926      3922      3921      3924      3927
      3923      3921      3924      3925      3923      3921      3924      3926
      3923      3921      3924      3927      3924      3927      3930      3931
      3924      3927      3930      3932      3924      3927      3930      3933
      3925      3924      3927      3928      3925      3924      3927      3929
      3925      3924      3927      3930      3926      3924      3927      3928
      3926      3924      3927      3929      3926      3924      3927      3930
      3927      3930      3933      3934      3927      3930      3933      3935
      3927      3930      3933      3936      3928      3927      3930      3931
      3928      3927      3930      3932      3928      3927      3930      3933
      3929      3927      3930      3931      3929      3927      3930      3932
      3929      3927      3930      3933      3930      3933      3936      3937
      3930      3933      3936      3938      3930      3933      3936      3939
      3931      3930      3933      3934      3931      3930      3933      3935
      3931      3930      3933      3936      3932      3930      3933      3934
      3932      3930      3933      3935      3932      3930      3933      3936
      3933      3936      3939      3940      3933      3936      3939      3941
      3933      3936      3939      3942      3934      3933      3936      3937
      3934      3933      3936      3938      3934      3933      3936      3939
      3935      3933      3936      3937      3935      3933      3936      3938
      3935      3933      3936      3939      3937      3936      3939      3940
      3937      3936      3939      3941      3937      3936      3939      3942
      3938      3936      3939      3940      3938      3936      3939      3941
      3938      3936      3939      3942      3943      3946      3949      3950
      3943      3946      3949      3951      3943      3946      3949      3952
      3944      3943      3946      3947      3944      3943      3946      3948
      3944      3943      3946      3949      3945      3943      3946      3947
      3945      3943      3946      3948      3945      3943      3946      3949
      3946      3949      3952      3953      3946      3949      3952      3954
      3946      3949      3952      3955      3947      3946      3949      3950
      3947      3946      3949      3951      3947      3946      3949      3952
      3948      3946      3949      3950      3948      3946      3949      3951
      3948      3946      3949      3952      3949      3952      3955      3956
      3949      3952      3955      3957      3949      3952      3955      3958
      3950      3949      3952      3953      3950      3949      3952      3954
      3950      3949      3952      3955      3951      3949      3952      3953
      3951      3949      3952      3954      3951      3949      3952      3955
      3952      3955      3958      3959      3952      3955      3958      3960
      3952      3955      3958      3961      3953      3952      3955      3956
      3953      3952      3955      3957      3953      3952      3955      3958
      3954      3952      3955      3956      3954      3952      3955      3957
      3954      3952      3955      3958      3955      3958      3961      3962
      3955      3958      3961      3963      3955      3958      3961      3964
      3956      3955      3958      3959      3956      3955      3958      3960
      3956      3955      3958      3961      3957      3955      3958      3959
      3957      3955      3958      3960      3957      3955      3958      3961
      3958      3961      3964      3965      3958      3961      3964      3966
      3958      3961      3964      3967      3959      3958      3961      3962
      3959      3958      3961      3963      3959      3958      3961      3964
      3960      3958      3961      3962      3960      3958      3961      3963
      3960      3958      3961      3964      3961      3964      3967      3968
      3961      3964      3967      3969      3961      3964      3967      3970
      3962      3961      3964      3965      3962      3961      3964      3966
      3962      3961      3964      3967      3963      3961      3964      3965
      3963      3961      3964      3966      3963      3961      3964      3967
      3964      3967      3970      3971      3964      3967      3970      3972
      3964      3967      3970      3973      3965      3964      3967      3968
      3965      3964      3967      3969      3965      3964      3967      3970
      3966      3964      3967      3968      3966      3964      3967      3969
      3966      3964      3967      3970      3967      3970      3973      3974
      3967      3970      3973      3975      3967      3970      3973      3976
      3968      3967      3970      3971      3968      3967      3970      3972
      3968      3967      3970      3973      3969      3967      3970      3971
      3969      3967      3970      3972      3969      3967      3970      3973
      3970      3973      3976      3977      3970      3973      3976      3978
      3970      3973      3976      3979      3971      3970      3973      3974
      3971      3970      3973      3975      3971      3970      3973      3976
      3972      3970      3973      3974      3972      3970      3973      3975
      3972      3970      3973      3976      3973      3976      3979      3980
      3973      3976      3979      3981      3973      3976      3979      3982
      3974      3973      3976      3977      3974      3973      3976      3978
      3974      3973      3976      3979      3975      3973      3976      3977
      3975      3973      3976      3978      3975      3973      3976      3979
      3976      3979      3982      3983      3976      3979      3982      3984
      3976      3979      3982      3985      3977      3976      3979      3980
      3977      3976      3979      3981      3977      3976      3979      3982
      3978      3976      3979      3980      3978      3976      3979      3981
      3978      3976      3979      3982      3980      3979      3982      3983
      3980      3979      3982      3984      3980      3979      3982      3985
      3981      3979      3982      3983      3981      3979      3982      3984
      3981      3979      3982      3985      3986      3990      3992      3993
      3986      3990      3992      3994      3986      3990      3995      3996
      3986      3990      3995      3997      3986      3990      3995      4001
      3987      3986      3990      3991      3987      3986      3990      3992
      3987      3986      3990      3995      3988      3986      3990      3991
      3988      3986      3990      3992      3988      3986      3990      3995
      3989      3986      3990      3991      3989      3986      3990      3992
      3989      3986      3990      3995      3990      3995      4001      3998
      3991      3990      3992      3993      3991      3990      3992      3994
      3991      3990      3995      3996      3991      3990      3995      3997
      3991      3990      3995      4001      3992      3990      3995      3996
      3992      3990      3995      3997      3992      3990      3995      4001
      3993      3992      3990      3995      3994      3992      3990      3995
      3995      4001      3998      3999      3995      4001      3998      4000
      3995      4001      3998      4002      3996      3995      4001      3998
      3997      3995      4001      3998      3998      4002      4003      4004
      3998      4002      4003      4005      3998      4002      4003      4006
      3999      3998      4002      4003      4000      3998      4002      4003
      4001      3998      4002      4003      4002      4003      4006      4007
      4002      4003      4006      4008      4002      4003      4006      4014
      4003      4006      4008      4009      4003      4006      4014      4015
      4003      4006      4014      4016      4003      4006      4014      4017
      4004      4003      4006      4007      4004      4003      4006      4008
      4004      4003      4006      4014      4005      4003      4006      4007
      4005      4003      4006      4008      4005      4003      4006      4014
      4006      4008      4009      4010      4006      4008      4009      4011
      4006      4014      4017      4018      4007      4006      4008      4009
      4007      4006      4014      4015      4007      4006      4014      4016
      4007      4006      4014      4017      4008      4006      4014      4015
      4008      4006      4014      4016      4008      4006      4014      4017
      4008      4009      4011      4012      4008      4009      4011      4013
      4008      4009      4011      4023      4009      4008      4006      4014
      4009      4011      4023      4024      4009      4011      4023      4025
      4009      4011      4023      4026      4010      4009      4011      4012
      4010      4009      4011      4013      4010      4009      4011      4023
      4011      4023      4026      4027      4011      4023      4026      4028
      4011      4023      4026      4029      4012      4011      4023      4024
      4012      4011      4023      4025      4012      4011      4023      4026
      4013      4011      4023      4024      4013      4011      4023      4025
      4013      4011      4023      4026      4014      4017      4018      4019
      4014      4017      4018      4020      4015      4014      4017      4018
      4016      4014      4017      4018      4017      4018      4020      4021
      4017      4018      4020      4022      4017      4018      4020      4070
      4018      4020      4070      4071      4018      4020      4070      4072
      4018      4020      4070      4073      4019      4018      4020      4021
      4019      4018      4020      4022      4019      4018      4020      4070
      4020      4070      4073      4074      4020      4070      4073      4075
      4020      4070      4073      4076      4021      4020      4070      4071
      4021      4020      4070      4072      4021      4020      4070      4073
      4022      4020      4070      4071      4022      4020      4070      4072
      4022      4020      4070      4073      4023      4026      4029      4030
      4023      4026      4029      4031      4023      4026      4029      4032
      4024      4023      4026      4027      4024      4023      4026      4028
      4024      4023      4026      4029      4025      4023      4026      4027
      4025      4023      4026      4028      4025      4023      4026      4029
      4026      4029      4032      4033      4026      4029      4032      4034
      4026      4029      4032      4035      4027      4026      4029      4030
      4027      4026      4029      4031      4027      4026      4029      4032
      4028      4026      4029      4030      4028      4026      4029      4031
      4028      4026      4029      4032      4029      4032      4035      4036
      4029      4032      4035      4037      4029      4032      4035      4038
      4030      4029      4032      4033      4030      4029      4032      4034
      4030      4029      4032      4035      4031      4029      4032      4033
      4031      4029      4032      4034      4031      4029      4032      4035
      4032      4035      4038      4039      4032      4035      4038      4040
      4032      4035      4038      4041      4033      4032      4035      4036
      4033      4032      4035      4037      4033      4032      4035      4038
      4034      4032      4035      4036      4034      4032      4035      4037
      4034      4032      4035      4038      4035      4038      4041      4042
      4035      4038      4041      4043      4036      4035      4038      4039
      4036      4035      4038      4040      4036      4035      4038      4041
      4037      4035      4038      4039      4037      4035      4038      4040
      4037      4035      4038      4041      4038      4041      4043      4044
      4038      4041      4043      4045      4039      4038      4041      4042
      4039      4038      4041      4043      4040      4038      4041      4042
      4040      4038      4041      4043      4041      4043      4045      4046
      4041      4043      4045      4047      4041      4043      4045      4048
      4042      4041      4043      4044      4042      4041      4043      4045
      4043      4045      4048      4049      4043      4045      4048      4050
      4043      4045      4048      4051      4044      4043      4045      4046
      4044      4043      4045      4047      4044      4043      4045      4048
      4045      4048      4051      4052      4045      4048      4051      4053
      4045      4048      4051      4054      4046      4045      4048      4049
      4046      4045      4048      4050      4046      4045      4048      4051
      4047      4045      4048      4049      4047      4045      4048      4050
      4047      4045      4048      4051      4048      4051      4054      4055
      4048      4051      4054      4056      4048      4051      4054      4057
      4049      4048      4051      4052      4049      4048      4051      4053
      4049      4048      4051      4054      4050      4048      4051      4052
      4050      4048      4051      4053      4050      4048      4051      4054
      4051      4054      4057      4058      4051      4054      4057      4059
      4051      4054      4057      4060      4052      4051      4054      4055
      4052      4051      4054      4056      4052      4051      4054      4057
      4053      4051      4054      4055      4053      4051      4054      4056
      4053      4051      4054      4057      4054      4057      4060      4061
      4054      4057      4060      4062      4054      4057      4060      4063
      4055      4054      4057      4058      4055      4054      4057      4059
      4055      4054      4057      4060      4056      4054      4057      4058
      4056      4054      4057      4059      4056      4054      4057      4060
      4057      4060      4063      4064      4057      4060      4063      4065
      4057      4060      4063      4066      4058      4057      4060      4061
      4058      4057      4060      4062      4058      4057      4060      4063
      4059      4057      4060      4061      4059      4057      4060      4062
      4059      4057      4060      4063      4060      4063      4066      4067
      4060      4063      4066      4068      4060      4063      4066      4069
      4061      4060      4063      4064      4061      4060      4063      4065
      4061      4060      4063      4066      4062      4060      4063      4064
      4062      4060      4063      4065      4062      4060      4063      4066
      4064      4063      4066      4067      4064      4063      4066      4068
      4064      4063      4066      4069      4065      4063      4066      4067
      4065      4063      4066      4068      4065      4063      4066      4069
      4070      4073      4076      4077      4070      4073      4076      4078
      4070      4073      4076      4079      4071      4070      4073      4074
      4071      4070      4073      4075      4071      4070      4073      4076
      4072      4070      4073      4074      4072      4070      4073      4075
      4072      4070      4073      4076      4073      4076      4079      4080
      4073      4076      4079      4081      4073      4076      4079      4082
      4074      4073      4076      4077      4074      4073      4076      4078
      4074      4073      4076      4079      4075      4073      4076      4077
      4075      4073      4076      4078      4075      4073      4076      4079
      4076      4079      4082      4083      4076      4079      4082      4084
      4076      4079      4082      4085      4077      4076      4079      4080
      4077      4076      4079      4081      4077      4076      4079      4082
      4078      4076      4079      4080      4078      4076      4079      4081
      4078      4076      4079      4082      4079      4082      4085      4086
      4079      4082      4085      4087      4079      4082      4085      4088
      4080      4079      4082      4083      4080      4079      4082      4084
      4080      4079      4082      4085      4081      4079      4082      4083
      4081      4079      4082      4084      4081      4079      4082      4085
      4082      4085      4088      4089      4082      4085      4088      4090
      4082      4085      4088      4091      4083      4082      4085      4086
      4083      4082      4085      4087      4083      4082      4085      4088
      4084      4082      4085      4086      4084      4082      4085      4087
      4084      4082      4085      4088      4085      4088      4091      4092
      4085      4088      4091      4093      4085      4088      4091      4094
      4086      4085      4088      4089      4086      4085      4088      4090
      4086      4085      4088      4091      4087      4085      4088      4089
      4087      4085      4088      4090      4087      4085      4088      4091
      4088      4091      4094      4095      4088      4091      4094      4096
      4088      4091      4094      4097      4089      4088      4091      4092
      4089      4088      4091      4093      4089      4088      4091      4094
      4090      4088      4091      4092      4090      4088      4091      4093
      4090      4088      4091      4094      4091      4094      4097      4098
      4091      4094      4097      4099      4091      4094      4097      4100
      4092      4091      4094      4095      4092      4091      4094      4096
      4092      4091      4094      4097      4093      4091      4094      4095
      4093      4091      4094      4096      4093      4091      4094      4097
      4094      4097      4100      4101      4094      4097      4100      4102
      4094      4097      4100      4103      4095      4094      4097      4098
      4095      4094      4097      4099      4095      4094      4097      4100
      4096      4094      4097      4098      4096      4094      4097      4099
      4096      4094      4097      4100      4097      4100      4103      4104
      4097      4100      4103      4105      4097      4100      4103      4106
      4098      4097      4100      4101      4098      4097      4100      4102
      4098      4097      4100      4103      4099      4097      4100      4101
      4099      4097      4100      4102      4099      4097      4100      4103
      4100      4103      4106      4107      4100      4103      4106      4108
      4100      4103      4106      4109      4101      4100      4103      4104
      4101      4100      4103      4105      4101      4100      4103      4106
      4102      4100      4103      4104      4102      4100      4103      4105
      4102      4100      4103      4106      4103      4106      4109      4110
      4103      4106      4109      4111      4103      4106      4109      4112
      4104      4103      4106      4107      4104      4103      4106      4108
      4104      4103      4106      4109      4105      4103      4106      4107
      4105      4103      4106      4108      4105      4103      4106      4109
      4107      4106      4109      4110      4107      4106      4109      4111
      4107      4106      4109      4112      4108      4106      4109      4110
      4108      4106      4109      4111      4108      4106      4109      4112
      4113      4114      4129      4130      4113      4114      4129      4131
      4113      4114      4129      4135      4114      4113      4117      4118
      4114      4113      4117      4119      4114      4113      4117      4120
      4114      4113      4121      4122      4114      4113      4121      4123
      4114      4113      4121      4124      4114      4113      4125      4126
      4114      4113      4125      4127      4114      4113      4125      4128
      4114      4129      4135      4132      4115      4114      4113      4117
      4115      4114      4113      4121      4115      4114      4113      4125
      4115      4114      4129      4130      4115      4114      4129      4131
      4115      4114      4129      4135      4116      4114      4113      4117
      4116      4114      4113      4121      4116      4114      4113      4125
      4116      4114      4129      4130      4116      4114      4129      4131
      4116      4114      4129      4135      4117      4113      4114      4129
      4117      4113      4121      4122      4117      4113      4121      4123
      4117      4113      4121      4124      4117      4113      4125      4126
      4117      4113      4125      4127      4117      4113      4125      4128
      4118      4117      4113      4121      4118      4117      4113      4125
      4119      4117      4113      4121      4119      4117      4113      4125
      4120      4117      4113      4121      4120      4117      4113      4125
      4121      4113      4114      4129      4121      4113      4125      4126
      4121      4113      4125      4127      4121      4113      4125      4128
      4122      4121      4113      4125      4123      4121      4113      4125
      4124      4121      4113      4125      4125      4113      4114      4129
      4129      4135      4132      4133      4129      4135      4132      4134
      4129      4135      4132      4136      4130      4129      4135      4132
      4131      4129      4135      4132      4132      4136      4137      4138
      4132      4136      4137      4139      4132      4136      4137      4140
      4133      4132      4136      4137      4134      4132      4136      4137
      4135      4132      4136      4137      4136      4137      4140      4141
      4136      4137      4140      4142      4136      4137      4140      4148
      4137      4140      4142      4143      4137      4140      4148      4149
      4137      4140      4148      4150      4137      4140      4148      4151
      4138      4137      4140      4141      4138      4137      4140      4142
      4138      4137      4140      4148      4139      4137      4140      4141
      4139      4137      4140      4142      4139      4137      4140      4148
      4140      4142      4143      4144      4140      4142      4143      4145
      4140      4148      4151      4152      4141      4140      4142      4143
      4141      4140      4148      4149      4141      4140      4148      4150
      4141      4140      4148      4151      4142      4140      4148      4149
      4142      4140      4148      4150      4142      4140      4148      4151
      4142      4143      4145      4146      4142      4143      4145      4147
      4142      4143      4145      4157      4143      4142      4140      4148
      4143      4145      4157      4158      4143      4145      4157      4159
      4143      4145      4157      4160      4144      4143      4145      4146
      4144      4143      4145      4147      4144      4143      4145      4157
      4145      4157      4160      4161      4145      4157      4160      4162
      4145      4157      4160      4163      4146      4145      4157      4158
      4146      4145      4157      4159      4146      4145      4157      4160
      4147      4145      4157      4158      4147      4145      4157      4159
      4147      4145      4157      4160      4148      4151      4152      4153
      4148      4151      4152      4154      4149      4148      4151      4152
      4150      4148      4151      4152      4151      4152      4154      4155
      4151      4152      4154      4156      4151      4152      4154      4204
      4152      4154      4204      4205      4152      4154      4204      4206
      4152      4154      4204      4207      4153      4152      4154      4155
      4153      4152      4154      4156      4153      4152      4154      4204
      4154      4204      4207      4208      4154      4204      4207      4209
      4154      4204      4207      4210      4155      4154      4204      4205
      4155      4154      4204      4206      4155      4154      4204      4207
      4156      4154      4204      4205      4156      4154      4204      4206
      4156      4154      4204      4207      4157      4160      4163      4164
      4157      4160      4163      4165      4157      4160      4163      4166
      4158      4157      4160      4161      4158      4157      4160      4162
      4158      4157      4160      4163      4159      4157      4160      4161
      4159      4157      4160      4162      4159      4157      4160      4163
      4160      4163      4166      4167      4160      4163      4166      4168
      4160      4163      4166      4169      4161      4160      4163      4164
      4161      4160      4163      4165      4161      4160      4163      4166
      4162      4160      4163      4164      4162      4160      4163      4165
      4162      4160      4163      4166      4163      4166      4169      4170
      4163      4166      4169      4171      4163      4166      4169      4172
      4164      4163      4166      4167      4164      4163      4166      4168
      4164      4163      4166      4169      4165      4163      4166      4167
      4165      4163      4166      4168      4165      4163      4166      4169
      4166      4169      4172      4173      4166      4169      4172      4174
      4166      4169      4172      4175      4167      4166      4169      4170
      4167      4166      4169      4171      4167      4166      4169      4172
      4168      4166      4169      4170      4168      4166      4169      4171
      4168      4166      4169      4172      4169      4172      4175      4176
      4169      4172      4175      4177      4170      4169      4172      4173
      4170      4169      4172      4174      4170      4169      4172      4175
      4171      4169      4172      4173      4171      4169      4172      4174
      4171      4169      4172      4175      4172      4175      4177      4178
      4172      4175      4177      4179      4173      4172      4175      4176
      4173      4172      4175      4177      4174      4172      4175      4176
      4174      4172      4175      4177      4175      4177      4179      4180
      4175      4177      4179      4181      4175      4177      4179      4182
      4176      4175      4177      4178      4176      4175      4177      4179
      4177      4179      4182      4183      4177      4179      4182      4184
      4177      4179      4182      4185      4178      4177      4179      4180
      4178      4177      4179      4181      4178      4177      4179      4182
      4179      4182      4185      4186      4179      4182      4185      4187
      4179      4182      4185      4188      4180      4179      4182      4183
      4180      4179      4182      4184      4180      4179      4182      4185
      4181      4179      4182      4183      4181      4179      4182      4184
      4181      4179      4182      4185      4182      4185      4188      4189
      4182      4185      4188      4190      4182      4185      4188      4191
      4183      4182      4185      4186      4183      4182      4185      4187
      4183      4182      4185      4188      4184      4182      4185      4186
      4184      4182      4185      4187      4184      4182      4185      4188
      4185      4188      4191      4192      4185      4188      4191      4193
      4185      4188      4191      4194      4186      4185      4188      4189
      4186      4185      4188      4190      4186      4185      4188      4191
      4187      4185      4188      4189      4187      4185      4188      4190
      4187      4185      4188      4191      4188      4191      4194      4195
      4188      4191      4194      4196      4188      4191      4194      4197
      4189      4188      4191      4192      4189      4188      4191      4193
      4189      4188      4191      4194      4190      4188      4191      4192
      4190      4188      4191      4193      4190      4188      4191      4194
      4191      4194      4197      4198      4191      4194      4197      4199
      4191      4194      4197      4200      4192      4191      4194      4195
      4192      4191      4194      4196      4192      4191      4194      4197
      4193      4191      4194      4195      4193      4191      4194      4196
      4193      4191      4194      4197      4194      4197      4200      4201
      4194      4197      4200      4202      4194      4197      4200      4203
      4195      4194      4197      4198      4195      4194      4197      4199
      4195      4194      4197      4200      4196      4194      4197      4198
      4196      4194      4197      4199      4196      4194      4197      4200
      4198      4197      4200      4201      4198      4197      4200      4202
      4198      4197      4200      4203      4199      4197      4200      4201
      4199      4197      4200      4202      4199      4197      4200      4203
      4204      4207      4210      4211      4204      4207      4210      4212
      4204      4207      4210      4213      4205      4204      4207      4208
      4205      4204      4207      4209      4205      4204      4207      4210
      4206      4204      4207      4208      4206      4204      4207      4209
      4206      4204      4207      4210      4207      4210      4213      4214
      4207      4210      4213      4215      4207      4210      4213      4216
      4208      4207      4210      4211      4208      4207      4210      4212
      4208      4207      4210      4213      4209      4207      4210      4211
      4209      4207      4210      4212      4209      4207      4210      4213
      4210      4213      4216      4217      4210      4213      4216      4218
      4210      4213      4216      4219      4211      4210      4213      4214
      4211      4210      4213      4215      4211      4210      4213      4216
      4212      4210      4213      4214      4212      4210      4213      4215
      4212      4210      4213      4216      4213      4216      4219      4220
      4213      4216      4219      4221      4213      4216      4219      4222
      4214      4213      4216      4217      4214      4213      4216      4218
      4214      4213      4216      4219      4215      4213      4216      4217
      4215      4213      4216      4218      4215      4213      4216      4219
      4216      4219      4222      4223      4216      4219      4222      4224
      4216      4219      4222      4225      4217      4216      4219      4220
      4217      4216      4219      4221      4217      4216      4219      4222
      4218      4216      4219      4220      4218      4216      4219      4221
      4218      4216      4219      4222      4219      4222      4225      4226
      4219      4222      4225      4227      4219      4222      4225      4228
      4220      4219      4222      4223      4220      4219      4222      4224
      4220      4219      4222      4225      4221      4219      4222      4223
      4221      4219      4222      4224      4221      4219      4222      4225
      4222      4225      4228      4229      4222      4225      4228      4230
      4222      4225      4228      4231      4223      4222      4225      4226
      4223      4222      4225      4227      4223      4222      4225      4228
      4224      4222      4225      4226      4224      4222      4225      4227
      4224      4222      4225      4228      4225      4228      4231      4232
      4225      4228      4231      4233      4225      4228      4231      4234
      4226      4225      4228      4229      4226      4225      4228      4230
      4226      4225      4228      4231      4227      4225      4228      4229
      4227      4225      4228      4230      4227      4225      4228      4231
      4228      4231      4234      4235      4228      4231      4234      4236
      4228      4231      4234      4237      4229      4228      4231      4232
      4229      4228      4231      4233      4229      4228      4231      4234
      4230      4228      4231      4232      4230      4228      4231      4233
      4230      4228      4231      4234      4231      4234      4237      4238
      4231      4234      4237      4239      4231      4234      4237      4240
      4232      4231      4234      4235      4232      4231      4234      4236
      4232      4231      4234      4237      4233      4231      4234      4235
      4233      4231      4234      4236      4233      4231      4234      4237
      4234      4237      4240      4241      4234      4237      4240      4242
      4234      4237      4240      4243      4235      4234      4237      4238
      4235      4234      4237      4239      4235      4234      4237      4240
      4236      4234      4237      4238      4236      4234      4237      4239
      4236      4234      4237      4240      4237      4240      4243      4244
      4237      4240      4243      4245      4237      4240      4243      4246
      4238      4237      4240      4241      4238      4237      4240      4242
      4238      4237      4240      4243      4239      4237      4240      4241
      4239      4237      4240      4242      4239      4237      4240      4243
      4241      4240      4243      4244      4241      4240      4243      4245
      4241      4240      4243      4246      4242      4240      4243      4244
      4242      4240      4243      4245      4242      4240      4243      4246
      4247      4248      4263      4264      4247      4248      4263      4265
      4247      4248      4263      4269      4248      4247      4251      4252
      4248      4247      4251      4253      4248      4247      4251      4254
      4248      4247      4255      4256      4248      4247      4255      4257
      4248      4247      4255      4258      4248      4247      4259      4260
      4248      4247      4259      4261      4248      4247      4259      4262
      4248      4263      4269      4266      4249      4248      4247      4251
      4249      4248      4247      4255      4249      4248      4247      4259
      4249      4248      4263      4264      4249      4248      4263      4265
      4249      4248      4263      4269      4250      4248      4247      4251
      4250      4248      4247      4255      4250      4248      4247      4259
      4250      4248      4263      4264      4250      4248      4263      4265
      4250      4248      4263      4269      4251      4247      4248      4263
      4251      4247      4255      4256      4251      4247      4255      4257
      4251      4247      4255      4258      4251      4247      4259      4260
      4251      4247      4259      4261      4251      4247      4259      4262
      4252      4251      4247      4255      4252      4251      4247      4259
      4253      4251      4247      4255      4253      4251      4247      4259
      4254      4251      4247      4255      4254      4251      4247      4259
      4255      4247      4248      4263      4255      4247      4259      4260
      4255      4247      4259      4261      4255      4247      4259      4262
      4256      4255      4247      4259      4257      4255      4247      4259
      4258      4255      4247      4259      4259      4247      4248      4263
      4263      4269      4266      4267      4263      4269      4266      4268
      4263      4269      4266      4270      4264      4263      4269      4266
      4265      4263      4269      4266      4266      4270      4271      4272
      4266      4270      4271      4273      4266      4270      4271      4274
      4267      4266      4270      4271      4268      4266      4270      4271
      4269      4266      4270      4271      4270      4271      4274      4275
      4270      4271      4274      4276      4270      4271      4274      4282
      4271      4274      4276      4277      4271      4274      4282      4283
      4271      4274      4282      4284      4271      4274      4282      4285
      4272      4271      4274      4275      4272      4271      4274      4276
      4272      4271      4274      4282      4273      4271      4274      4275
      4273      4271      4274      4276      4273      4271      4274      4282
      4274      4276      4277      4278      4274      4276      4277      4279
      4274      4282      4285      4286      4275      4274      4276      4277
      4275      4274      4282      4283      4275      4274      4282      4284
      4275      4274      4282      4285      4276      4274      4282      4283
      4276      4274      4282      4284      4276      4274      4282      4285
      4276      4277      4279      4280      4276      4277      4279      4281
      4276      4277      4279      4291      4277      4276      4274      4282
      4277      4279      4291      4292      4277      4279      4291      4293
      4277      4279      4291      4294      4278      4277      4279      4280
      4278      4277      4279      4281      4278      4277      4279      4291
      4279      4291      4294      4295      4279      4291      4294      4296
      4279      4291      4294      4297      4280      4279      4291      4292
      4280      4279      4291      4293      4280      4279      4291      4294
      4281      4279      4291      4292      4281      4279      4291      4293
      4281      4279      4291      4294      4282      4285      4286      4287
      4282      4285      4286      4288      4283      4282      4285      4286
      4284      4282      4285      4286      4285      4286      4288      4289
      4285      4286      4288      4290      4285      4286      4288      4338
      4286      4288      4338      4339      4286      4288      4338      4340
      4286      4288      4338      4341      4287      4286      4288      4289
      4287      4286      4288      4290      4287      4286      4288      4338
      4288      4338      4341      4342      4288      4338      4341      4343
      4288      4338      4341      4344      4289      4288      4338      4339
      4289      4288      4338      4340      4289      4288      4338      4341
      4290      4288      4338      4339      4290      4288      4338      4340
      4290      4288      4338      4341      4291      4294      4297      4298
      4291      4294      4297      4299      4291      4294      4297      4300
      4292      4291      4294      4295      4292      4291      4294      4296
      4292      4291      4294      4297      4293      4291      4294      4295
      4293      4291      4294      4296      4293      4291      4294      4297
      4294      4297      4300      4301      4294      4297      4300      4302
      4294      4297      4300      4303      4295      4294      4297      4298
      4295      4294      4297      4299      4295      4294      4297      4300
      4296      4294      4297      4298      4296      4294      4297      4299
      4296      4294      4297      4300      4297      4300      4303      4304
      4297      4300      4303      4305      4297      4300      4303      4306
      4298      4297      4300      4301      4298      4297      4300      4302
      4298      4297      4300      4303      4299      4297      4300      4301
      4299      4297      4300      4302      4299      4297      4300      4303
      4300      4303      4306      4307      4300      4303      4306      4308
      4300      4303      4306      4309      4301      4300      4303      4304
      4301      4300      4303      4305      4301      4300      4303      4306
      4302      4300      4303      4304      4302      4300      4303      4305
      4302      4300      4303      4306      4303      4306      4309      4310
      4303      4306      4309      4311      4304      4303      4306      4307
      4304      4303      4306      4308      4304      4303      4306      4309
      4305      4303      4306      4307      4305      4303      4306      4308
      4305      4303      4306      4309      4306      4309      4311      4312
      4306      4309      4311      4313      4307      4306      4309      4310
      4307      4306      4309      4311      4308      4306      4309      4310
      4308      4306      4309      4311      4309      4311      4313      4314
      4309      4311      4313      4315      4309      4311      4313      4316
      4310      4309      4311      4312      4310      4309      4311      4313
      4311      4313      4316      4317      4311      4313      4316      4318
      4311      4313      4316      4319      4312      4311      4313      4314
      4312      4311      4313      4315      4312      4311      4313      4316
      4313      4316      4319      4320      4313      4316      4319      4321
      4313      4316      4319      4322      4314      4313      4316      4317
      4314      4313      4316      4318      4314      4313      4316      4319
      4315      4313      4316      4317      4315      4313      4316      4318
      4315      4313      4316      4319      4316      4319      4322      4323
      4316      4319      4322      4324      4316      4319      4322      4325
      4317      4316      4319      4320      4317      4316      4319      4321
      4317      4316      4319      4322      4318      4316      4319      4320
      4318      4316      4319      4321      4318      4316      4319      4322
      4319      4322      4325      4326      4319      4322      4325      4327
      4319      4322      4325      4328      4320      4319      4322      4323
      4320      4319      4322      4324      4320      4319      4322      4325
      4321      4319      4322      4323      4321      4319      4322      4324
      4321      4319      4322      4325      4322      4325      4328      4329
      4322      4325      4328      4330      4322      4325      4328      4331
      4323      4322      4325      4326      4323      4322      4325      4327
      4323      4322      4325      4328      4324      4322      4325      4326
      4324      4322      4325      4327      4324      4322      4325      4328
      4325      4328      4331      4332      4325      4328      4331      4333
      4325      4328      4331      4334      4326      4325      4328      4329
      4326      4325      4328      4330      4326      4325      4328      4331
      4327      4325      4328      4329      4327      4325      4328      4330
      4327      4325      4328      4331      4328      4331      4334      4335
      4328      4331      4334      4336      4328      4331      4334      4337
      4329      4328      4331      4332      4329      4328      4331      4333
      4329      4328      4331      4334      4330      4328      4331      4332
      4330      4328      4331      4333      4330      4328      4331      4334
      4332      4331      4334      4335      4332      4331      4334      4336
      4332      4331      4334      4337      4333      4331      4334      4335
      4333      4331      4334      4336      4333      4331      4334      4337
      4338      4341      4344      4345      4338      4341      4344      4346
      4338      4341      4344      4347      4339      4338      4341      4342
      4339      4338      4341      4343      4339      4338      4341      4344
      4340      4338      4341      4342      4340      4338      4341      4343
      4340      4338      4341      4344      4341      4344      4347      4348
      4341      4344      4347      4349      4341      4344      4347      4350
      4342      4341      4344      4345      4342      4341      4344      4346
      4342      4341      4344      4347      4343      4341      4344      4345
      4343      4341      4344      4346      4343      4341      4344      4347
      4344      4347      4350      4351      4344      4347      4350      4352
      4344      4347      4350      4353      4345      4344      4347      4348
      4345      4344      4347      4349      4345      4344      4347      4350
      4346      4344      4347      4348      4346      4344      4347      4349
      4346      4344      4347      4350      4347      4350      4353      4354
      4347      4350      4353      4355      4347      4350      4353      4356
      4348      4347      4350      4351      4348      4347      4350      4352
      4348      4347      4350      4353      4349      4347      4350      4351
      4349      4347      4350      4352      4349      4347      4350      4353
      4350      4353      4356      4357      4350      4353      4356      4358
      4350      4353      4356      4359      4351      4350      4353      4354
      4351      4350      4353      4355      4351      4350      4353      4356
      4352      4350      4353      4354      4352      4350      4353      4355
      4352      4350      4353      4356      4353      4356      4359      4360
      4353      4356      4359      4361      4353      4356      4359      4362
      4354      4353      4356      4357      4354      4353      4356      4358
      4354      4353      4356      4359      4355      4353      4356      4357
      4355      4353      4356      4358      4355      4353      4356      4359
      4356      4359      4362      4363      4356      4359      4362      4364
      4356      4359      4362      4365      4357      4356      4359      4360
      4357      4356      4359      4361      4357      4356      4359      4362
      4358      4356      4359      4360      4358      4356      4359      4361
      4358      4356      4359      4362      4359      4362      4365      4366
      4359      4362      4365      4367      4359      4362      4365      4368
      4360      4359      4362      4363      4360      4359      4362      4364
      4360      4359      4362      4365      4361      4359      4362      4363
      4361      4359      4362      4364      4361      4359      4362      4365
      4362      4365      4368      4369      4362      4365      4368      4370
      4362      4365      4368      4371      4363      4362      4365      4366
      4363      4362      4365      4367      4363      4362      4365      4368
      4364      4362      4365      4366      4364      4362      4365      4367
      4364      4362      4365      4368      4365      4368      4371      4372
      4365      4368      4371      4373      4365      4368      4371      4374
      4366      4365      4368      4369      4366      4365      4368      4370
      4366      4365      4368      4371      4367      4365      4368      4369
      4367      4365      4368      4370      4367      4365      4368      4371
      4368      4371      4374      4375      4368      4371      4374      4376
      4368      4371      4374      4377      4369      4368      4371      4372
      4369      4368      4371      4373      4369      4368      4371      4374
      4370      4368      4371      4372      4370      4368      4371      4373
      4370      4368      4371      4374      4371      4374      4377      4378
      4371      4374      4377      4379      4371      4374      4377      4380
      4372      4371      4374      4375      4372      4371      4374      4376
      4372      4371      4374      4377      4373      4371      4374      4375
      4373      4371      4374      4376      4373      4371      4374      4377
      4375      4374      4377      4378      4375      4374      4377      4379
      4375      4374      4377      4380      4376      4374      4377      4378
      4376      4374      4377      4379      4376      4374      4377      4380
      4381      4385      4387      4388      4381      4385      4387      4389
      4381      4385      4390      4391      4381      4385      4390      4392
      4381      4385      4390      4396      4382      4381      4385      4386
      4382      4381      4385      4387      4382      4381      4385      4390
      4383      4381      4385      4386      4383      4381      4385      4387
      4383      4381      4385      4390      4384      4381      4385      4386
      4384      4381      4385      4387      4384      4381      4385      4390
      4385      4390      4396      4393      4386      4385      4387      4388
      4386      4385      4387      4389      4386      4385      4390      4391
      4386      4385      4390      4392      4386      4385      4390      4396
      4387      4385      4390      4391      4387      4385      4390      4392
      4387      4385      4390      4396      4388      4387      4385      4390
      4389      4387      4385      4390      4390      4396      4393      4394
      4390      4396      4393      4395      4390      4396      4393      4397
      4391      4390      4396      4393      4392      4390      4396      4393
      4393      4397      4398      4399      4393      4397      4398      4400
      4393      4397      4398      4401      4394      4393      4397      4398
      4395      4393      4397      4398      4396      4393      4397      4398
      4397      4398      4401      4402      4397      4398      4401      4403
      4397      4398      4401      4409      4398      4401      4403      4404
      4398      4401      4409      4410      4398      4401      4409      4411
      4398      4401      4409      4412      4399      4398      4401      4402
      4399      4398      4401      4403      4399      4398      4401      4409
      4400      4398      4401      4402      4400      4398      4401      4403
      4400      4398      4401      4409      4401      4403      4404      4405
      4401      4403      4404      4406      4401      4409      4412      4413
      4402      4401      4403      4404      4402      4401      4409      4410
      4402      4401      4409      4411      4402      4401      4409      4412
      4403      4401      4409      4410      4403      4401      4409      4411
      4403      4401      4409      4412      4403      4404      4406      4407
      4403      4404      4406      4408      4403      4404      4406      4418
      4404      4403      4401      4409      4404      4406      4418      4419
      4404      4406      4418      4420      4404      4406      4418      4421
      4405      4404      4406      4407      4405      4404      4406      4408
      4405      4404      4406      4418      4406      4418      4421      4422
      4406      4418      4421      4423      4406      4418      4421      4424
      4407      4406      4418      4419      4407      4406      4418      4420
      4407      4406      4418      4421      4408      4406      4418      4419
      4408      4406      4418      4420      4408      4406      4418      4421
      4409      4412      4413      4414      4409      4412      4413      4415
      4410      4409      4412      4413      4411      4409      4412      4413
      4412      4413      4415      4416      4412      4413      4415      4417
      4412      4413      4415      4465      4413      4415      4465      4466
      4413      4415      4465      4467      4413      4415      4465      4468
      4414      4413      4415      4416      4414      4413      4415      4417
      4414      4413      4415      4465      4415      4465      4468      4469
      4415      4465      4468      4470      4415      4465      4468      4471
      4416      4415      4465      4466      4416      4415      4465      4467
      4416      4415      4465      4468      4417      4415      4465      4466
      4417      4415      4465      4467      4417      4415      4465      4468
      4418      4421      4424      4425      4418      4421      4424      4426
      4418      4421      4424      4427      4419      4418      4421      4422
      4419      4418      4421      4423      4419      4418      4421      4424
      4420      4418      4421      4422      4420      4418      4421      4423
      4420      4418      4421      4424      4421      4424      4427      4428
      4421      4424      4427      4429      4421      4424      4427      4430
      4422      4421      4424      4425      4422      4421      4424      4426
      4422      4421      4424      4427      4423      4421      4424      4425
      4423      4421      4424      4426      4423      4421      4424      4427
      4424      4427      4430      4431      4424      4427      4430      4432
      4424      4427      4430      4433      4425      4424      4427      4428
      4425      4424      4427      4429      4425      4424      4427      4430
      4426      4424      4427      4428      4426      4424      4427      4429
      4426      4424      4427      4430      4427      4430      4433      4434
      4427      4430      4433      4435      4427      4430      4433      4436
      4428      4427      4430      4431      4428      4427      4430      4432
      4428      4427      4430      4433      4429      4427      4430      4431
      4429      4427      4430      4432      4429      4427      4430      4433
      4430      4433      4436      4437      4430      4433      4436      4438
      4431      4430      4433      4434      4431      4430      4433      4435
      4431      4430      4433      4436      4432      4430      4433      4434
      4432      4430      4433      4435      4432      4430      4433      4436
      4433      4436      4438      4439      4433      4436      4438      4440
      4434      4433      4436      4437      4434      4433      4436      4438
      4435      4433      4436      4437      4435      4433      4436      4438
      4436      4438      4440      4441      4436      4438      4440      4442
      4436      4438      4440      4443      4437      4436      4438      4439
      4437      4436      4438      4440      4438      4440      4443      4444
      4438      4440      4443      4445      4438      4440      4443      4446
      4439      4438      4440      4441      4439      4438      4440      4442
      4439      4438      4440      4443      4440      4443      4446      4447
      4440      4443      4446      4448      4440      4443      4446      4449
      4441      4440      4443      4444      4441      4440      4443      4445
      4441      4440      4443      4446      4442      4440      4443      4444
      4442      4440      4443      4445      4442      4440      4443      4446
      4443      4446      4449      4450      4443      4446      4449      4451
      4443      4446      4449      4452      4444      4443      4446      4447
      4444      4443      4446      4448      4444      4443      4446      4449
      4445      4443      4446      4447      4445      4443      4446      4448
      4445      4443      4446      4449      4446      4449      4452      4453
      4446      4449      4452      4454      4446      4449      4452      4455
      4447      4446      4449      4450      4447      4446      4449      4451
      4447      4446      4449      4452      4448      4446      4449      4450
      4448      4446      4449      4451      4448      4446      4449      4452
      4449      4452      4455      4456      4449      4452      4455      4457
      4449      4452      4455      4458      4450      4449      4452      4453
      4450      4449      4452      4454      4450      4449      4452      4455
      4451      4449      4452      4453      4451      4449      4452      4454
      4451      4449      4452      4455      4452      4455      4458      4459
      4452      4455      4458      4460      4452      4455      4458      4461
      4453      4452      4455      4456      4453      4452      4455      4457
      4453      4452      4455      4458      4454      4452      4455      4456
      4454      4452      4455      4457      4454      4452      4455      4458
      4455      4458      4461      4462      4455      4458      4461      4463
      4455      4458      4461      4464      4456      4455      4458      4459
      4456      4455      4458      4460      4456      4455      4458      4461
      4457      4455      4458      4459      4457      4455      4458      4460
      4457      4455      4458      4461      4459      4458      4461      4462
      4459      4458      4461      4463      4459      4458      4461      4464
      4460      4458      4461      4462      4460      4458      4461      4463
      4460      4458      4461      4464      4465      4468      4471      4472
      4465      4468      4471      4473      4465      4468      4471      4474
      4466      4465      4468      4469      4466      4465      4468      4470
      4466      4465      4468      4471      4467      4465      4468      4469
      4467      4465      4468      4470      4467      4465      4468      4471
      4468      4471      4474      4475      4468      4471      4474      4476
      4468      4471      4474      4477      4469      4468      4471      4472
      4469      4468      4471      4473      4469      4468      4471      4474
      4470      4468      4471      4472      4470      4468      4471      4473
      4470      4468      4471      4474      4471      4474      4477      4478
      4471      4474      4477      4479      4471      4474      4477      4480
      4472      4471      4474      4475      4472      4471      4474      4476
      4472      4471      4474      4477      4473      4471      4474      4475
      4473      4471      4474      4476      4473      4471      4474      4477
      4474      4477      4480      4481      4474      4477      4480      4482
      4474      4477      4480      4483      4475      4474      4477      4478
      4475      4474      4477      4479      4475      4474      4477      4480
      4476      4474      4477      4478      4476      4474      4477      4479
      4476      4474      4477      4480      4477      4480      4483      4484
      4477      4480      4483      4485      4477      4480      4483      4486
      4478      4477      4480      4481      4478      4477      4480      4482
      4478      4477      4480      4483      4479      4477      4480      4481
      4479      4477      4480      4482      4479      4477      4480      4483
      4480      4483      4486      4487      4480      4483      4486      4488
      4480      4483      4486      4489      4481      4480      4483      4484
      4481      4480      4483      4485      4481      4480      4483      4486
      4482      4480      4483      4484      4482      4480      4483      4485
      4482      4480      4483      4486      4483      4486      4489      4490
      4483      4486      4489      4491      4483      4486      4489      4492
      4484      4483      4486      4487      4484      4483      4486      4488
      4484      4483      4486      4489      4485      4483      4486      4487
      4485      4483      4486      4488      4485      4483      4486      4489
      4486      4489      4492      4493      4486      4489      4492      4494
      4486      4489      4492      4495      4487      4486      4489      4490
      4487      4486      4489      4491      4487      4486      4489      4492
      4488      4486      4489      4490      4488      4486      4489      4491
      4488      4486      4489      4492      4489      4492      4495      4496
      4489      4492      4495      4497      4489      4492      4495      4498
      4490      4489      4492      4493      4490      4489      4492      4494
      4490      4489      4492      4495      4491      4489      4492      4493
      4491      4489      4492      4494      4491      4489      4492      4495
      4492      4495      4498      4499      4492      4495      4498      4500
      4492      4495      4498      4501      4493      4492      4495      4496
      4493      4492      4495      4497      4493      4492      4495      4498
      4494      4492      4495      4496      4494      4492      4495      4497
      4494      4492      4495      4498      4495      4498      4501      4502
      4495      4498      4501      4503      4495      4498      4501      4504
      4496      4495      4498      4499      4496      4495      4498      4500
      4496      4495      4498      4501      4497      4495      4498      4499
      4497      4495      4498      4500      4497      4495      4498      4501
      4498      4501      4504      4505      4498      4501      4504      4506
      4498      4501      4504      4507      4499      4498      4501      4502
      4499      4498      4501      4503      4499      4498      4501      4504
      4500      4498      4501      4502      4500      4498      4501      4503
      4500      4498      4501      4504      4502      4501      4504      4505
      4502      4501      4504      4506      4502      4501      4504      4507
      4503      4501      4504      4505      4503      4501      4504      4506
      4503      4501      4504      4507      4508      4512      4514      4515
      4508      4512      4514      4516      4508      4512      4517      4518
      4508      4512      4517      4519      4508      4512      4517      4523
      4509      4508      4512      4513      4509      4508      4512      4514
      4509      4508      4512      4517      4510      4508      4512      4513
      4510      4508      4512      4514      4510      4508      4512      4517
      4511      4508      4512      4513      4511      4508      4512      4514
      4511      4508      4512      4517      4512      4517      4523      4520
      4513      4512      4514      4515      4513      4512      4514      4516
      4513      4512      4517      4518      4513      4512      4517      4519
      4513      4512      4517      4523      4514      4512      4517      4518
      4514      4512      4517      4519      4514      4512      4517      4523
      4515      4514      4512      4517      4516      4514      4512      4517
      4517      4523      4520      4521      4517      4523      4520      4522
      4517      4523      4520      4524      4518      4517      4523      4520
      4519      4517      4523      4520      4520      4524      4525      4526
      4520      4524      4525      4527      4520      4524      4525      4528
      4521      4520      4524      4525      4522      4520      4524      4525
      4523      4520      4524      4525      4524      4525      4528      4529
      4524      4525      4528      4530      4524      4525      4528      4536
      4525      4528      4530      4531      4525      4528      4536      4537
      4525      4528      4536      4538      4525      4528      4536      4539
      4526      4525      4528      4529      4526      4525      4528      4530
      4526      4525      4528      4536      4527      4525      4528      4529
      4527      4525      4528      4530      4527      4525      4528      4536
      4528      4530      4531      4532      4528      4530      4531      4533
      4528      4536      4539      4540      4529      4528      4530      4531
      4529      4528      4536      4537      4529      4528      4536      4538
      4529      4528      4536      4539      4530      4528      4536      4537
      4530      4528      4536      4538      4530      4528      4536      4539
      4530      4531      4533      4534      4530      4531      4533      4535
      4530      4531      4533      4545      4531      4530      4528      4536
      4531      4533      4545      4546      4531      4533      4545      4547
      4531      4533      4545      4548      4532      4531      4533      4534
      4532      4531      4533      4535      4532      4531      4533      4545
      4533      4545      4548      4549      4533      4545      4548      4550
      4533      4545      4548      4551      4534      4533      4545      4546
      4534      4533      4545      4547      4534      4533      4545      4548
      4535      4533      4545      4546      4535      4533      4545      4547
      4535      4533      4545      4548      4536      4539      4540      4541
      4536      4539      4540      4542      4537      4536      4539      4540
      4538      4536      4539      4540      4539      4540      4542      4543
      4539      4540      4542      4544      4539      4540      4542      4592
      4540      4542      4592      4593      4540      4542      4592      4594
      4540      4542      4592      4595      4541      4540      4542      4543
      4541      4540      4542      4544      4541      4540      4542      4592
      4542      4592      4595      4596      4542      4592      4595      4597
      4542      4592      4595      4598      4543      4542      4592      4593
      4543      4542      4592      4594      4543      4542      4592      4595
      4544      4542      4592      4593      4544      4542      4592      4594
      4544      4542      4592      4595      4545      4548      4551      4552
      4545      4548      4551      4553      4545      4548      4551      4554
      4546      4545      4548      4549      4546      4545      4548      4550
      4546      4545      4548      4551      4547      4545      4548      4549
      4547      4545      4548      4550      4547      4545      4548      4551
      4548      4551      4554      4555      4548      4551      4554      4556
      4548      4551      4554      4557      4549      4548      4551      4552
      4549      4548      4551      4553      4549      4548      4551      4554
      4550      4548      4551      4552      4550      4548      4551      4553
      4550      4548      4551      4554      4551      4554      4557      4558
      4551      4554      4557      4559      4551      4554      4557      4560
      4552      4551      4554      4555      4552      4551      4554      4556
      4552      4551      4554      4557      4553      4551      4554      4555
      4553      4551      4554      4556      4553      4551      4554      4557
      4554      4557      4560      4561      4554      4557      4560      4562
      4554      4557      4560      4563      4555      4554      4557      4558
      4555      4554      4557      4559      4555      4554      4557      4560
      4556      4554      4557      4558      4556      4554      4557      4559
      4556      4554      4557      4560      4557      4560      4563      4564
      4557      4560      4563      4565      4558      4557      4560      4561
      4558      4557      4560      4562      4558      4557      4560      4563
      4559      4557      4560      4561      4559      4557      4560      4562
      4559      4557      4560      4563      4560      4563      4565      4566
      4560      4563      4565      4567      4561      4560      4563      4564
      4561      4560      4563      4565      4562      4560      4563      4564
      4562      4560      4563      4565      4563      4565      4567      4568
      4563      4565      4567      4569      4563      4565      4567      4570
      4564      4563      4565      4566      4564      4563      4565      4567
      4565      4567      4570      4571      4565      4567      4570      4572
      4565      4567      4570      4573      4566      4565      4567      4568
      4566      4565      4567      4569      4566      4565      4567      4570
      4567      4570      4573      4574      4567      4570      4573      4575
      4567      4570      4573      4576      4568      4567      4570      4571
      4568      4567      4570      4572      4568      4567      4570      4573
      4569      4567      4570      4571      4569      4567      4570      4572
      4569      4567      4570      4573      4570      4573      4576      4577
      4570      4573      4576      4578      4570      4573      4576      4579
      4571      4570      4573      4574      4571      4570      4573      4575
      4571      4570      4573      4576      4572      4570      4573      4574
      4572      4570      4573      4575      4572      4570      4573      4576
      4573      4576      4579      4580      4573      4576      4579      4581
      4573      4576      4579      4582      4574      4573      4576      4577
      4574      4573      4576      4578      4574      4573      4576      4579
      4575      4573      4576      4577      4575      4573      4576      4578
      4575      4573      4576      4579      4576      4579      4582      4583
      4576      4579      4582      4584      4576      4579      4582      4585
      4577      4576      4579      4580      4577      4576      4579      4581
      4577      4576      4579      4582      4578      4576      4579      4580
      4578      4576      4579      4581      4578      4576      4579      4582
      4579      4582      4585      4586      4579      4582      4585      4587
      4579      4582      4585      4588      4580      4579      4582      4583
      4580      4579      4582      4584      4580      4579      4582      4585
      4581      4579      4582      4583      4581      4579      4582      4584
      4581      4579      4582      4585      4582      4585      4588      4589
      4582      4585      4588      4590      4582      4585      4588      4591
      4583      4582      4585      4586      4583      4582      4585      4587
      4583      4582      4585      4588      4584      4582      4585      4586
      4584      4582      4585      4587      4584      4582      4585      4588
      4586      4585      4588      4589      4586      4585      4588      4590
      4586      4585      4588      4591      4587      4585      4588      4589
      4587      4585      4588      4590      4587      4585      4588      4591
      4592      4595      4598      4599      4592      4595      4598      4600
      4592      4595      4598      4601      4593      4592      4595      4596
      4593      4592      4595      4597      4593      4592      4595      4598
      4594      4592      4595      4596      4594      4592      4595      4597
      4594      4592      4595      4598      4595      4598      4601      4602
      4595      4598      4601      4603      4595      4598      4601      4604
      4596      4595      4598      4599      4596      4595      4598      4600
      4596      4595      4598      4601      4597      4595      4598      4599
      4597      4595      4598      4600      4597      4595      4598      4601
      4598      4601      4604      4605      4598      4601      4604      4606
      4598      4601      4604      4607      4599      4598      4601      4602
      4599      4598      4601      4603      4599      4598      4601      4604
      4600      4598      4601      4602      4600      4598      4601      4603
      4600      4598      4601      4604      4601      4604      4607      4608
      4601      4604      4607      4609      4601      4604      4607      4610
      4602      4601      4604      4605      4602      4601      4604      4606
      4602      4601      4604      4607      4603      4601      4604      4605
      4603      4601      4604      4606      4603      4601      4604      4607
      4604      4607      4610      4611      4604      4607      4610      4612
      4604      4607      4610      4613      4605      4604      4607      4608
      4605      4604      4607      4609      4605      4604      4607      4610
      4606      4604      4607      4608      4606      4604      4607      4609
      4606      4604      4607      4610      4607      4610      4613      4614
      4607      4610      4613      4615      4607      4610      4613      4616
      4608      4607      4610      4611      4608      4607      4610      4612
      4608      4607      4610      4613      4609      4607      4610      4611
      4609      4607      4610      4612      4609      4607      4610      4613
      4610      4613      4616      4617      4610      4613      4616      4618
      4610      4613      4616      4619      4611      4610      4613      4614
      4611      4610      4613      4615      4611      4610      4613      4616
      4612      4610      4613      4614      4612      4610      4613      4615
      4612      4610      4613      4616      4613      4616      4619      4620
      4613      4616      4619      4621      4613      4616      4619      4622
      4614      4613      4616      4617      4614      4613      4616      4618
      4614      4613      4616      4619      4615      4613      4616      4617
      4615      4613      4616      4618      4615      4613      4616      4619
      4616      4619      4622      4623      4616      4619      4622      4624
      4616      4619      4622      4625      4617      4616      4619      4620
      4617      4616      4619      4621      4617      4616      4619      4622
      4618      4616      4619      4620      4618      4616      4619      4621
      4618      4616      4619      4622      4619      4622      4625      4626
      4619      4622      4625      4627      4619      4622      4625      4628
      4620      4619      4622      4623      4620      4619      4622      4624
      4620      4619      4622      4625      4621      4619      4622      4623
      4621      4619      4622      4624      4621      4619      4622      4625
      4622      4625      4628      4629      4622      4625      4628      4630
      4622      4625      4628      4631      4623      4622      4625      4626
      4623      4622      4625      4627      4623      4622      4625      4628
      4624      4622      4625      4626      4624      4622      4625      4627
      4624      4622      4625      4628      4625      4628      4631      4632
      4625      4628      4631      4633      4625      4628      4631      4634
      4626      4625      4628      4629      4626      4625      4628      4630
      4626      4625      4628      4631      4627      4625      4628      4629
      4627      4625      4628      4630      4627      4625      4628      4631
      4629      4628      4631      4632      4629      4628      4631      4633
      4629      4628      4631      4634      4630      4628      4631      4632
      4630      4628      4631      4633      4630      4628      4631      4634
      4635      4636      4651      4652      4635      4636      4651      4653
      4635      4636      4651      4657      4636      4635      4639      4640
      4636      4635      4639      4641      4636      4635      4639      4642
      4636      4635      4643      4644      4636      4635      4643      4645
      4636      4635      4643      4646      4636      4635      4647      4648
      4636      4635      4647      4649      4636      4635      4647      4650
      4636      4651      4657      4654      4637      4636      4635      4639
      4637      4636      4635      4643      4637      4636      4635      4647
      4637      4636      4651      4652      4637      4636      4651      4653
      4637      4636      4651      4657      4638      4636      4635      4639
      4638      4636      4635      4643      4638      4636      4635      4647
      4638      4636      4651      4652      4638      4636      4651      4653
      4638      4636      4651      4657      4639      4635      4636      4651
      4639      4635      4643      4644      4639      4635      4643      4645
      4639      4635      4643      4646      4639      4635      4647      4648
      4639      4635      4647      4649      4639      4635      4647      4650
      4640      4639      4635      4643      4640      4639      4635      4647
      4641      4639      4635      4643      4641      4639      4635      4647
      4642      4639      4635      4643      4642      4639      4635      4647
      4643      4635      4636      4651      4643      4635      4647      4648
      4643      4635      4647      4649      4643      4635      4647      4650
      4644      4643      4635      4647      4645      4643      4635      4647
      4646      4643      4635      4647      4647      4635      4636      4651
      4651      4657      4654      4655      4651      4657      4654      4656
      4651      4657      4654      4658      4652      4651      4657      4654
      4653      4651      4657      4654      4654      4658      4659      4660
      4654      4658      4659      4661      4654      4658      4659      4662
      4655      4654      4658      4659      4656      4654      4658      4659
      4657      4654      4658      4659      4658      4659      4662      4663
      4658      4659      4662      4664      4658      4659      4662      4670
      4659      4662      4664      4665      4659      4662      4670      4671
      4659      4662      4670      4672      4659      4662      4670      4673
      4660      4659      4662      4663      4660      4659      4662      4664
      4660      4659      4662      4670      4661      4659      4662      4663
      4661      4659      4662      4664      4661      4659      4662      4670
      4662      4664      4665      4666      4662      4664      4665      4667
      4662      4670      4673      4674      4663      4662      4664      4665
      4663      4662      4670      4671      4663      4662      4670      4672
      4663      4662      4670      4673      4664      4662      4670      4671
      4664      4662      4670      4672      4664      4662      4670      4673
      4664      4665      4667      4668      4664      4665      4667      4669
      4664      4665      4667      4679      4665      4664      4662      4670
      4665      4667      4679      4680      4665      4667      4679      4681
      4665      4667      4679      4682      4666      4665      4667      4668
      4666      4665      4667      4669      4666      4665      4667      4679
      4667      4679      4682      4683      4667      4679      4682      4684
      4667      4679      4682      4685      4668      4667      4679      4680
      4668      4667      4679      4681      4668      4667      4679      4682
      4669      4667      4679      4680      4669      4667      4679      4681
      4669      4667      4679      4682      4670      4673      4674      4675
      4670      4673      4674      4676      4671      4670      4673      4674
      4672      4670      4673      4674      4673      4674      4676      4677
      4673      4674      4676      4678      4673      4674      4676      4726
      4674      4676      4726      4727      4674      4676      4726      4728
      4674      4676      4726      4729      4675      4674      4676      4677
      4675      4674      4676      4678      4675      4674      4676      4726
      4676      4726      4729      4730      4676      4726      4729      4731
      4676      4726      4729      4732      4677      4676      4726      4727
      4677      4676      4726      4728      4677      4676      4726      4729
      4678      4676      4726      4727      4678      4676      4726      4728
      4678      4676      4726      4729      4679      4682      4685      4686
      4679      4682      4685      4687      4679      4682      4685      4688
      4680      4679      4682      4683      4680      4679      4682      4684
      4680      4679      4682      4685      4681      4679      4682      4683
      4681      4679      4682      4684      4681      4679      4682      4685
      4682      4685      4688      4689      4682      4685      4688      4690
      4682      4685      4688      4691      4683      4682      4685      4686
      4683      4682      4685      4687      4683      4682      4685      4688
      4684      4682      4685      4686      4684      4682      4685      4687
      4684      4682      4685      4688      4685      4688      4691      4692
      4685      4688      4691      4693      4685      4688      4691      4694
      4686      4685      4688      4689      4686      4685      4688      4690
      4686      4685      4688      4691      4687      4685      4688      4689
      4687      4685      4688      4690      4687      4685      4688      4691
      4688      4691      4694      4695      4688      4691      4694      4696
      4688      4691      4694      4697      4689      4688      4691      4692
      4689      4688      4691      4693      4689      4688      4691      4694
      4690      4688      4691      4692      4690      4688      4691      4693
      4690      4688      4691      4694      4691      4694      4697      4698
      4691      4694      4697      4699      4692      4691      4694      4695
      4692      4691      4694      4696      4692      4691      4694      4697
      4693      4691      4694      4695      4693      4691      4694      4696
      4693      4691      4694      4697      4694      4697      4699      4700
      4694      4697      4699      4701      4695      4694      4697      4698
      4695      4694      4697      4699      4696      4694      4697      4698
      4696      4694      4697      4699      4697      4699      4701      4702
      4697      4699      4701      4703      4697      4699      4701      4704
      4698      4697      4699      4700      4698      4697      4699      4701
      4699      4701      4704      4705      4699      4701      4704      4706
      4699      4701      4704      4707      4700      4699      4701      4702
      4700      4699      4701      4703      4700      4699      4701      4704
      4701      4704      4707      4708      4701      4704      4707      4709
      4701      4704      4707      4710      4702      4701      4704      4705
      4702      4701      4704      4706      4702      4701      4704      4707
      4703      4701      4704      4705      4703      4701      4704      4706
      4703      4701      4704      4707      4704      4707      4710      4711
      4704      4707      4710      4712      4704      4707      4710      4713
      4705      4704      4707      4708      4705      4704      4707      4709
      4705      4704      4707      4710      4706      4704      4707      4708
      4706      4704      4707      4709      4706      4704      4707      4710
      4707      4710      4713      4714      4707      4710      4713      4715
      4707      4710      4713      4716      4708      4707      4710      4711
      4708      4707      4710      4712      4708      4707      4710      4713
      4709      4707      4710      4711      4709      4707      4710      4712
      4709      4707      4710      4713      4710      4713      4716      4717
      4710      4713      4716      4718      4710      4713      4716      4719
      4711      4710      4713      4714      4711      4710      4713      4715
      4711      4710      4713      4716      4712      4710      4713      4714
      4712      4710      4713      4715      4712      4710      4713      4716
      4713      4716      4719      4720      4713      4716      4719      4721
      4713      4716      4719      4722      4714      4713      4716      4717
      4714      4713      4716      4718      4714      4713      4716      4719
      4715      4713      4716      4717      4715      4713      4716      4718
      4715      4713      4716      4719      4716      4719      4722      4723
      4716      4719      4722      4724      4716      4719      4722      4725
      4717      4716      4719      4720      4717      4716      4719      4721
      4717      4716      4719      4722      4718      4716      4719      4720
      4718      4716      4719      4721      4718      4716      4719      4722
      4720      4719      4722      4723      4720      4719      4722      4724
      4720      4719      4722      4725      4721      4719      4722      4723
      4721      4719      4722      4724      4721      4719      4722      4725
      4726      4729      4732      4733      4726      4729      4732      4734
      4726      4729      4732      4735      4727      4726      4729      4730
      4727      4726      4729      4731      4727      4726      4729      4732
      4728      4726      4729      4730      4728      4726      4729      4731
      4728      4726      4729      4732      4729      4732      4735      4736
      4729      4732      4735      4737      4729      4732      4735      4738
      4730      4729      4732      4733      4730      4729      4732      4734
      4730      4729      4732      4735      4731      4729      4732      4733
      4731      4729      4732      4734      4731      4729      4732      4735
      4732      4735      4738      4739      4732      4735      4738      4740
      4732      4735      4738      4741      4733      4732      4735      4736
      4733      4732      4735      4737      4733      4732      4735      4738
      4734      4732      4735      4736      4734      4732      4735      4737
      4734      4732      4735      4738      4735      4738      4741      4742
      4735      4738      4741      4743      4735      4738      4741      4744
      4736      4735      4738      4739      4736      4735      4738      4740
      4736      4735      4738      4741      4737      4735      4738      4739
      4737      4735      4738      4740      4737      4735      4738      4741
      4738      4741      4744      4745      4738      4741      4744      4746
      4738      4741      4744      4747      4739      4738      4741      4742
      4739      4738      4741      4743      4739      4738      4741      4744
      4740      4738      4741      4742      4740      4738      4741      4743
      4740      4738      4741      4744      4741      4744      4747      4748
      4741      4744      4747      4749      4741      4744      4747      4750
      4742      4741      4744      4745      4742      4741      4744      4746
      4742      4741      4744      4747      4743      4741      4744      4745
      4743      4741      4744      4746      4743      4741      4744      4747
      4744      4747      4750      4751      4744      4747      4750      4752
      4744      4747      4750      4753      4745      4744      4747      4748
      4745      4744      4747      4749      4745      4744      4747      4750
      4746      4744      4747      4748      4746      4744      4747      4749
      4746      4744      4747      4750      4747      4750      4753      4754
      4747      4750      4753      4755      4747      4750      4753      4756
      4748      4747      4750      4751      4748      4747      4750      4752
      4748      4747      4750      4753      4749      4747      4750      4751
      4749      4747      4750      4752      4749      4747      4750      4753
      4750      4753      4756      4757      4750      4753      4756      4758
      4750      4753      4756      4759      4751      4750      4753      4754
      4751      4750      4753      4755      4751      4750      4753      4756
      4752      4750      4753      4754      4752      4750      4753      4755
      4752      4750      4753      4756      4753      4756      4759      4760
      4753      4756      4759      4761      4753      4756      4759      4762
      4754      4753      4756      4757      4754      4753      4756      4758
      4754      4753      4756      4759      4755      4753      4756      4757
      4755      4753      4756      4758      4755      4753      4756      4759
      4756      4759      4762      4763      4756      4759      4762      4764
      4756      4759      4762      4765      4757      4756      4759      4760
      4757      4756      4759      4761      4757      4756      4759      4762
      4758      4756      4759      4760      4758      4756      4759      4761
      4758      4756      4759      4762      4759      4762      4765      4766
      4759      4762      4765      4767      4759      4762      4765      4768
      4760      4759      4762      4763      4760      4759      4762      4764
      4760      4759      4762      4765      4761      4759      4762      4763
      4761      4759      4762      4764      4761      4759      4762      4765
      4763      4762      4765      4766      4763      4762      4765      4767
      4763      4762      4765      4768      4764      4762      4765      4766
      4764      4762      4765      4767      4764      4762      4765      4768
      4769      4770      4785      4786      4769      4770      4785      4787
      4769      4770      4785      4791      4770      4769      4773      4774
      4770      4769      4773      4775      4770      4769      4773      4776
      4770      4769      4777      4778      4770      4769      4777      4779
      4770      4769      4777      4780      4770      4769      4781      4782
      4770      4769      4781      4783      4770      4769      4781      4784
      4770      4785      4791      4788      4771      4770      4769      4773
      4771      4770      4769      4777      4771      4770      4769      4781
      4771      4770      4785      4786      4771      4770      4785      4787
      4771      4770      4785      4791      4772      4770      4769      4773
      4772      4770      4769      4777      4772      4770      4769      4781
      4772      4770      4785      4786      4772      4770      4785      4787
      4772      4770      4785      4791      4773      4769      4770      4785
      4773      4769      4777      4778      4773      4769      4777      4779
      4773      4769      4777      4780      4773      4769      4781      4782
      4773      4769      4781      4783      4773      4769      4781      4784
      4774      4773      4769      4777      4774      4773      4769      4781
      4775      4773      4769      4777      4775      4773      4769      4781
      4776      4773      4769      4777      4776      4773      4769      4781
      4777      4769      4770      4785      4777      4769      4781      4782
      4777      4769      4781      4783      4777      4769      4781      4784
      4778      4777      4769      4781      4779      4777      4769      4781
      4780      4777      4769      4781      4781      4769      4770      4785
      4785      4791      4788      4789      4785      4791      4788      4790
      4785      4791      4788      4792      4786      4785      4791      4788
      4787      4785      4791      4788      4788      4792      4793      4794
      4788      4792      4793      4795      4788      4792      4793      4796
      4789      4788      4792      4793      4790      4788      4792      4793
      4791      4788      4792      4793      4792      4793      4796      4797
      4792      4793      4796      4798      4792      4793      4796      4804
      4793      4796      4798      4799      4793      4796      4804      4805
      4793      4796      4804      4806      4793      4796      4804      4807
      4794      4793      4796      4797      4794      4793      4796      4798
      4794      4793      4796      4804      4795      4793      4796      4797
      4795      4793      4796      4798      4795      4793      4796      4804
      4796      4798      4799      4800      4796      4798      4799      4801
      4796      4804      4807      4808      4797      4796      4798      4799
      4797      4796      4804      4805      4797      4796      4804      4806
      4797      4796      4804      4807      4798      4796      4804      4805
      4798      4796      4804      4806      4798      4796      4804      4807
      4798      4799      4801      4802      4798      4799      4801      4803
      4798      4799      4801      4813      4799      4798      4796      4804
      4799      4801      4813      4814      4799      4801      4813      4815
      4799      4801      4813      4816      4800      4799      4801      4802
      4800      4799      4801      4803      4800      4799      4801      4813
      4801      4813      4816      4817      4801      4813      4816      4818
      4801      4813      4816      4819      4802      4801      4813      4814
      4802      4801      4813      4815      4802      4801      4813      4816
      4803      4801      4813      4814      4803      4801      4813      4815
      4803      4801      4813      4816      4804      4807      4808      4809
      4804      4807      4808      4810      4805      4804      4807      4808
      4806      4804      4807      4808      4807      4808      4810      4811
      4807      4808      4810      4812      4807      4808      4810      4860
      4808      4810      4860      4861      4808      4810      4860      4862
      4808      4810      4860      4863      4809      4808      4810      4811
      4809      4808      4810      4812      4809      4808      4810      4860
      4810      4860      4863      4864      4810      4860      4863      4865
      4810      4860      4863      4866      4811      4810      4860      4861
      4811      4810      4860      4862      4811      4810      4860      4863
      4812      4810      4860      4861      4812      4810      4860      4862
      4812      4810      4860      4863      4813      4816      4819      4820
      4813      4816      4819      4821      4813      4816      4819      4822
      4814      4813      4816      4817      4814      4813      4816      4818
      4814      4813      4816      4819      4815      4813      4816      4817
      4815      4813      4816      4818      4815      4813      4816      4819
      4816      4819      4822      4823      4816      4819      4822      4824
      4816      4819      4822      4825      4817      4816      4819      4820
      4817      4816      4819      4821      4817      4816      4819      4822
      4818      4816      4819      4820      4818      4816      4819      4821
      4818      4816      4819      4822      4819      4822      4825      4826
      4819      4822      4825      4827      4819      4822      4825      4828
      4820      4819      4822      4823      4820      4819      4822      4824
      4820      4819      4822      4825      4821      4819      4822      4823
      4821      4819      4822      4824      4821      4819      4822      4825
      4822      4825      4828      4829      4822      4825      4828      4830
      4822      4825      4828      4831      4823      4822      4825      4826
      4823      4822      4825      4827      4823      4822      4825      4828
      4824      4822      4825      4826      4824      4822      4825      4827
      4824      4822      4825      4828      4825      4828      4831      4832
      4825      4828      4831      4833      4826      4825      4828      4829
      4826      4825      4828      4830      4826      4825      4828      4831
      4827      4825      4828      4829      4827      4825      4828      4830
      4827      4825      4828      4831      4828      4831      4833      4834
      4828      4831      4833      4835      4829      4828      4831      4832
      4829      4828      4831      4833      4830      4828      4831      4832
      4830      4828      4831      4833      4831      4833      4835      4836
      4831      4833      4835      4837      4831      4833      4835      4838
      4832      4831      4833      4834      4832      4831      4833      4835
      4833      4835      4838      4839      4833      4835      4838      4840
      4833      4835      4838      4841      4834      4833      4835      4836
      4834      4833      4835      4837      4834      4833      4835      4838
      4835      4838      4841      4842      4835      4838      4841      4843
      4835      4838      4841      4844      4836      4835      4838      4839
      4836      4835      4838      4840      4836      4835      4838      4841
      4837      4835      4838      4839      4837      4835      4838      4840
      4837      4835      4838      4841      4838      4841      4844      4845
      4838      4841      4844      4846      4838      4841      4844      4847
      4839      4838      4841      4842      4839      4838      4841      4843
      4839      4838      4841      4844      4840      4838      4841      4842
      4840      4838      4841      4843      4840      4838      4841      4844
      4841      4844      4847      4848      4841      4844      4847      4849
      4841      4844      4847      4850      4842      4841      4844      4845
      4842      4841      4844      4846      4842      4841      4844      4847
      4843      4841      4844      4845      4843      4841      4844      4846
      4843      4841      4844      4847      4844      4847      4850      4851
      4844      4847      4850      4852      4844      4847      4850      4853
      4845      4844      4847      4848      4845      4844      4847      4849
      4845      4844      4847      4850      4846      4844      4847      4848
      4846      4844      4847      4849      4846      4844      4847      4850
      4847      4850      4853      4854      4847      4850      4853      4855
      4847      4850      4853      4856      4848      4847      4850      4851
      4848      4847      4850      4852      4848      4847      4850      4853
      4849      4847      4850      4851      4849      4847      4850      4852
      4849      4847      4850      4853      4850      4853      4856      4857
      4850      4853      4856      4858      4850      4853      4856      4859
      4851      4850      4853      4854      4851      4850      4853      4855
      4851      4850      4853      4856      4852      4850      4853      4854
      4852      4850      4853      4855      4852      4850      4853      4856
      4854      4853      4856      4857      4854      4853      4856      4858
      4854      4853      4856      4859      4855      4853      4856      4857
      4855      4853      4856      4858      4855      4853      4856      4859
      4860      4863      4866      4867      4860      4863      4866      4868
      4860      4863      4866      4869      4861      4860      4863      4864
      4861      4860      4863      4865      4861      4860      4863      4866
      4862      4860      4863      4864      4862      4860      4863      4865
      4862      4860      4863      4866      4863      4866      4869      4870
      4863      4866      4869      4871      4863      4866      4869      4872
      4864      4863      4866      4867      4864      4863      4866      4868
      4864      4863      4866      4869      4865      4863      4866      4867
      4865      4863      4866      4868      4865      4863      4866      4869
      4866      4869      4872      4873      4866      4869      4872      4874
      4866      4869      4872      4875      4867      4866      4869      4870
      4867      4866      4869      4871      4867      4866      4869      4872
      4868      4866      4869      4870      4868      4866      4869      4871
      4868      4866      4869      4872      4869      4872      4875      4876
      4869      4872      4875      4877      4869      4872      4875      4878
      4870      4869      4872      4873      4870      4869      4872      4874
      4870      4869      4872      4875      4871      4869      4872      4873
      4871      4869      4872      4874      4871      4869      4872      4875
      4872      4875      4878      4879      4872      4875      4878      4880
      4872      4875      4878      4881      4873      4872      4875      4876
      4873      4872      4875      4877      4873      4872      4875      4878
      4874      4872      4875      4876      4874      4872      4875      4877
      4874      4872      4875      4878      4875      4878      4881      4882
      4875      4878      4881      4883      4875      4878      4881      4884
      4876      4875      4878      4879      4876      4875      4878      4880
      4876      4875      4878      4881      4877      4875      4878      4879
      4877      4875      4878      4880      4877      4875      4878      4881
      4878      4881      4884      4885      4878      4881      4884      4886
      4878      4881      4884      4887      4879      4878      4881      4882
      4879      4878      4881      4883      4879      4878      4881      4884
      4880      4878      4881      4882      4880      4878      4881      4883
      4880      4878      4881      4884      4881      4884      4887      4888
      4881      4884      4887      4889      4881      4884      4887      4890
      4882      4881      4884      4885      4882      4881      4884      4886
      4882      4881      4884      4887      4883      4881      4884      4885
      4883      4881      4884      4886      4883      4881      4884      4887
      4884      4887      4890      4891      4884      4887      4890      4892
      4884      4887      4890      4893      4885      4884      4887      4888
      4885      4884      4887      4889      4885      4884      4887      4890
      4886      4884      4887      4888      4886      4884      4887      4889
      4886      4884      4887      4890      4887      4890      4893      4894
      4887      4890      4893      4895      4887      4890      4893      4896
      4888      4887      4890      4891      4888      4887      4890      4892
      4888      4887      4890      4893      4889      4887      4890      4891
      4889      4887      4890      4892      4889      4887      4890      4893
      4890      4893      4896      4897      4890      4893      4896      4898
      4890      4893      4896      4899      4891      4890      4893      4894
      4891      4890      4893      4895      4891      4890      4893      4896
      4892      4890      4893      4894      4892      4890      4893      4895
      4892      4890      4893      4896      4893      4896      4899      4900
      4893      4896      4899      4901      4893      4896      4899      4902
      4894      4893      4896      4897      4894      4893      4896      4898
      4894      4893      4896      4899      4895      4893      4896      4897
      4895      4893      4896      4898      4895      4893      4896      4899
      4897      4896      4899      4900      4897      4896      4899      4901
      4897      4896      4899      4902      4898      4896      4899      4900
      4898      4896      4899      4901      4898      4896      4899      4902
      4903      4907      4909      4910      4903      4907      4909      4911
      4903      4907      4912      4913      4903      4907      4912      4914
      4903      4907      4912      4918      4904      4903      4907      4908
      4904      4903      4907      4909      4904      4903      4907      4912
      4905      4903      4907      4908      4905      4903      4907      4909
      4905      4903      4907      4912      4906      4903      4907      4908
      4906      4903      4907      4909      4906      4903      4907      4912
      4907      4912      4918      4915      4908      4907      4909      4910
      4908      4907      4909      4911      4908      4907      4912      4913
      4908      4907      4912      4914      4908      4907      4912      4918
      4909      4907      4912      4913      4909      4907      4912      4914
      4909      4907      4912      4918      4910      4909      4907      4912
      4911      4909      4907      4912      4912      4918      4915      4916
      4912      4918      4915      4917      4912      4918      4915      4919
      4913      4912      4918      4915      4914      4912      4918      4915
      4915      4919      4920      4921      4915      4919      4920      4922
      4915      4919      4920      4923      4916      4915      4919      4920
      4917      4915      4919      4920      4918      4915      4919      4920
      4919      4920      4923      4924      4919      4920      4923      4925
      4919      4920      4923      4931      4920      4923      4925      4926
      4920      4923      4931      4932      4920      4923      4931      4933
      4920      4923      4931      4934      4921      4920      4923      4924
      4921      4920      4923      4925      4921      4920      4923      4931
      4922      4920      4923      4924      4922      4920      4923      4925
      4922      4920      4923      4931      4923      4925      4926      4927
      4923      4925      4926      4928      4923      4931      4934      4935
      4924      4923      4925      4926      4924      4923      4931      4932
      4924      4923      4931      4933      4924      4923      4931      4934
      4925      4923      4931      4932      4925      4923      4931      4933
      4925      4923      4931      4934      4925      4926      4928      4929
      4925      4926      4928      4930      4925      4926      4928      4940
      4926      4925      4923      4931      4926      4928      4940      4941
      4926      4928      4940      4942      4926      4928      4940      4943
      4927      4926      4928      4929      4927      4926      4928      4930
      4927      4926      4928      4940      4928      4940      4943      4944
      4928      4940      4943      4945      4928      4940      4943      4946
      4929      4928      4940      4941      4929      4928      4940      4942
      4929      4928      4940      4943      4930      4928      4940      4941
      4930      4928      4940      4942      4930      4928      4940      4943
      4931      4934      4935      4936      4931      4934      4935      4937
      4932      4931      4934      4935      4933      4931      4934      4935
      4934      4935      4937      4938      4934      4935      4937      4939
      4934      4935      4937      4987      4935      4937      4987      4988
      4935      4937      4987      4989      4935      4937      4987      4990
      4936      4935      4937      4938      4936      4935      4937      4939
      4936      4935      4937      4987      4937      4987      4990      4991
      4937      4987      4990      4992      4937      4987      4990      4993
      4938      4937      4987      4988      4938      4937      4987      4989
      4938      4937      4987      4990      4939      4937      4987      4988
      4939      4937      4987      4989      4939      4937      4987      4990
      4940      4943      4946      4947      4940      4943      4946      4948
      4940      4943      4946      4949      4941      4940      4943      4944
      4941      4940      4943      4945      4941      4940      4943      4946
      4942      4940      4943      4944      4942      4940      4943      4945
      4942      4940      4943      4946      4943      4946      4949      4950
      4943      4946      4949      4951      4943      4946      4949      4952
      4944      4943      4946      4947      4944      4943      4946      4948
      4944      4943      4946      4949      4945      4943      4946      4947
      4945      4943      4946      4948      4945      4943      4946      4949
      4946      4949      4952      4953      4946      4949      4952      4954
      4946      4949      4952      4955      4947      4946      4949      4950
      4947      4946      4949      4951      4947      4946      4949      4952
      4948      4946      4949      4950      4948      4946      4949      4951
      4948      4946      4949      4952      4949      4952      4955      4956
      4949      4952      4955      4957      4949      4952      4955      4958
      4950      4949      4952      4953      4950      4949      4952      4954
      4950      4949      4952      4955      4951      4949      4952      4953
      4951      4949      4952      4954      4951      4949      4952      4955
      4952      4955      4958      4959      4952      4955      4958      4960
      4953      4952      4955      4956      4953      4952      4955      4957
      4953      4952      4955      4958      4954      4952      4955      4956
      4954      4952      4955      4957      4954      4952      4955      4958
      4955      4958      4960      4961      4955      4958      4960      4962
      4956      4955      4958      4959      4956      4955      4958      4960
      4957      4955      4958      4959      4957      4955      4958      4960
      4958      4960      4962      4963      4958      4960      4962      4964
      4958      4960      4962      4965      4959      4958      4960      4961
      4959      4958      4960      4962      4960      4962      4965      4966
      4960      4962      4965      4967      4960      4962      4965      4968
      4961      4960      4962      4963      4961      4960      4962      4964
      4961      4960      4962      4965      4962      4965      4968      4969
      4962      4965      4968      4970      4962      4965      4968      4971
      4963      4962      4965      4966      4963      4962      4965      4967
      4963      4962      4965      4968      4964      4962      4965      4966
      4964      4962      4965      4967      4964      4962      4965      4968
      4965      4968      4971      4972      4965      4968      4971      4973
      4965      4968      4971      4974      4966      4965      4968      4969
      4966      4965      4968      4970      4966      4965      4968      4971
      4967      4965      4968      4969      4967      4965      4968      4970
      4967      4965      4968      4971      4968      4971      4974      4975
      4968      4971      4974      4976      4968      4971      4974      4977
      4969      4968      4971      4972      4969      4968      4971      4973
      4969      4968      4971      4974      4970      4968      4971      4972
      4970      4968      4971      4973      4970      4968      4971      4974
      4971      4974      4977      4978      4971      4974      4977      4979
      4971      4974      4977      4980      4972      4971      4974      4975
      4972      4971      4974      4976      4972      4971      4974      4977
      4973      4971      4974      4975      4973      4971      4974      4976
      4973      4971      4974      4977      4974      4977      4980      4981
      4974      4977      4980      4982      4974      4977      4980      4983
      4975      4974      4977      4978      4975      4974      4977      4979
      4975      4974      4977      4980      4976      4974      4977      4978
      4976      4974      4977      4979      4976      4974      4977      4980
      4977      4980      4983      4984      4977      4980      4983      4985
      4977      4980      4983      4986      4978      4977      4980      4981
      4978      4977      4980      4982      4978      4977      4980      4983
      4979      4977      4980      4981      4979      4977      4980      4982
      4979      4977      4980      4983      4981      4980      4983      4984
      4981      4980      4983      4985      4981      4980      4983      4986
      4982      4980      4983      4984      4982      4980      4983      4985
      4982      4980      4983      4986      4987      4990      4993      4994
      4987      4990      4993      4995      4987      4990      4993      4996
      4988      4987      4990      4991      4988      4987      4990      4992
      4988      4987      4990      4993      4989      4987      4990      4991
      4989      4987      4990      4992      4989      4987      4990      4993
      4990      4993      4996      4997      4990      4993      4996      4998
      4990      4993      4996      4999      4991      4990      4993      4994
      4991      4990      4993      4995      4991      4990      4993      4996
      4992      4990      4993      4994      4992      4990      4993      4995
      4992      4990      4993      4996      4993      4996      4999      5000
      4993      4996      4999      5001      4993      4996      4999      5002
      4994      4993      4996      4997      4994      4993      4996      4998
      4994      4993      4996      4999      4995      4993      4996      4997
      4995      4993      4996      4998      4995      4993      4996      4999
      4996      4999      5002      5003      4996      4999      5002      5004
      4996      4999      5002      5005      4997      4996      4999      5000
      4997      4996      4999      5001      4997      4996      4999      5002
      4998      4996      4999      5000      4998      4996      4999      5001
      4998      4996      4999      5002      4999      5002      5005      5006
      4999      5002      5005      5007      4999      5002      5005      5008
      5000      4999      5002      5003      5000      4999      5002      5004
      5000      4999      5002      5005      5001      4999      5002      5003
      5001      4999      5002      5004      5001      4999      5002      5005
      5002      5005      5008      5009      5002      5005      5008      5010
      5002      5005      5008      5011      5003      5002      5005      5006
      5003      5002      5005      5007      5003      5002      5005      5008
      5004      5002      5005      5006      5004      5002      5005      5007
      5004      5002      5005      5008      5005      5008      5011      5012
      5005      5008      5011      5013      5005      5008      5011      5014
      5006      5005      5008      5009      5006      5005      5008      5010
      5006      5005      5008      5011      5007      5005      5008      5009
      5007      5005      5008      5010      5007      5005      5008      5011
      5008      5011      5014      5015      5008      5011      5014      5016
      5008      5011      5014      5017      5009      5008      5011      5012
      5009      5008      5011      5013      5009      5008      5011      5014
      5010      5008      5011      5012      5010      5008      5011      5013
      5010      5008      5011      5014      5011      5014      5017      5018
      5011      5014      5017      5019      5011      5014      5017      5020
      5012      5011      5014      5015      5012      5011      5014      5016
      5012      5011      5014      5017      5013      5011      5014      5015
      5013      5011      5014      5016      5013      5011      5014      5017
      5014      5017      5020      5021      5014      5017      5020      5022
      5014      5017      5020      5023      5015      5014      5017      5018
      5015      5014      5017      5019      5015      5014      5017      5020
      5016      5014      5017      5018      5016      5014      5017      5019
      5016      5014      5017      5020      5017      5020      5023      5024
      5017      5020      5023      5025      5017      5020      5023      5026
      5018      5017      5020      5021      5018      5017      5020      5022
      5018      5017      5020      5023      5019      5017      5020      5021
      5019      5017      5020      5022      5019      5017      5020      5023
      5020      5023      5026      5027      5020      5023      5026      5028
      5020      5023      5026      5029      5021      5020      5023      5024
      5021      5020      5023      5025      5021      5020      5023      5026
      5022      5020      5023      5024      5022      5020      5023      5025
      5022      5020      5023      5026      5024      5023      5026      5027
      5024      5023      5026      5028      5024      5023      5026      5029
      5025      5023      5026      5027      5025      5023      5026      5028
      5025      5023      5026      5029      5030      5031      5046      5047
      5030      5031      5046      5048      5030      5031      5046      5052
      5031      5030      5034      5035      5031      5030      5034      5036
      5031      5030      5034      5037      5031      5030      5038      5039
      5031      5030      5038      5040      5031      5030      5038      5041
      5031      5030      5042      5043      5031      5030      5042      5044
      5031      5030      5042      5045      5031      5046      5052      5049
      5032      5031      5030      5034      5032      5031      5030      5038
      5032      5031      5030      5042      5032      5031      5046      5047
      5032      5031      5046      5048      5032      5031      5046      5052
      5033      5031      5030      5034      5033      5031      5030      5038
      5033      5031      5030      5042      5033      5031      5046      5047
      5033      5031      5046      5048      5033      5031      5046      5052
      5034      5030      5031      5046      5034      5030      5038      5039
      5034      5030      5038      5040      5034      5030      5038      5041
      5034      5030      5042      5043      5034      5030      5042      5044
      5034      5030      5042      5045      5035      5034      5030      5038
      5035      5034      5030      5042      5036      5034      5030      5038
      5036      5034      5030      5042      5037      5034      5030      5038
      5037      5034      5030      5042      5038      5030      5031      5046
      5038      5030      5042      5043      5038      5030      5042      5044
      5038      5030      5042      5045      5039      5038      5030      5042
      5040      5038      5030      5042      5041      5038      5030      5042
      5042      5030      5031      5046      5046      5052      5049      5050
      5046      5052      5049      5051      5046      5052      5049      5053
      5047      5046      5052      5049      5048      5046      5052      5049
      5049      5053      5054      5055      5049      5053      5054      5056
      5049      5053      5054      5057      5050      5049      5053      5054
      5051      5049      5053      5054      5052      5049      5053      5054
      5053      5054      5057      5058      5053      5054      5057      5059
      5053      5054      5057      5065      5054      5057      5059      5060
      5054      5057      5065      5066      5054      5057      5065      5067
      5054      5057      5065      5068      5055      5054      5057      5058
      5055      5054      5057      5059      5055      5054      5057      5065
      5056      5054      5057      5058      5056      5054      5057      5059
      5056      5054      5057      5065      5057      5059      5060      5061
      5057      5059      5060      5062      5057      5065      5068      5069
      5058      5057      5059      5060      5058      5057      5065      5066
      5058      5057      5065      5067      5058      5057      5065      5068
      5059      5057      5065      5066      5059      5057      5065      5067
      5059      5057      5065      5068      5059      5060      5062      5063
      5059      5060      5062      5064      5059      5060      5062      5074
      5060      5059      5057      5065      5060      5062      5074      5075
      5060      5062      5074      5076      5060      5062      5074      5077
      5061      5060      5062      5063      5061      5060      5062      5064
      5061      5060      5062      5074      5062      5074      5077      5078
      5062      5074      5077      5079      5062      5074      5077      5080
      5063      5062      5074      5075      5063      5062      5074      5076
      5063      5062      5074      5077      5064      5062      5074      5075
      5064      5062      5074      5076      5064      5062      5074      5077
      5065      5068      5069      5070      5065      5068      5069      5071
      5066      5065      5068      5069      5067      5065      5068      5069
      5068      5069      5071      5072      5068      5069      5071      5073
      5068      5069      5071      5121      5069      5071      5121      5122
      5069      5071      5121      5123      5069      5071      5121      5124
      5070      5069      5071      5072      5070      5069      5071      5073
      5070      5069      5071      5121      5071      5121      5124      5125
      5071      5121      5124      5126      5071      5121      5124      5127
      5072      5071      5121      5122      5072      5071      5121      5123
      5072      5071      5121      5124      5073      5071      5121      5122
      5073      5071      5121      5123      5073      5071      5121      5124
      5074      5077      5080      5081      5074      5077      5080      5082
      5074      5077      5080      5083      5075      5074      5077      5078
      5075      5074      5077      5079      5075      5074      5077      5080
      5076      5074      5077      5078      5076      5074      5077      5079
      5076      5074      5077      5080      5077      5080      5083      5084
      5077      5080      5083      5085      5077      5080      5083      5086
      5078      5077      5080      5081      5078      5077      5080      5082
      5078      5077      5080      5083      5079      5077      5080      5081
      5079      5077      5080      5082      5079      5077      5080      5083
      5080      5083      5086      5087      5080      5083      5086      5088
      5080      5083      5086      5089      5081      5080      5083      5084
      5081      5080      5083      5085      5081      5080      5083      5086
      5082      5080      5083      5084      5082      5080      5083      5085
      5082      5080      5083      5086      5083      5086      5089      5090
      5083      5086      5089      5091      5083      5086      5089      5092
      5084      5083      5086      5087      5084      5083      5086      5088
      5084      5083      5086      5089      5085      5083      5086      5087
      5085      5083      5086      5088      5085      5083      5086      5089
      5086      5089      5092      5093      5086      5089      5092      5094
      5087      5086      5089      5090      5087      5086      5089      5091
      5087      5086      5089      5092      5088      5086      5089      5090
      5088      5086      5089      5091      5088      5086      5089      5092
      5089      5092      5094      5095      5089      5092      5094      5096
      5090      5089      5092      5093      5090      5089      5092      5094
      5091      5089      5092      5093      5091      5089      5092      5094
      5092      5094      5096      5097      5092      5094      5096      5098
      5092      5094      5096      5099      5093      5092      5094      5095
      5093      5092      5094      5096      5094      5096      5099      5100
      5094      5096      5099      5101      5094      5096      5099      5102
      5095      5094      5096      5097      5095      5094      5096      5098
      5095      5094      5096      5099      5096      5099      5102      5103
      5096      5099      5102      5104      5096      5099      5102      5105
      5097      5096      5099      5100      5097      5096      5099      5101
      5097      5096      5099      5102      5098      5096      5099      5100
      5098      5096      5099      5101      5098      5096      5099      5102
      5099      5102      5105      5106      5099      5102      5105      5107
      5099      5102      5105      5108      5100      5099      5102      5103
      5100      5099      5102      5104      5100      5099      5102      5105
      5101      5099      5102      5103      5101      5099      5102      5104
      5101      5099      5102      5105      5102      5105      5108      5109
      5102      5105      5108      5110      5102      5105      5108      5111
      5103      5102      5105      5106      5103      5102      5105      5107
      5103      5102      5105      5108      5104      5102      5105      5106
      5104      5102      5105      5107      5104      5102      5105      5108
      5105      5108      5111      5112      5105      5108      5111      5113
      5105      5108      5111      5114      5106      5105      5108      5109
      5106      5105      5108      5110      5106      5105      5108      5111
      5107      5105      5108      5109      5107      5105      5108      5110
      5107      5105      5108      5111      5108      5111      5114      5115
      5108      5111      5114      5116      5108      5111      5114      5117
      5109      5108      5111      5112      5109      5108      5111      5113
      5109      5108      5111      5114      5110      5108      5111      5112
      5110      5108      5111      5113      5110      5108      5111      5114
      5111      5114      5117      5118      5111      5114      5117      5119
      5111      5114      5117      5120      5112      5111      5114      5115
      5112      5111      5114      5116      5112      5111      5114      5117
      5113      5111      5114      5115      5113      5111      5114      5116
      5113      5111      5114      5117      5115      5114      5117      5118
      5115      5114      5117      5119      5115      5114      5117      5120
      5116      5114      5117      5118      5116      5114      5117      5119
      5116      5114      5117      5120      5121      5124      5127      5128
      5121      5124      5127      5129      5121      5124      5127      5130
      5122      5121      5124      5125      5122      5121      5124      5126
      5122      5121      5124      5127      5123      5121      5124      5125
      5123      5121      5124      5126      5123      5121      5124      5127
      5124      5127      5130      5131      5124      5127      5130      5132
      5124      5127      5130      5133      5125      5124      5127      5128
      5125      5124      5127      5129      5125      5124      5127      5130
      5126      5124      5127      5128      5126      5124      5127      5129
      5126      5124      5127      5130      5127      5130      5133      5134
      5127      5130      5133      5135      5127      5130      5133      5136
      5128      5127      5130      5131      5128      5127      5130      5132
      5128      5127      5130      5133      5129      5127      5130      5131
      5129      5127      5130      5132      5129      5127      5130      5133
      5130      5133      5136      5137      5130      5133      5136      5138
      5130      5133      5136      5139      5131      5130      5133      5134
      5131      5130      5133      5135      5131      5130      5133      5136
      5132      5130      5133      5134      5132      5130      5133      5135
      5132      5130      5133      5136      5133      5136      5139      5140
      5133      5136      5139      5141      5133      5136      5139      5142
      5134      5133      5136      5137      5134      5133      5136      5138
      5134      5133      5136      5139      5135      5133      5136      5137
      5135      5133      5136      5138      5135      5133      5136      5139
      5136      5139      5142      5143      5136      5139      5142      5144
      5136      5139      5142      5145      5137      5136      5139      5140
      5137      5136      5139      5141      5137      5136      5139      5142
      5138      5136      5139      5140      5138      5136      5139      5141
      5138      5136      5139      5142      5139      5142      5145      5146
      5139      5142      5145      5147      5139      5142      5145      5148
      5140      5139      5142      5143      5140      5139      5142      5144
      5140      5139      5142      5145      5141      5139      5142      5143
      5141      5139      5142      5144      5141      5139      5142      5145
      5142      5145      5148      5149      5142      5145      5148      5150
      5142      5145      5148      5151      5143      5142      5145      5146
      5143      5142      5145      5147      5143      5142      5145      5148
      5144      5142      5145      5146      5144      5142      5145      5147
      5144      5142      5145      5148      5145      5148      5151      5152
      5145      5148      5151      5153      5145      5148      5151      5154
      5146      5145      5148      5149      5146      5145      5148      5150
      5146      5145      5148      5151      5147      5145      5148      5149
      5147      5145      5148      5150      5147      5145      5148      5151
      5148      5151      5154      5155      5148      5151      5154      5156
      5148      5151      5154      5157      5149      5148      5151      5152
      5149      5148      5151      5153      5149      5148      5151      5154
      5150      5148      5151      5152      5150      5148      5151      5153
      5150      5148      5151      5154      5151      5154      5157      5158
      5151      5154      5157      5159      5151      5154      5157      5160
      5152      5151      5154      5155      5152      5151      5154      5156
      5152      5151      5154      5157      5153      5151      5154      5155
      5153      5151      5154      5156      5153      5151      5154      5157
      5154      5157      5160      5161      5154      5157      5160      5162
      5154      5157      5160      5163      5155      5154      5157      5158
      5155      5154      5157      5159      5155      5154      5157      5160
      5156      5154      5157      5158      5156      5154      5157      5159
      5156      5154      5157      5160      5158      5157      5160      5161
      5158      5157      5160      5162      5158      5157      5160      5163
      5159      5157      5160      5161      5159      5157      5160      5162
      5159      5157      5160      5163      5164      5165      5180      5181
      5164      5165      5180      5182      5164      5165      5180      5186
      5165      5164      5168      5169      5165      5164      5168      5170
      5165      5164      5168      5171      5165      5164      5172      5173
      5165      5164      5172      5174      5165      5164      5172      5175
      5165      5164      5176      5177      5165      5164      5176      5178
      5165      5164      5176      5179      5165      5180      5186      5183
      5166      5165      5164      5168      5166      5165      5164      5172
      5166      5165      5164      5176      5166      5165      5180      5181
      5166      5165      5180      5182      5166      5165      5180      5186
      5167      5165      5164      5168      5167      5165      5164      5172
      5167      5165      5164      5176      5167      5165      5180      5181
      5167      5165      5180      5182      5167      5165      5180      5186
      5168      5164      5165      5180      5168      5164      5172      5173
      5168      5164      5172      5174      5168      5164      5172      5175
      5168      5164      5176      5177      5168      5164      5176      5178
      5168      5164      5176      5179      5169      5168      5164      5172
      5169      5168      5164      5176      5170      5168      5164      5172
      5170      5168      5164      5176      5171      5168      5164      5172
      5171      5168      5164      5176      5172      5164      5165      5180
      5172      5164      5176      5177      5172      5164      5176      5178
      5172      5164      5176      5179      5173      5172      5164      5176
      5174      5172      5164      5176      5175      5172      5164      5176
      5176      5164      5165      5180      5180      5186      5183      5184
      5180      5186      5183      5185      5180      5186      5183      5187
      5181      5180      5186      5183      5182      5180      5186      5183
      5183      5187      5188      5189      5183      5187      5188      5190
      5183      5187      5188      5191      5184      5183      5187      5188
      5185      5183      5187      5188      5186      5183      5187      5188
      5187      5188      5191      5192      5187      5188      5191      5193
      5187      5188      5191      5199      5188      5191      5193      5194
      5188      5191      5199      5200      5188      5191      5199      5201
      5188      5191      5199      5202      5189      5188      5191      5192
      5189      5188      5191      5193      5189      5188      5191      5199
      5190      5188      5191      5192      5190      5188      5191      5193
      5190      5188      5191      5199      5191      5193      5194      5195
      5191      5193      5194      5196      5191      5199      5202      5203
      5192      5191      5193      5194      5192      5191      5199      5200
      5192      5191      5199      5201      5192      5191      5199      5202
      5193      5191      5199      5200      5193      5191      5199      5201
      5193      5191      5199      5202      5193      5194      5196      5197
      5193      5194      5196      5198      5193      5194      5196      5208
      5194      5193      5191      5199      5194      5196      5208      5209
      5194      5196      5208      5210      5194      5196      5208      5211
      5195      5194      5196      5197      5195      5194      5196      5198
      5195      5194      5196      5208      5196      5208      5211      5212
      5196      5208      5211      5213      5196      5208      5211      5214
      5197      5196      5208      5209      5197      5196      5208      5210
      5197      5196      5208      5211      5198      5196      5208      5209
      5198      5196      5208      5210      5198      5196      5208      5211
      5199      5202      5203      5204      5199      5202      5203      5205
      5200      5199      5202      5203      5201      5199      5202      5203
      5202      5203      5205      5206      5202      5203      5205      5207
      5202      5203      5205      5255      5203      5205      5255      5256
      5203      5205      5255      5257      5203      5205      5255      5258
      5204      5203      5205      5206      5204      5203      5205      5207
      5204      5203      5205      5255      5205      5255      5258      5259
      5205      5255      5258      5260      5205      5255      5258      5261
      5206      5205      5255      5256      5206      5205      5255      5257
      5206      5205      5255      5258      5207      5205      5255      5256
      5207      5205      5255      5257      5207      5205      5255      5258
      5208      5211      5214      5215      5208      5211      5214      5216
      5208      5211      5214      5217      5209      5208      5211      5212
      5209      5208      5211      5213      5209      5208      5211      5214
      5210      5208      5211      5212      5210      5208      5211      5213
      5210      5208      5211      5214      5211      5214      5217      5218
      5211      5214      5217      5219      5211      5214      5217      5220
      5212      5211      5214      5215      5212      5211      5214      5216
      5212      5211      5214      5217      5213      5211      5214      5215
      5213      5211      5214      5216      5213      5211      5214      5217
      5214      5217      5220      5221      5214      5217      5220      5222
      5214      5217      5220      5223      5215      5214      5217      5218
      5215      5214      5217      5219      5215      5214      5217      5220
      5216      5214      5217      5218      5216      5214      5217      5219
      5216      5214      5217      5220      5217      5220      5223      5224
      5217      5220      5223      5225      5217      5220      5223      5226
      5218      5217      5220      5221      5218      5217      5220      5222
      5218      5217      5220      5223      5219      5217      5220      5221
      5219      5217      5220      5222      5219      5217      5220      5223
      5220      5223      5226      5227      5220      5223      5226      5228
      5221      5220      5223      5224      5221      5220      5223      5225
      5221      5220      5223      5226      5222      5220      5223      5224
      5222      5220      5223      5225      5222      5220      5223      5226
      5223      5226      5228      5229      5223      5226      5228      5230
      5224      5223      5226      5227      5224      5223      5226      5228
      5225      5223      5226      5227      5225      5223      5226      5228
      5226      5228      5230      5231      5226      5228      5230      5232
      5226      5228      5230      5233      5227      5226      5228      5229
      5227      5226      5228      5230      5228      5230      5233      5234
      5228      5230      5233      5235      5228      5230      5233      5236
      5229      5228      5230      5231      5229      5228      5230      5232
      5229      5228      5230      5233      5230      5233      5236      5237
      5230      5233      5236      5238      5230      5233      5236      5239
      5231      5230      5233      5234      5231      5230      5233      5235
      5231      5230      5233      5236      5232      5230      5233      5234
      5232      5230      5233      5235      5232      5230      5233      5236
      5233      5236      5239      5240      5233      5236      5239      5241
      5233      5236      5239      5242      5234      5233      5236      5237
      5234      5233      5236      5238      5234      5233      5236      5239
      5235      5233      5236      5237      5235      5233      5236      5238
      5235      5233      5236      5239      5236      5239      5242      5243
      5236      5239      5242      5244      5236      5239      5242      5245
      5237      5236      5239      5240      5237      5236      5239      5241
      5237      5236      5239      5242      5238      5236      5239      5240
      5238      5236      5239      5241      5238      5236      5239      5242
      5239      5242      5245      5246      5239      5242      5245      5247
      5239      5242      5245      5248      5240      5239      5242      5243
      5240      5239      5242      5244      5240      5239      5242      5245
      5241      5239      5242      5243      5241      5239      5242      5244
      5241      5239      5242      5245      5242      5245      5248      5249
      5242      5245      5248      5250      5242      5245      5248      5251
      5243      5242      5245      5246      5243      5242      5245      5247
      5243      5242      5245      5248      5244      5242      5245      5246
      5244      5242      5245      5247      5244      5242      5245      5248
      5245      5248      5251      5252      5245      5248      5251      5253
      5245      5248      5251      5254      5246      5245      5248      5249
      5246      5245      5248      5250      5246      5245      5248      5251
      5247      5245      5248      5249      5247      5245      5248      5250
      5247      5245      5248      5251      5249      5248      5251      5252
      5249      5248      5251      5253      5249      5248      5251      5254
      5250      5248      5251      5252      5250      5248      5251      5253
      5250      5248      5251      5254      5255      5258      5261      5262
      5255      5258      5261      5263      5255      5258      5261      5264
      5256      5255      5258      5259      5256      5255      5258      5260
      5256      5255      5258      5261      5257      5255      5258      5259
      5257      5255      5258      5260      5257      5255      5258      5261
      5258      5261      5264      5265      5258      5261      5264      5266
      5258      5261      5264      5267      5259      5258      5261      5262
      5259      5258      5261      5263      5259      5258      5261      5264
      5260      5258      5261      5262      5260      5258      5261      5263
      5260      5258      5261      5264      5261      5264      5267      5268
      5261      5264      5267      5269      5261      5264      5267      5270
      5262      5261      5264      5265      5262      5261      5264      5266
      5262      5261      5264      5267      5263      5261      5264      5265
      5263      5261      5264      5266      5263      5261      5264      5267
      5264      5267      5270      5271      5264      5267      5270      5272
      5264      5267      5270      5273      5265      5264      5267      5268
      5265      5264      5267      5269      5265      5264      5267      5270
      5266      5264      5267      5268      5266      5264      5267      5269
      5266      5264      5267      5270      5267      5270      5273      5274
      5267      5270      5273      5275      5267      5270      5273      5276
      5268      5267      5270      5271      5268      5267      5270      5272
      5268      5267      5270      5273      5269      5267      5270      5271
      5269      5267      5270      5272      5269      5267      5270      5273
      5270      5273      5276      5277      5270      5273      5276      5278
      5270      5273      5276      5279      5271      5270      5273      5274
      5271      5270      5273      5275      5271      5270      5273      5276
      5272      5270      5273      5274      5272      5270      5273      5275
      5272      5270      5273      5276      5273      5276      5279      5280
      5273      5276      5279      5281      5273      5276      5279      5282
      5274      5273      5276      5277      5274      5273      5276      5278
      5274      5273      5276      5279      5275      5273      5276      5277
      5275      5273      5276      5278      5275      5273      5276      5279
      5276      5279      5282      5283      5276      5279      5282      5284
      5276      5279      5282      5285      5277      5276      5279      5280
      5277      5276      5279      5281      5277      5276      5279      5282
      5278      5276      5279      5280      5278      5276      5279      5281
      5278      5276      5279      5282      5279      5282      5285      5286
      5279      5282      5285      5287      5279      5282      5285      5288
      5280      5279      5282      5283      5280      5279      5282      5284
      5280      5279      5282      5285      5281      5279      5282      5283
      5281      5279      5282      5284      5281      5279      5282      5285
      5282      5285      5288      5289      5282      5285      5288      5290
      5282      5285      5288      5291      5283      5282      5285      5286
      5283      5282      5285      5287      5283      5282      5285      5288
      5284      5282      5285      5286      5284      5282      5285      5287
      5284      5282      5285      5288      5285      5288      5291      5292
      5285      5288      5291      5293      5285      5288      5291      5294
      5286      5285      5288      5289      5286      5285      5288      5290
      5286      5285      5288      5291      5287      5285      5288      5289
      5287      5285      5288      5290      5287      5285      5288      5291
      5288      5291      5294      5295      5288      5291      5294      5296
      5288      5291      5294      5297      5289      5288      5291      5292
      5289      5288      5291      5293      5289      5288      5291      5294
      5290      5288      5291      5292      5290      5288      5291      5293
      5290      5288      5291      5294      5292      5291      5294      5295
      5292      5291      5294      5296      5292      5291      5294      5297
      5293      5291      5294      5295      5293      5291      5294      5296
      5293      5291      5294      5297      5298      5299      5314      5315
      5298      5299      5314      5316      5298      5299      5314      5320
      5299      5298      5302      5303      5299      5298      5302      5304
      5299      5298      5302      5305      5299      5298      5306      5307
      5299      5298      5306      5308      5299      5298      5306      5309
      5299      5298      5310      5311      5299      5298      5310      5312
      5299      5298      5310      5313      5299      5314      5320      5317
      5300      5299      5298      5302      5300      5299      5298      5306
      5300      5299      5298      5310      5300      5299      5314      5315
      5300      5299      5314      5316      5300      5299      5314      5320
      5301      5299      5298      5302      5301      5299      5298      5306
      5301      5299      5298      5310      5301      5299      5314      5315
      5301      5299      5314      5316      5301      5299      5314      5320
      5302      5298      5299      5314      5302      5298      5306      5307
      5302      5298      5306      5308      5302      5298      5306      5309
      5302      5298      5310      5311      5302      5298      5310      5312
      5302      5298      5310      5313      5303      5302      5298      5306
      5303      5302      5298      5310      5304      5302      5298      5306
      5304      5302      5298      5310      5305      5302      5298      5306
      5305      5302      5298      5310      5306      5298      5299      5314
      5306      5298      5310      5311      5306      5298      5310      5312
      5306      5298      5310      5313      5307      5306      5298      5310
      5308      5306      5298      5310      5309      5306      5298      5310
      5310      5298      5299      5314      5314      5320      5317      5318
      5314      5320      5317      5319      5314      5320      5317      5321
      5315      5314      5320      5317      5316      5314      5320      5317
      5317      5321      5322      5323      5317      5321      5322      5324
      5317      5321      5322      5325      5318      5317      5321      5322
      5319      5317      5321      5322      5320      5317      5321      5322
      5321      5322      5325      5326      5321      5322      5325      5327
      5321      5322      5325      5333      5322      5325      5327      5328
      5322      5325      5333      5334      5322      5325      5333      5335
      5322      5325      5333      5336      5323      5322      5325      5326
      5323      5322      5325      5327      5323      5322      5325      5333
      5324      5322      5325      5326      5324      5322      5325      5327
      5324      5322      5325      5333      5325      5327      5328      5329
      5325      5327      5328      5330      5325      5333      5336      5337
      5326      5325      5327      5328      5326      5325      5333      5334
      5326      5325      5333      5335      5326      5325      5333      5336
      5327      5325      5333      5334      5327      5325      5333      5335
      5327      5325      5333      5336      5327      5328      5330      5331
      5327      5328      5330      5332      5327      5328      5330      5342
      5328      5327      5325      5333      5328      5330      5342      5343
      5328      5330      5342      5344      5328      5330      5342      5345
      5329      5328      5330      5331      5329      5328      5330      5332
      5329      5328      5330      5342      5330      5342      5345      5346
      5330      5342      5345      5347      5330      5342      5345      5348
      5331      5330      5342      5343      5331      5330      5342      5344
      5331      5330      5342      5345      5332      5330      5342      5343
      5332      5330      5342      5344      5332      5330      5342      5345
      5333      5336      5337      5338      5333      5336      5337      5339
      5334      5333      5336      5337      5335      5333      5336      5337
      5336      5337      5339      5340      5336      5337      5339      5341
      5336      5337      5339      5389      5337      5339      5389      5390
      5337      5339      5389      5391      5337      5339      5389      5392
      5338      5337      5339      5340      5338      5337      5339      5341
      5338      5337      5339      5389      5339      5389      5392      5393
      5339      5389      5392      5394      5339      5389      5392      5395
      5340      5339      5389      5390      5340      5339      5389      5391
      5340      5339      5389      5392      5341      5339      5389      5390
      5341      5339      5389      5391      5341      5339      5389      5392
      5342      5345      5348      5349      5342      5345      5348      5350
      5342      5345      5348      5351      5343      5342      5345      5346
      5343      5342      5345      5347      5343      5342      5345      5348
      5344      5342      5345      5346      5344      5342      5345      5347
      5344      5342      5345      5348      5345      5348      5351      5352
      5345      5348      5351      5353      5345      5348      5351      5354
      5346      5345      5348      5349      5346      5345      5348      5350
      5346      5345      5348      5351      5347      5345      5348      5349
      5347      5345      5348      5350      5347      5345      5348      5351
      5348      5351      5354      5355      5348      5351      5354      5356
      5348      5351      5354      5357      5349      5348      5351      5352
      5349      5348      5351      5353      5349      5348      5351      5354
      5350      5348      5351      5352      5350      5348      5351      5353
      5350      5348      5351      5354      5351      5354      5357      5358
      5351      5354      5357      5359      5351      5354      5357      5360
      5352      5351      5354      5355      5352      5351      5354      5356
      5352      5351      5354      5357      5353      5351      5354      5355
      5353      5351      5354      5356      5353      5351      5354      5357
      5354      5357      5360      5361      5354      5357      5360      5362
      5355      5354      5357      5358      5355      5354      5357      5359
      5355      5354      5357      5360      5356      5354      5357      5358
      5356      5354      5357      5359      5356      5354      5357      5360
      5357      5360      5362      5363      5357      5360      5362      5364
      5358      5357      5360      5361      5358      5357      5360      5362
      5359      5357      5360      5361      5359      5357      5360      5362
      5360      5362      5364      5365      5360      5362      5364      5366
      5360      5362      5364      5367      5361      5360      5362      5363
      5361      5360      5362      5364      5362      5364      5367      5368
      5362      5364      5367      5369      5362      5364      5367      5370
      5363      5362      5364      5365      5363      5362      5364      5366
      5363      5362      5364      5367      5364      5367      5370      5371
      5364      5367      5370      5372      5364      5367      5370      5373
      5365      5364      5367      5368      5365      5364      5367      5369
      5365      5364      5367      5370      5366      5364      5367      5368
      5366      5364      5367      5369      5366      5364      5367      5370
      5367      5370      5373      5374      5367      5370      5373      5375
      5367      5370      5373      5376      5368      5367      5370      5371
      5368      5367      5370      5372      5368      5367      5370      5373
      5369      5367      5370      5371      5369      5367      5370      5372
      5369      5367      5370      5373      5370      5373      5376      5377
      5370      5373      5376      5378      5370      5373      5376      5379
      5371      5370      5373      5374      5371      5370      5373      5375
      5371      5370      5373      5376      5372      5370      5373      5374
      5372      5370      5373      5375      5372      5370      5373      5376
      5373      5376      5379      5380      5373      5376      5379      5381
      5373      5376      5379      5382      5374      5373      5376      5377
      5374      5373      5376      5378      5374      5373      5376      5379
      5375      5373      5376      5377      5375      5373      5376      5378
      5375      5373      5376      5379      5376      5379      5382      5383
      5376      5379      5382      5384      5376      5379      5382      5385
      5377      5376      5379      5380      5377      5376      5379      5381
      5377      5376      5379      5382      5378      5376      5379      5380
      5378      5376      5379      5381      5378      5376      5379      5382
      5379      5382      5385      5386      5379      5382      5385      5387
      5379      5382      5385      5388      5380      5379      5382      5383
      5380      5379      5382      5384      5380      5379      5382      5385
      5381      5379      5382      5383      5381      5379      5382      5384
      5381      5379      5382      5385      5383      5382      5385      5386
      5383      5382      5385      5387      5383      5382      5385      5388
      5384      5382      5385      5386      5384      5382      5385      5387
      5384      5382      5385      5388      5389      5392      5395      5396
      5389      5392      5395      5397      5389      5392      5395      5398
      5390      5389      5392      5393      5390      5389      5392      5394
      5390      5389      5392      5395      5391      5389      5392      5393
      5391      5389      5392      5394      5391      5389      5392      5395
      5392      5395      5398      5399      5392      5395      5398      5400
      5392      5395      5398      5401      5393      5392      5395      5396
      5393      5392      5395      5397      5393      5392      5395      5398
      5394      5392      5395      5396      5394      5392      5395      5397
      5394      5392      5395      5398      5395      5398      5401      5402
      5395      5398      5401      5403      5395      5398      5401      5404
      5396      5395      5398      5399      5396      5395      5398      5400
      5396      5395      5398      5401      5397      5395      5398      5399
      5397      5395      5398      5400      5397      5395      5398      5401
      5398      5401      5404      5405      5398      5401      5404      5406
      5398      5401      5404      5407      5399      5398      5401      5402
      5399      5398      5401      5403      5399      5398      5401      5404
      5400      5398      5401      5402      5400      5398      5401      5403
      5400      5398      5401      5404      5401      5404      5407      5408
      5401      5404      5407      5409      5401      5404      5407      5410
      5402      5401      5404      5405      5402      5401      5404      5406
      5402      5401      5404      5407      5403      5401      5404      5405
      5403      5401      5404      5406      5403      5401      5404      5407
      5404      5407      5410      5411      5404      5407      5410      5412
      5404      5407      5410      5413      5405      5404      5407      5408
      5405      5404      5407      5409      5405      5404      5407      5410
      5406      5404      5407      5408      5406      5404      5407      5409
      5406      5404      5407      5410      5407      5410      5413      5414
      5407      5410      5413      5415      5407      5410      5413      5416
      5408      5407      5410      5411      5408      5407      5410      5412
      5408      5407      5410      5413      5409      5407      5410      5411
      5409      5407      5410      5412      5409      5407      5410      5413
      5410      5413      5416      5417      5410      5413      5416      5418
      5410      5413      5416      5419      5411      5410      5413      5414
      5411      5410      5413      5415      5411      5410      5413      5416
      5412      5410      5413      5414      5412      5410      5413      5415
      5412      5410      5413      5416      5413      5416      5419      5420
      5413      5416      5419      5421      5413      5416      5419      5422
      5414      5413      5416      5417      5414      5413      5416      5418
      5414      5413      5416      5419      5415      5413      5416      5417
      5415      5413      5416      5418      5415      5413      5416      5419
      5416      5419      5422      5423      5416      5419      5422      5424
      5416      5419      5422      5425      5417      5416      5419      5420
      5417      5416      5419      5421      5417      5416      5419      5422
      5418      5416      5419      5420      5418      5416      5419      5421
      5418      5416      5419      5422      5419      5422      5425      5426
      5419      5422      5425      5427      5419      5422      5425      5428
      5420      5419      5422      5423      5420      5419      5422      5424
      5420      5419      5422      5425      5421      5419      5422      5423
      5421      5419      5422      5424      5421      5419      5422      5425
      5422      5425      5428      5429      5422      5425      5428      5430
      5422      5425      5428      5431      5423      5422      5425      5426
      5423      5422      5425      5427      5423      5422      5425      5428
      5424      5422      5425      5426      5424      5422      5425      5427
      5424      5422      5425      5428      5426      5425      5428      5429
      5426      5425      5428      5430      5426      5425      5428      5431
      5427      5425      5428      5429      5427      5425      5428      5430
      5427      5425      5428      5431      5432      5433      5448      5449
      5432      5433      5448      5450      5432      5433      5448      5454
      5433      5432      5436      5437      5433      5432      5436      5438
      5433      5432      5436      5439      5433      5432      5440      5441
      5433      5432      5440      5442      5433      5432      5440      5443
      5433      5432      5444      5445      5433      5432      5444      5446
      5433      5432      5444      5447      5433      5448      5454      5451
      5434      5433      5432      5436      5434      5433      5432      5440
      5434      5433      5432      5444      5434      5433      5448      5449
      5434      5433      5448      5450      5434      5433      5448      5454
      5435      5433      5432      5436      5435      5433      5432      5440
      5435      5433      5432      5444      5435      5433      5448      5449
      5435      5433      5448      5450      5435      5433      5448      5454
      5436      5432      5433      5448      5436      5432      5440      5441
      5436      5432      5440      5442      5436      5432      5440      5443
      5436      5432      5444      5445      5436      5432      5444      5446
      5436      5432      5444      5447      5437      5436      5432      5440
      5437      5436      5432      5444      5438      5436      5432      5440
      5438      5436      5432      5444      5439      5436      5432      5440
      5439      5436      5432      5444      5440      5432      5433      5448
      5440      5432      5444      5445      5440      5432      5444      5446
      5440      5432      5444      5447      5441      5440      5432      5444
      5442      5440      5432      5444      5443      5440      5432      5444
      5444      5432      5433      5448      5448      5454      5451      5452
      5448      5454      5451      5453      5448      5454      5451      5455
      5449      5448      5454      5451      5450      5448      5454      5451
      5451      5455      5456      5457      5451      5455      5456      5458
      5451      5455      5456      5459      5452      5451      5455      5456
      5453      5451      5455      5456      5454      5451      5455      5456
      5455      5456      5459      5460      5455      5456      5459      5461
      5455      5456      5459      5467      5456      5459      5461      5462
      5456      5459      5467      5468      5456      5459      5467      5469
      5456      5459      5467      5470      5457      5456      5459      5460
      5457      5456      5459      5461      5457      5456      5459      5467
      5458      5456      5459      5460      5458      5456      5459      5461
      5458      5456      5459      5467      5459      5461      5462      5463
      5459      5461      5462      5464      5459      5467      5470      5471
      5460      5459      5461      5462      5460      5459      5467      5468
      5460      5459      5467      5469      5460      5459      5467      5470
      5461      5459      5467      5468      5461      5459      5467      5469
      5461      5459      5467      5470      5461      5462      5464      5465
      5461      5462      5464      5466      5461      5462      5464      5476
      5462      5461      5459      5467      5462      5464      5476      5477
      5462      5464      5476      5478      5462      5464      5476      5479
      5463      5462      5464      5465      5463      5462      5464      5466
      5463      5462      5464      5476      5464      5476      5479      5480
      5464      5476      5479      5481      5464      5476      5479      5482
      5465      5464      5476      5477      5465      5464      5476      5478
      5465      5464      5476      5479      5466      5464      5476      5477
      5466      5464      5476      5478      5466      5464      5476      5479
      5467      5470      5471      5472      5467      5470      5471      5473
      5468      5467      5470      5471      5469      5467      5470      5471
      5470      5471      5473      5474      5470      5471      5473      5475
      5470      5471      5473      5523      5471      5473      5523      5524
      5471      5473      5523      5525      5471      5473      5523      5526
      5472      5471      5473      5474      5472      5471      5473      5475
      5472      5471      5473      5523      5473      5523      5526      5527
      5473      5523      5526      5528      5473      5523      5526      5529
      5474      5473      5523      5524      5474      5473      5523      5525
      5474      5473      5523      5526      5475      5473      5523      5524
      5475      5473      5523      5525      5475      5473      5523      5526
      5476      5479      5482      5483      5476      5479      5482      5484
      5476      5479      5482      5485      5477      5476      5479      5480
      5477      5476      5479      5481      5477      5476      5479      5482
      5478      5476      5479      5480      5478      5476      5479      5481
      5478      5476      5479      5482      5479      5482      5485      5486
      5479      5482      5485      5487      5479      5482      5485      5488
      5480      5479      5482      5483      5480      5479      5482      5484
      5480      5479      5482      5485      5481      5479      5482      5483
      5481      5479      5482      5484      5481      5479      5482      5485
      5482      5485      5488      5489      5482      5485      5488      5490
      5482      5485      5488      5491      5483      5482      5485      5486
      5483      5482      5485      5487      5483      5482      5485      5488
      5484      5482      5485      5486      5484      5482      5485      5487
      5484      5482      5485      5488      5485      5488      5491      5492
      5485      5488      5491      5493      5485      5488      5491      5494
      5486      5485      5488      5489      5486      5485      5488      5490
      5486      5485      5488      5491      5487      5485      5488      5489
      5487      5485      5488      5490      5487      5485      5488      5491
      5488      5491      5494      5495      5488      5491      5494      5496
      5489      5488      5491      5492      5489      5488      5491      5493
      5489      5488      5491      5494      5490      5488      5491      5492
      5490      5488      5491      5493      5490      5488      5491      5494
      5491      5494      5496      5497      5491      5494      5496      5498
      5492      5491      5494      5495      5492      5491      5494      5496
      5493      5491      5494      5495      5493      5491      5494      5496
      5494      5496      5498      5499      5494      5496      5498      5500
      5494      5496      5498      5501      5495      5494      5496      5497
      5495      5494      5496      5498      5496      5498      5501      5502
      5496      5498      5501      5503      5496      5498      5501      5504
      5497      5496      5498      5499      5497      5496      5498      5500
      5497      5496      5498      5501      5498      5501      5504      5505
      5498      5501      5504      5506      5498      5501      5504      5507
      5499      5498      5501      5502      5499      5498      5501      5503
      5499      5498      5501      5504      5500      5498      5501      5502
      5500      5498      5501      5503      5500      5498      5501      5504
      5501      5504      5507      5508      5501      5504      5507      5509
      5501      5504      5507      5510      5502      5501      5504      5505
      5502      5501      5504      5506      5502      5501      5504      5507
      5503      5501      5504      5505      5503      5501      5504      5506
      5503      5501      5504      5507      5504      5507      5510      5511
      5504      5507      5510      5512      5504      5507      5510      5513
      5505      5504      5507      5508      5505      5504      5507      5509
      5505      5504      5507      5510      5506      5504      5507      5508
      5506      5504      5507      5509      5506      5504      5507      5510
      5507      5510      5513      5514      5507      5510      5513      5515
      5507      5510      5513      5516      5508      5507      5510      5511
      5508      5507      5510      5512      5508      5507      5510      5513
      5509      5507      5510      5511      5509      5507      5510      5512
      5509      5507      5510      5513      5510      5513      5516      5517
      5510      5513      5516      5518      5510      5513      5516      5519
      5511      5510      5513      5514      5511      5510      5513      5515
      5511      5510      5513      5516      5512      5510      5513      5514
      5512      5510      5513      5515      5512      5510      5513      5516
      5513      5516      5519      5520      5513      5516      5519      5521
      5513      5516      5519      5522      5514      5513      5516      5517
      5514      5513      5516      5518      5514      5513      5516      5519
      5515      5513      5516      5517      5515      5513      5516      5518
      5515      5513      5516      5519      5517      5516      5519      5520
      5517      5516      5519      5521      5517      5516      5519      5522
      5518      5516      5519      5520      5518      5516      5519      5521
      5518      5516      5519      5522      5523      5526      5529      5530
      5523      5526      5529      5531      5523      5526      5529      5532
      5524      5523      5526      5527      5524      5523      5526      5528
      5524      5523      5526      5529      5525      5523      5526      5527
      5525      5523      5526      5528      5525      5523      5526      5529
      5526      5529      5532      5533      5526      5529      5532      5534
      5526      5529      5532      5535      5527      5526      5529      5530
      5527      5526      5529      5531      5527      5526      5529      5532
      5528      5526      5529      5530      5528      5526      5529      5531
      5528      5526      5529      5532      5529      5532      5535      5536
      5529      5532      5535      5537      5529      5532      5535      5538
      5530      5529      5532      5533      5530      5529      5532      5534
      5530      5529      5532      5535      5531      5529      5532      5533
      5531      5529      5532      5534      5531      5529      5532      5535
      5532      5535      5538      5539      5532      5535      5538      5540
      5532      5535      5538      5541      5533      5532      5535      5536
      5533      5532      5535      5537      5533      5532      5535      5538
      5534      5532      5535      5536      5534      5532      5535      5537
      5534      5532      5535      5538      5535      5538      5541      5542
      5535      5538      5541      5543      5535      5538      5541      5544
      5536      5535      5538      5539      5536      5535      5538      5540
      5536      5535      5538      5541      5537      5535      5538      5539
      5537      5535      5538      5540      5537      5535      5538      5541
      5538      5541      5544      5545      5538      5541      5544      5546
      5538      5541      5544      5547      5539      5538      5541      5542
      5539      5538      5541      5543      5539      5538      5541      5544
      5540      5538      5541      5542      5540      5538      5541      5543
      5540      5538      5541      5544      5541      5544      5547      5548
      5541      5544      5547      5549      5541      5544      5547      5550
      5542      5541      5544      5545      5542      5541      5544      5546
      5542      5541      5544      5547      5543      5541      5544      5545
      5543      5541      5544      5546      5543      5541      5544      5547
      5544      5547      5550      5551      5544      5547      5550      5552
      5544      5547      5550      5553      5545      5544      5547      5548
      5545      5544      5547      5549      5545      5544      5547      5550
      5546      5544      5547      5548      5546      5544      5547      5549
      5546      5544      5547      5550      5547      5550      5553      5554
      5547      5550      5553      5555      5547      5550      5553      5556
      5548      5547      5550      5551      5548      5547      5550      5552
      5548      5547      5550      5553      5549      5547      5550      5551
      5549      5547      5550      5552      5549      5547      5550      5553
      5550      5553      5556      5557      5550      5553      5556      5558
      5550      5553      5556      5559      5551      5550      5553      5554
      5551      5550      5553      5555      5551      5550      5553      5556
      5552      5550      5553      5554      5552      5550      5553      5555
      5552      5550      5553      5556      5553      5556      5559      5560
      5553      5556      5559      5561      5553      5556      5559      5562
      5554      5553      5556      5557      5554      5553      5556      5558
      5554      5553      5556      5559      5555      5553      5556      5557
      5555      5553      5556      5558      5555      5553      5556      5559
      5556      5559      5562      5563      5556      5559      5562      5564
      5556      5559      5562      5565      5557      5556      5559      5560
      5557      5556      5559      5561      5557      5556      5559      5562
      5558      5556      5559      5560      5558      5556      5559      5561
      5558      5556      5559      5562      5560      5559      5562      5563
      5560      5559      5562      5564      5560      5559      5562      5565
      5561      5559      5562      5563      5561      5559      5562      5564
      5561      5559      5562      5565      5566      5567      5582      5583
      5566      5567      5582      5584      5566      5567      5582      5588
      5567      5566      5570      5571      5567      5566      5570      5572
      5567      5566      5570      5573      5567      5566      5574      5575
      5567      5566      5574      5576      5567      5566      5574      5577
      5567      5566      5578      5579      5567      5566      5578      5580
      5567      5566      5578      5581      5567      5582      5588      5585
      5568      5567      5566      5570      5568      5567      5566      5574
      5568      5567      5566      5578      5568      5567      5582      5583
      5568      5567      5582      5584      5568      5567      5582      5588
      5569      5567      5566      5570      5569      5567      5566      5574
      5569      5567      5566      5578      5569      5567      5582      5583
      5569      5567      5582      5584      5569      5567      5582      5588
      5570      5566      5567      5582      5570      5566      5574      5575
      5570      5566      5574      5576      5570      5566      5574      5577
      5570      5566      5578      5579      5570      5566      5578      5580
      5570      5566      5578      5581      5571      5570      5566      5574
      5571      5570      5566      5578      5572      5570      5566      5574
      5572      5570      5566      5578      5573      5570      5566      5574
      5573      5570      5566      5578      5574      5566      5567      5582
      5574      5566      5578      5579      5574      5566      5578      5580
      5574      5566      5578      5581      5575      5574      5566      5578
      5576      5574      5566      5578      5577      5574      5566      5578
      5578      5566      5567      5582      5582      5588      5585      5586
      5582      5588      5585      5587      5582      5588      5585      5589
      5583      5582      5588      5585      5584      5582      5588      5585
      5585      5589      5590      5591      5585      5589      5590      5592
      5585      5589      5590      5593      5586      5585      5589      5590
      5587      5585      5589      5590      5588      5585      5589      5590
      5589      5590      5593      5594      5589      5590      5593      5595
      5589      5590      5593      5601      5590      5593      5595      5596
      5590      5593      5601      5602      5590      5593      5601      5603
      5590      5593      5601      5604      5591      5590      5593      5594
      5591      5590      5593      5595      5591      5590      5593      5601
      5592      5590      5593      5594      5592      5590      5593      5595
      5592      5590      5593      5601      5593      5595      5596      5597
      5593      5595      5596      5598      5593      5601      5604      5605
      5594      5593      5595      5596      5594      5593      5601      5602
      5594      5593      5601      5603      5594      5593      5601      5604
      5595      5593      5601      5602      5595      5593      5601      5603
      5595      5593      5601      5604      5595      5596      5598      5599
      5595      5596      5598      5600      5595      5596      5598      5610
      5596      5595      5593      5601      5596      5598      5610      5611
      5596      5598      5610      5612      5596      5598      5610      5613
      5597      5596      5598      5599      5597      5596      5598      5600
      5597      5596      5598      5610      5598      5610      5613      5614
      5598      5610      5613      5615      5598      5610      5613      5616
      5599      5598      5610      5611      5599      5598      5610      5612
      5599      5598      5610      5613      5600      5598      5610      5611
      5600      5598      5610      5612      5600      5598      5610      5613
      5601      5604      5605      5606      5601      5604      5605      5607
      5602      5601      5604      5605      5603      5601      5604      5605
      5604      5605      5607      5608      5604      5605      5607      5609
      5604      5605      5607      5657      5605      5607      5657      5658
      5605      5607      5657      5659      5605      5607      5657      5660
      5606      5605      5607      5608      5606      5605      5607      5609
      5606      5605      5607      5657      5607      5657      5660      5661
      5607      5657      5660      5662      5607      5657      5660      5663
      5608      5607      5657      5658      5608      5607      5657      5659
      5608      5607      5657      5660      5609      5607      5657      5658
      5609      5607      5657      5659      5609      5607      5657      5660
      5610      5613      5616      5617      5610      5613      5616      5618
      5610      5613      5616      5619      5611      5610      5613      5614
      5611      5610      5613      5615      5611      5610      5613      5616
      5612      5610      5613      5614      5612      5610      5613      5615
      5612      5610      5613      5616      5613      5616      5619      5620
      5613      5616      5619      5621      5613      5616      5619      5622
      5614      5613      5616      5617      5614      5613      5616      5618
      5614      5613      5616      5619      5615      5613      5616      5617
      5615      5613      5616      5618      5615      5613      5616      5619
      5616      5619      5622      5623      5616      5619      5622      5624
      5616      5619      5622      5625      5617      5616      5619      5620
      5617      5616      5619      5621      5617      5616      5619      5622
      5618      5616      5619      5620      5618      5616      5619      5621
      5618      5616      5619      5622      5619      5622      5625      5626
      5619      5622      5625      5627      5619      5622      5625      5628
      5620      5619      5622      5623      5620      5619      5622      5624
      5620      5619      5622      5625      5621      5619      5622      5623
      5621      5619      5622      5624      5621      5619      5622      5625
      5622      5625      5628      5629      5622      5625      5628      5630
      5623      5622      5625      5626      5623      5622      5625      5627
      5623      5622      5625      5628      5624      5622      5625      5626
      5624      5622      5625      5627      5624      5622      5625      5628
      5625      5628      5630      5631      5625      5628      5630      5632
      5626      5625      5628      5629      5626      5625      5628      5630
      5627      5625      5628      5629      5627      5625      5628      5630
      5628      5630      5632      5633      5628      5630      5632      5634
      5628      5630      5632      5635      5629      5628      5630      5631
      5629      5628      5630      5632      5630      5632      5635      5636
      5630      5632      5635      5637      5630      5632      5635      5638
      5631      5630      5632      5633      5631      5630      5632      5634
      5631      5630      5632      5635      5632      5635      5638      5639
      5632      5635      5638      5640      5632      5635      5638      5641
      5633      5632      5635      5636      5633      5632      5635      5637
      5633      5632      5635      5638      5634      5632      5635      5636
      5634      5632      5635      5637      5634      5632      5635      5638
      5635      5638      5641      5642      5635      5638      5641      5643
      5635      5638      5641      5644      5636      5635      5638      5639
      5636      5635      5638      5640      5636      5635      5638      5641
      5637      5635      5638      5639      5637      5635      5638      5640
      5637      5635      5638      5641      5638      5641      5644      5645
      5638      5641      5644      5646      5638      5641      5644      5647
      5639      5638      5641      5642      5639      5638      5641      5643
      5639      5638      5641      5644      5640      5638      5641      5642
      5640      5638      5641      5643      5640      5638      5641      5644
      5641      5644      5647      5648      5641      5644      5647      5649
      5641      5644      5647      5650      5642      5641      5644      5645
      5642      5641      5644      5646      5642      5641      5644      5647
      5643      5641      5644      5645      5643      5641      5644      5646
      5643      5641      5644      5647      5644      5647      5650      5651
      5644      5647      5650      5652      5644      5647      5650      5653
      5645      5644      5647      5648      5645      5644      5647      5649
      5645      5644      5647      5650      5646      5644      5647      5648
      5646      5644      5647      5649      5646      5644      5647      5650
      5647      5650      5653      5654      5647      5650      5653      5655
      5647      5650      5653      5656      5648      5647      5650      5651
      5648      5647      5650      5652      5648      5647      5650      5653
      5649      5647      5650      5651      5649      5647      5650      5652
      5649      5647      5650      5653      5651      5650      5653      5654
      5651      5650      5653      5655      5651      5650      5653      5656
      5652      5650      5653      5654      5652      5650      5653      5655
      5652      5650      5653      5656      5657      5660      5663      5664
      5657      5660      5663      5665      5657      5660      5663      5666
      5658      5657      5660      5661      5658      5657      5660      5662
      5658      5657      5660      5663      5659      5657      5660      5661
      5659      5657      5660      5662      5659      5657      5660      5663
      5660      5663      5666      5667      5660      5663      5666      5668
      5660      5663      5666      5669      5661      5660      5663      5664
      5661      5660      5663      5665      5661      5660      5663      5666
      5662      5660      5663      5664      5662      5660      5663      5665
      5662      5660      5663      5666      5663      5666      5669      5670
      5663      5666      5669      5671      5663      5666      5669      5672
      5664      5663      5666      5667      5664      5663      5666      5668
      5664      5663      5666      5669      5665      5663      5666      5667
      5665      5663      5666      5668      5665      5663      5666      5669
      5666      5669      5672      5673      5666      5669      5672      5674
      5666      5669      5672      5675      5667      5666      5669      5670
      5667      5666      5669      5671      5667      5666      5669      5672
      5668      5666      5669      5670      5668      5666      5669      5671
      5668      5666      5669      5672      5669      5672      5675      5676
      5669      5672      5675      5677      5669      5672      5675      5678
      5670      5669      5672      5673      5670      5669      5672      5674
      5670      5669      5672      5675      5671      5669      5672      5673
      5671      5669      5672      5674      5671      5669      5672      5675
      5672      5675      5678      5679      5672      5675      5678      5680
      5672      5675      5678      5681      5673      5672      5675      5676
      5673      5672      5675      5677      5673      5672      5675      5678
      5674      5672      5675      5676      5674      5672      5675      5677
      5674      5672      5675      5678      5675      5678      5681      5682
      5675      5678      5681      5683      5675      5678      5681      5684
      5676      5675      5678      5679      5676      5675      5678      5680
      5676      5675      5678      5681      5677      5675      5678      5679
      5677      5675      5678      5680      5677      5675      5678      5681
      5678      5681      5684      5685      5678      5681      5684      5686
      5678      5681      5684      5687      5679      5678      5681      5682
      5679      5678      5681      5683      5679      5678      5681      5684
      5680      5678      5681      5682      5680      5678      5681      5683
      5680      5678      5681      5684      5681      5684      5687      5688
      5681      5684      5687      5689      5681      5684      5687      5690
      5682      5681      5684      5685      5682      5681      5684      5686
      5682      5681      5684      5687      5683      5681      5684      5685
      5683      5681      5684      5686      5683      5681      5684      5687
      5684      5687      5690      5691      5684      5687      5690      5692
      5684      5687      5690      5693      5685      5684      5687      5688
      5685      5684      5687      5689      5685      5684      5687      5690
      5686      5684      5687      5688      5686      5684      5687      5689
      5686      5684      5687      5690      5687      5690      5693      5694
      5687      5690      5693      5695      5687      5690      5693      5696
      5688      5687      5690      5691      5688      5687      5690      5692
      5688      5687      5690      5693      5689      5687      5690      5691
      5689      5687      5690      5692      5689      5687      5690      5693
      5690      5693      5696      5697      5690      5693      5696      5698
      5690      5693      5696      5699      5691      5690      5693      5694
      5691      5690      5693      5695      5691      5690      5693      5696
      5692      5690      5693      5694      5692      5690      5693      5695
      5692      5690      5693      5696      5694      5693      5696      5697
      5694      5693      5696      5698      5694      5693      5696      5699
      5695      5693      5696      5697      5695      5693      5696      5698
      5695      5693      5696      5699      5700      5701      5716      5717
      5700      5701      5716      5718      5700      5701      5716      5722
      5701      5700      5704      5705      5701      5700      5704      5706
      5701      5700      5704      5707      5701      5700      5708      5709
      5701      5700      5708      5710      5701      5700      5708      5711
      5701      5700      5712      5713      5701      5700      5712      5714
      5701      5700      5712      5715      5701      5716      5722      5719
      5702      5701      5700      5704      5702      5701      5700      5708
      5702      5701      5700      5712      5702      5701      5716      5717
      5702      5701      5716      5718      5702      5701      5716      5722
      5703      5701      5700      5704      5703      5701      5700      5708
      5703      5701      5700      5712      5703      5701      5716      5717
      5703      5701      5716      5718      5703      5701      5716      5722
      5704      5700      5701      5716      5704      5700      5708      5709
      5704      5700      5708      5710      5704      5700      5708      5711
      5704      5700      5712      5713      5704      5700      5712      5714
      5704      5700      5712      5715      5705      5704      5700      5708
      5705      5704      5700      5712      5706      5704      5700      5708
      5706      5704      5700      5712      5707      5704      5700      5708
      5707      5704      5700      5712      5708      5700      5701      5716
      5708      5700      5712      5713      5708      5700      5712      5714
      5708      5700      5712      5715      5709      5708      5700      5712
      5710      5708      5700      5712      5711      5708      5700      5712
      5712      5700      5701      5716      5716      5722      5719      5720
      5716      5722      5719      5721      5716      5722      5719      5723
      5717      5716      5722      5719      5718      5716      5722      5719
      5719      5723      5724      5725      5719      5723      5724      5726
      5719      5723      5724      5727      5720      5719      5723      5724
      5721      5719      5723      5724      5722      5719      5723      5724
      5723      5724      5727      5728      5723      5724      5727      5729
      5723      5724      5727      5735      5724      5727      5729      5730
      5724      5727      5735      5736      5724      5727      5735      5737
      5724      5727      5735      5738      5725      5724      5727      5728
      5725      5724      5727      5729      5725      5724      5727      5735
      5726      5724      5727      5728      5726      5724      5727      5729
      5726      5724      5727      5735      5727      5729      5730      5731
      5727      5729      5730      5732      5727      5735      5738      5739
      5728      5727      5729      5730      5728      5727      5735      5736
      5728      5727      5735      5737      5728      5727      5735      5738
      5729      5727      5735      5736      5729      5727      5735      5737
      5729      5727      5735      5738      5729      5730      5732      5733
      5729      5730      5732      5734      5729      5730      5732      5744
      5730      5729      5727      5735      5730      5732      5744      5745
      5730      5732      5744      5746      5730      5732      5744      5747
      5731      5730      5732      5733      5731      5730      5732      5734
      5731      5730      5732      5744      5732      5744      5747      5748
      5732      5744      5747      5749      5732      5744      5747      5750
      5733      5732      5744      5745      5733      5732      5744      5746
      5733      5732      5744      5747      5734      5732      5744      5745
      5734      5732      5744      5746      5734      5732      5744      5747
      5735      5738      5739      5740      5735      5738      5739      5741
      5736      5735      5738      5739      5737      5735      5738      5739
      5738      5739      5741      5742      5738      5739      5741      5743
      5738      5739      5741      5791      5739      5741      5791      5792
      5739      5741      5791      5793      5739      5741      5791      5794
      5740      5739      5741      5742      5740      5739      5741      5743
      5740      5739      5741      5791      5741      5791      5794      5795
      5741      5791      5794      5796      5741      5791      5794      5797
      5742      5741      5791      5792      5742      5741      5791      5793
      5742      5741      5791      5794      5743      5741      5791      5792
      5743      5741      5791      5793      5743      5741      5791      5794
      5744      5747      5750      5751      5744      5747      5750      5752
      5744      5747      5750      5753      5745      5744      5747      5748
      5745      5744      5747      5749      5745      5744      5747      5750
      5746      5744      5747      5748      5746      5744      5747      5749
      5746      5744      5747      5750      5747      5750      5753      5754
      5747      5750      5753      5755      5747      5750      5753      5756
      5748      5747      5750      5751      5748      5747      5750      5752
      5748      5747      5750      5753      5749      5747      5750      5751
      5749      5747      5750      5752      5749      5747      5750      5753
      5750      5753      5756      5757      5750      5753      5756      5758
      5750      5753      5756      5759      5751      5750      5753      5754
      5751      5750      5753      5755      5751      5750      5753      5756
      5752      5750      5753      5754      5752      5750      5753      5755
      5752      5750      5753      5756      5753      5756      5759      5760
      5753      5756      5759      5761      5753      5756      5759      5762
      5754      5753      5756      5757      5754      5753      5756      5758
      5754      5753      5756      5759      5755      5753      5756      5757
      5755      5753      5756      5758      5755      5753      5756      5759
      5756      5759      5762      5763      5756      5759      5762      5764
      5757      5756      5759      5760      5757      5756      5759      5761
      5757      5756      5759      5762      5758      5756      5759      5760
      5758      5756      5759      5761      5758      5756      5759      5762
      5759      5762      5764      5765      5759      5762      5764      5766
      5760      5759      5762      5763      5760      5759      5762      5764
      5761      5759      5762      5763      5761      5759      5762      5764
      5762      5764      5766      5767      5762      5764      5766      5768
      5762      5764      5766      5769      5763      5762      5764      5765
      5763      5762      5764      5766      5764      5766      5769      5770
      5764      5766      5769      5771      5764      5766      5769      5772
      5765      5764      5766      5767      5765      5764      5766      5768
      5765      5764      5766      5769      5766      5769      5772      5773
      5766      5769      5772      5774      5766      5769      5772      5775
      5767      5766      5769      5770      5767      5766      5769      5771
      5767      5766      5769      5772      5768      5766      5769      5770
      5768      5766      5769      5771      5768      5766      5769      5772
      5769      5772      5775      5776      5769      5772      5775      5777
      5769      5772      5775      5778      5770      5769      5772      5773
      5770      5769      5772      5774      5770      5769      5772      5775
      5771      5769      5772      5773      5771      5769      5772      5774
      5771      5769      5772      5775      5772      5775      5778      5779
      5772      5775      5778      5780      5772      5775      5778      5781
      5773      5772      5775      5776      5773      5772      5775      5777
      5773      5772      5775      5778      5774      5772      5775      5776
      5774      5772      5775      5777      5774      5772      5775      5778
      5775      5778      5781      5782      5775      5778      5781      5783
      5775      5778      5781      5784      5776      5775      5778      5779
      5776      5775      5778      5780      5776      5775      5778      5781
      5777      5775      5778      5779      5777      5775      5778      5780
      5777      5775      5778      5781      5778      5781      5784      5785
      5778      5781      5784      5786      5778      5781      5784      5787
      5779      5778      5781      5782      5779      5778      5781      5783
      5779      5778      5781      5784      5780      5778      5781      5782
      5780      5778      5781      5783      5780      5778      5781      5784
      5781      5784      5787      5788      5781      5784      5787      5789
      5781      5784      5787      5790      5782      5781      5784      5785
      5782      5781      5784      5786      5782      5781      5784      5787
      5783      5781      5784      5785      5783      5781      5784      5786
      5783      5781      5784      5787      5785      5784      5787      5788
      5785      5784      5787      5789      5785      5784      5787      5790
      5786      5784      5787      5788      5786      5784      5787      5789
      5786      5784      5787      5790      5791      5794      5797      5798
      5791      5794      5797      5799      5791      5794      5797      5800
      5792      5791      5794      5795      5792      5791      5794      5796
      5792      5791      5794      5797      5793      5791      5794      5795
      5793      5791      5794      5796      5793      5791      5794      5797
      5794      5797      5800      5801      5794      5797      5800      5802
      5794      5797      5800      5803      5795      5794      5797      5798
      5795      5794      5797      5799      5795      5794      5797      5800
      5796      5794      5797      5798      5796      5794      5797      5799
      5796      5794      5797      5800      5797      5800      5803      5804
      5797      5800      5803      5805      5797      5800      5803      5806
      5798      5797      5800      5801      5798      5797      5800      5802
      5798      5797      5800      5803      5799      5797      5800      5801
      5799      5797      5800      5802      5799      5797      5800      5803
      5800      5803      5806      5807      5800      5803      5806      5808
      5800      5803      5806      5809      5801      5800      5803      5804
      5801      5800      5803      5805      5801      5800      5803      5806
      5802      5800      5803      5804      5802      5800      5803      5805
      5802      5800      5803      5806      5803      5806      5809      5810
      5803      5806      5809      5811      5803      5806      5809      5812
      5804      5803      5806      5807      5804      5803      5806      5808
      5804      5803      5806      5809      5805      5803      5806      5807
      5805      5803      5806      5808      5805      5803      5806      5809
      5806      5809      5812      5813      5806      5809      5812      5814
      5806      5809      5812      5815      5807      5806      5809      5810
      5807      5806      5809      5811      5807      5806      5809      5812
      5808      5806      5809      5810      5808      5806      5809      5811
      5808      5806      5809      5812      5809      5812      5815      5816
      5809      5812      5815      5817      5809      5812      5815      5818
      5810      5809      5812      5813      5810      5809      5812      5814
      5810      5809      5812      5815      5811      5809      5812      5813
      5811      5809      5812      5814      5811      5809      5812      5815
      5812      5815      5818      5819      5812      5815      5818      5820
      5812      5815      5818      5821      5813      5812      5815      5816
      5813      5812      5815      5817      5813      5812      5815      5818
      5814      5812      5815      5816      5814      5812      5815      5817
      5814      5812      5815      5818      5815      5818      5821      5822
      5815      5818      5821      5823      5815      5818      5821      5824
      5816      5815      5818      5819      5816      5815      5818      5820
      5816      5815      5818      5821      5817      5815      5818      5819
      5817      5815      5818      5820      5817      5815      5818      5821
      5818      5821      5824      5825      5818      5821      5824      5826
      5818      5821      5824      5827      5819      5818      5821      5822
      5819      5818      5821      5823      5819      5818      5821      5824
      5820      5818      5821      5822      5820      5818      5821      5823
      5820      5818      5821      5824      5821      5824      5827      5828
      5821      5824      5827      5829      5821      5824      5827      5830
      5822      5821      5824      5825      5822      5821      5824      5826
      5822      5821      5824      5827      5823      5821      5824      5825
      5823      5821      5824      5826      5823      5821      5824      5827
      5824      5827      5830      5831      5824      5827      5830      5832
      5824      5827      5830      5833      5825      5824      5827      5828
      5825      5824      5827      5829      5825      5824      5827      5830
      5826      5824      5827      5828      5826      5824      5827      5829
      5826      5824      5827      5830      5828      5827      5830      5831
      5828      5827      5830      5832      5828      5827      5830      5833
      5829      5827      5830      5831      5829      5827      5830      5832
      5829      5827      5830      5833      5834      5835      5850      5851
      5834      5835      5850      5852      5834      5835      5850      5856
      5835      5834      5838      5839      5835      5834      5838      5840
      5835      5834      5838      5841      5835      5834      5842      5843
      5835      5834      5842      5844      5835      5834      5842      5845
      5835      5834      5846      5847      5835      5834      5846      5848
      5835      5834      5846      5849      5835      5850      5856      5853
      5836      5835      5834      5838      5836      5835      5834      5842
      5836      5835      5834      5846      5836      5835      5850      5851
      5836      5835      5850      5852      5836      5835      5850      5856
      5837      5835      5834      5838      5837      5835      5834      5842
      5837      5835      5834      5846      5837      5835      5850      5851
      5837      5835      5850      5852      5837      5835      5850      5856
      5838      5834      5835      5850      5838      5834      5842      5843
      5838      5834      5842      5844      5838      5834      5842      5845
      5838      5834      5846      5847      5838      5834      5846      5848
      5838      5834      5846      5849      5839      5838      5834      5842
      5839      5838      5834      5846      5840      5838      5834      5842
      5840      5838      5834      5846      5841      5838      5834      5842
      5841      5838      5834      5846      5842      5834      5835      5850
      5842      5834      5846      5847      5842      5834      5846      5848
      5842      5834      5846      5849      5843      5842      5834      5846
      5844      5842      5834      5846      5845      5842      5834      5846
      5846      5834      5835      5850      5850      5856      5853      5854
      5850      5856      5853      5855      5850      5856      5853      5857
      5851      5850      5856      5853      5852      5850      5856      5853
      5853      5857      5858      5859      5853      5857      5858      5860
      5853      5857      5858      5861      5854      5853      5857      5858
      5855      5853      5857      5858      5856      5853      5857      5858
      5857      5858      5861      5862      5857      5858      5861      5863
      5857      5858      5861      5869      5858      5861      5863      5864
      5858      5861      5869      5870      5858      5861      5869      5871
      5858      5861      5869      5872      5859      5858      5861      5862
      5859      5858      5861      5863      5859      5858      5861      5869
      5860      5858      5861      5862      5860      5858      5861      5863
      5860      5858      5861      5869      5861      5863      5864      5865
      5861      5863      5864      5866      5861      5869      5872      5873
      5862      5861      5863      5864      5862      5861      5869      5870
      5862      5861      5869      5871      5862      5861      5869      5872
      5863      5861      5869      5870      5863      5861      5869      5871
      5863      5861      5869      5872      5863      5864      5866      5867
      5863      5864      5866      5868      5863      5864      5866      5878
      5864      5863      5861      5869      5864      5866      5878      5879
      5864      5866      5878      5880      5864      5866      5878      5881
      5865      5864      5866      5867      5865      5864      5866      5868
      5865      5864      5866      5878      5866      5878      5881      5882
      5866      5878      5881      5883      5866      5878      5881      5884
      5867      5866      5878      5879      5867      5866      5878      5880
      5867      5866      5878      5881      5868      5866      5878      5879
      5868      5866      5878      5880      5868      5866      5878      5881
      5869      5872      5873      5874      5869      5872      5873      5875
      5870      5869      5872      5873      5871      5869      5872      5873
      5872      5873      5875      5876      5872      5873      5875      5877
      5872      5873      5875      5925      5873      5875      5925      5926
      5873      5875      5925      5927      5873      5875      5925      5928
      5874      5873      5875      5876      5874      5873      5875      5877
      5874      5873      5875      5925      5875      5925      5928      5929
      5875      5925      5928      5930      5875      5925      5928      5931
      5876      5875      5925      5926      5876      5875      5925      5927
      5876      5875      5925      5928      5877      5875      5925      5926
      5877      5875      5925      5927      5877      5875      5925      5928
      5878      5881      5884      5885      5878      5881      5884      5886
      5878      5881      5884      5887      5879      5878      5881      5882
      5879      5878      5881      5883      5879      5878      5881      5884
      5880      5878      5881      5882      5880      5878      5881      5883
      5880      5878      5881      5884      5881      5884      5887      5888
      5881      5884      5887      5889      5881      5884      5887      5890
      5882      5881      5884      5885      5882      5881      5884      5886
      5882      5881      5884      5887      5883      5881      5884      5885
      5883      5881      5884      5886      5883      5881      5884      5887
      5884      5887      5890      5891      5884      5887      5890      5892
      5884      5887      5890      5893      5885      5884      5887      5888
      5885      5884      5887      5889      5885      5884      5887      5890
      5886      5884      5887      5888      5886      5884      5887      5889
      5886      5884      5887      5890      5887      5890      5893      5894
      5887      5890      5893      5895      5887      5890      5893      5896
      5888      5887      5890      5891      5888      5887      5890      5892
      5888      5887      5890      5893      5889      5887      5890      5891
      5889      5887      5890      5892      5889      5887      5890      5893
      5890      5893      5896      5897      5890      5893      5896      5898
      5891      5890      5893      5894      5891      5890      5893      5895
      5891      5890      5893      5896      5892      5890      5893      5894
      5892      5890      5893      5895      5892      5890      5893      5896
      5893      5896      5898      5899      5893      5896      5898      5900
      5894      5893      5896      5897      5894      5893      5896      5898
      5895      5893      5896      5897      5895      5893      5896      5898
      5896      5898      5900      5901      5896      5898      5900      5902
      5896      5898      5900      5903      5897      5896      5898      5899
      5897      5896      5898      5900      5898      5900      5903      5904
      5898      5900      5903      5905      5898      5900      5903      5906
      5899      5898      5900      5901      5899      5898      5900      5902
      5899      5898      5900      5903      5900      5903      5906      5907
      5900      5903      5906      5908      5900      5903      5906      5909
      5901      5900      5903      5904      5901      5900      5903      5905
      5901      5900      5903      5906      5902      5900      5903      5904
      5902      5900      5903      5905      5902      5900      5903      5906
      5903      5906      5909      5910      5903      5906      5909      5911
      5903      5906      5909      5912      5904      5903      5906      5907
      5904      5903      5906      5908      5904      5903      5906      5909
      5905      5903      5906      5907      5905      5903      5906      5908
      5905      5903      5906      5909      5906      5909      5912      5913
      5906      5909      5912      5914      5906      5909      5912      5915
      5907      5906      5909      5910      5907      5906      5909      5911
      5907      5906      5909      5912      5908      5906      5909      5910
      5908      5906      5909      5911      5908      5906      5909      5912
      5909      5912      5915      5916      5909      5912      5915      5917
      5909      5912      5915      5918      5910      5909      5912      5913
      5910      5909      5912      5914      5910      5909      5912      5915
      5911      5909      5912      5913      5911      5909      5912      5914
      5911      5909      5912      5915      5912      5915      5918      5919
      5912      5915      5918      5920      5912      5915      5918      5921
      5913      5912      5915      5916      5913      5912      5915      5917
      5913      5912      5915      5918      5914      5912      5915      5916
      5914      5912      5915      5917      5914      5912      5915      5918
      5915      5918      5921      5922      5915      5918      5921      5923
      5915      5918      5921      5924      5916      5915      5918      5919
      5916      5915      5918      5920      5916      5915      5918      5921
      5917      5915      5918      5919      5917      5915      5918      5920
      5917      5915      5918      5921      5919      5918      5921      5922
      5919      5918      5921      5923      5919      5918      5921      5924
      5920      5918      5921      5922      5920      5918      5921      5923
      5920      5918      5921      5924      5925      5928      5931      5932
      5925      5928      5931      5933      5925      5928      5931      5934
      5926      5925      5928      5929      5926      5925      5928      5930
      5926      5925      5928      5931      5927      5925      5928      5929
      5927      5925      5928      5930      5927      5925      5928      5931
      5928      5931      5934      5935      5928      5931      5934      5936
      5928      5931      5934      5937      5929      5928      5931      5932
      5929      5928      5931      5933      5929      5928      5931      5934
      5930      5928      5931      5932      5930      5928      5931      5933
      5930      5928      5931      5934      5931      5934      5937      5938
      5931      5934      5937      5939      5931      5934      5937      5940
      5932      5931      5934      5935      5932      5931      5934      5936
      5932      5931      5934      5937      5933      5931      5934      5935
      5933      5931      5934      5936      5933      5931      5934      5937
      5934      5937      5940      5941      5934      5937      5940      5942
      5934      5937      5940      5943      5935      5934      5937      5938
      5935      5934      5937      5939      5935      5934      5937      5940
      5936      5934      5937      5938      5936      5934      5937      5939
      5936      5934      5937      5940      5937      5940      5943      5944
      5937      5940      5943      5945      5937      5940      5943      5946
      5938      5937      5940      5941      5938      5937      5940      5942
      5938      5937      5940      5943      5939      5937      5940      5941
      5939      5937      5940      5942      5939      5937      5940      5943
      5940      5943      5946      5947      5940      5943      5946      5948
      5940      5943      5946      5949      5941      5940      5943      5944
      5941      5940      5943      5945      5941      5940      5943      5946
      5942      5940      5943      5944      5942      5940      5943      5945
      5942      5940      5943      5946      5943      5946      5949      5950
      5943      5946      5949      5951      5943      5946      5949      5952
      5944      5943      5946      5947      5944      5943      5946      5948
      5944      5943      5946      5949      5945      5943      5946      5947
      5945      5943      5946      5948      5945      5943      5946      5949
      5946      5949      5952      5953      5946      5949      5952      5954
      5946      5949      5952      5955      5947      5946      5949      5950
      5947      5946      5949      5951      5947      5946      5949      5952
      5948      5946      5949      5950      5948      5946      5949      5951
      5948      5946      5949      5952      5949      5952      5955      5956
      5949      5952      5955      5957      5949      5952      5955      5958
      5950      5949      5952      5953      5950      5949      5952      5954
      5950      5949      5952      5955      5951      5949      5952      5953
      5951      5949      5952      5954      5951      5949      5952      5955
      5952      5955      5958      5959      5952      5955      5958      5960
      5952      5955      5958      5961      5953      5952      5955      5956
      5953      5952      5955      5957      5953      5952      5955      5958
      5954      5952      5955      5956      5954      5952      5955      5957
      5954      5952      5955      5958      5955      5958      5961      5962
      5955      5958      5961      5963      5955      5958      5961      5964
      5956      5955      5958      5959      5956      5955      5958      5960
      5956      5955      5958      5961      5957      5955      5958      5959
      5957      5955      5958      5960      5957      5955      5958      5961
      5958      5961      5964      5965      5958      5961      5964      5966
      5958      5961      5964      5967      5959      5958      5961      5962
      5959      5958      5961      5963      5959      5958      5961      5964
      5960      5958      5961      5962      5960      5958      5961      5963
      5960      5958      5961      5964      5962      5961      5964      5965
      5962      5961      5964      5966      5962      5961      5964      5967
      5963      5961      5964      5965      5963      5961      5964      5966
      5963      5961      5964      5967      5968      5969      5984      5985
      5968      5969      5984      5986      5968      5969      5984      5990
      5969      5968      5972      5973      5969      5968      5972      5974
      5969      5968      5972      5975      5969      5968      5976      5977
      5969      5968      5976      5978      5969      5968      5976      5979
      5969      5968      5980      5981      5969      5968      5980      5982
      5969      5968      5980      5983      5969      5984      5990      5987
      5970      5969      5968      5972      5970      5969      5968      5976
      5970      5969      5968      5980      5970      5969      5984      5985
      5970      5969      5984      5986      5970      5969      5984      5990
      5971      5969      5968      5972      5971      5969      5968      5976
      5971      5969      5968      5980      5971      5969      5984      5985
      5971      5969      5984      5986      5971      5969      5984      5990
      5972      5968      5969      5984      5972      5968      5976      5977
      5972      5968      5976      5978      5972      5968      5976      5979
      5972      5968      5980      5981      5972      5968      5980      5982
      5972      5968      5980      5983      5973      5972      5968      5976
      5973      5972      5968      5980      5974      5972      5968      5976
      5974      5972      5968      5980      5975      5972      5968      5976
      5975      5972      5968      5980      5976      5968      5969      5984
      5976      5968      5980      5981      5976      5968      5980      5982
      5976      5968      5980      5983      5977      5976      5968      5980
      5978      5976      5968      5980      5979      5976      5968      5980
      5980      5968      5969      5984      5984      5990      5987      5988
      5984      5990      5987      5989      5984      5990      5987      5991
      5985      5984      5990      5987      5986      5984      5990      5987
      5987      5991      5992      5993      5987      5991      5992      5994
      5987      5991      5992      5995      5988      5987      5991      5992
      5989      5987      5991      5992      5990      5987      5991      5992
      5991      5992      5995      5996      5991      5992      5995      5997
      5991      5992      5995      6003      5992      5995      5997      5998
      5992      5995      6003      6004      5992      5995      6003      6005
      5992      5995      6003      6006      5993      5992      5995      5996
      5993      5992      5995      5997      5993      5992      5995      6003
      5994      5992      5995      5996      5994      5992      5995      5997
      5994      5992      5995      6003      5995      5997      5998      5999
      5995      5997      5998      6000      5995      6003      6006      6007
      5996      5995      5997      5998      5996      5995      6003      6004
      5996      5995      6003      6005      5996      5995      6003      6006
      5997      5995      6003      6004      5997      5995      6003      6005
      5997      5995      6003      6006      5997      5998      6000      6001
      5997      5998      6000      6002      5997      5998      6000      6012
      5998      5997      5995      6003      5998      6000      6012      6013
      5998      6000      6012      6014      5998      6000      6012      6015
      5999      5998      6000      6001      5999      5998      6000      6002
      5999      5998      6000      6012      6000      6012      6015      6016
      6000      6012      6015      6017      6000      6012      6015      6018
      6001      6000      6012      6013      6001      6000      6012      6014
      6001      6000      6012      6015      6002      6000      6012      6013
      6002      6000      6012      6014      6002      6000      6012      6015
      6003      6006      6007      6008      6003      6006      6007      6009
      6004      6003      6006      6007      6005      6003      6006      6007
      6006      6007      6009      6010      6006      6007      6009      6011
      6006      6007      6009      6059      6007      6009      6059      6060
      6007      6009      6059      6061      6007      6009      6059      6062
      6008      6007      6009      6010      6008      6007      6009      6011
      6008      6007      6009      6059      6009      6059      6062      6063
      6009      6059      6062      6064      6009      6059      6062      6065
      6010      6009      6059      6060      6010      6009      6059      6061
      6010      6009      6059      6062      6011      6009      6059      6060
      6011      6009      6059      6061      6011      6009      6059      6062
      6012      6015      6018      6019      6012      6015      6018      6020
      6012      6015      6018      6021      6013      6012      6015      6016
      6013      6012      6015      6017      6013      6012      6015      6018
      6014      6012      6015      6016      6014      6012      6015      6017
      6014      6012      6015      6018      6015      6018      6021      6022
      6015      6018      6021      6023      6015      6018      6021      6024
      6016      6015      6018      6019      6016      6015      6018      6020
      6016      6015      6018      6021      6017      6015      6018      6019
      6017      6015      6018      6020      6017      6015      6018      6021
      6018      6021      6024      6025      6018      6021      6024      6026
      6018      6021      6024      6027      6019      6018      6021      6022
      6019      6018      6021      6023      6019      6018      6021      6024
      6020      6018      6021      6022      6020      6018      6021      6023
      6020      6018      6021      6024      6021      6024      6027      6028
      6021      6024      6027      6029      6021      6024      6027      6030
      6022      6021      6024      6025      6022      6021      6024      6026
      6022      6021      6024      6027      6023      6021      6024      6025
      6023      6021      6024      6026      6023      6021      6024      6027
      6024      6027      6030      6031      6024      6027      6030      6032
      6025      6024      6027      6028      6025      6024      6027      6029
      6025      6024      6027      6030      6026      6024      6027      6028
      6026      6024      6027      6029      6026      6024      6027      6030
      6027      6030      6032      6033      6027      6030      6032      6034
      6028      6027      6030      6031      6028      6027      6030      6032
      6029      6027      6030      6031      6029      6027      6030      6032
      6030      6032      6034      6035      6030      6032      6034      6036
      6030      6032      6034      6037      6031      6030      6032      6033
      6031      6030      6032      6034      6032      6034      6037      6038
      6032      6034      6037      6039      6032      6034      6037      6040
      6033      6032      6034      6035      6033      6032      6034      6036
      6033      6032      6034      6037      6034      6037      6040      6041
      6034      6037      6040      6042      6034      6037      6040      6043
      6035      6034      6037      6038      6035      6034      6037      6039
      6035      6034      6037      6040      6036      6034      6037      6038
      6036      6034      6037      6039      6036      6034      6037      6040
      6037      6040      6043      6044      6037      6040      6043      6045
      6037      6040      6043      6046      6038      6037      6040      6041
      6038      6037      6040      6042      6038      6037      6040      6043
      6039      6037      6040      6041      6039      6037      6040      6042
      6039      6037      6040      6043      6040      6043      6046      6047
      6040      6043      6046      6048      6040      6043      6046      6049
      6041      6040      6043      6044      6041      6040      6043      6045
      6041      6040      6043      6046      6042      6040      6043      6044
      6042      6040      6043      6045      6042      6040      6043      6046
      6043      6046      6049      6050      6043      6046      6049      6051
      6043      6046      6049      6052      6044      6043      6046      6047
      6044      6043      6046      6048      6044      6043      6046      6049
      6045      6043      6046      6047      6045      6043      6046      6048
      6045      6043      6046      6049      6046      6049      6052      6053
      6046      6049      6052      6054      6046      6049      6052      6055
      6047      6046      6049      6050      6047      6046      6049      6051
      6047      6046      6049      6052      6048      6046      6049      6050
      6048      6046      6049      6051      6048      6046      6049      6052
      6049      6052      6055      6056      6049      6052      6055      6057
      6049      6052      6055      6058      6050      6049      6052      6053
      6050      6049      6052      6054      6050      6049      6052      6055
      6051      6049      6052      6053      6051      6049      6052      6054
      6051      6049      6052      6055      6053      6052      6055      6056
      6053      6052      6055      6057      6053      6052      6055      6058
      6054      6052      6055      6056      6054      6052      6055      6057
      6054      6052      6055      6058      6059      6062      6065      6066
      6059      6062      6065      6067      6059      6062      6065      6068
      6060      6059      6062      6063      6060      6059      6062      6064
      6060      6059      6062      6065      6061      6059      6062      6063
      6061      6059      6062      6064      6061      6059      6062      6065
      6062      6065      6068      6069      6062      6065      6068      6070
      6062      6065      6068      6071      6063      6062      6065      6066
      6063      6062      6065      6067      6063      6062      6065      6068
      6064      6062      6065      6066      6064      6062      6065      6067
      6064      6062      6065      6068      6065      6068      6071      6072
      6065      6068      6071      6073      6065      6068      6071      6074
      6066      6065      6068      6069      6066      6065      6068      6070
      6066      6065      6068      6071      6067      6065      6068      6069
      6067      6065      6068      6070      6067      6065      6068      6071
      6068      6071      6074      6075      6068      6071      6074      6076
      6068      6071      6074      6077      6069      6068      6071      6072
      6069      6068      6071      6073      6069      6068      6071      6074
      6070      6068      6071      6072      6070      6068      6071      6073
      6070      6068      6071      6074      6071      6074      6077      6078
      6071      6074      6077      6079      6071      6074      6077      6080
      6072      6071      6074      6075      6072      6071      6074      6076
      6072      6071      6074      6077      6073      6071      6074      6075
      6073      6071      6074      6076      6073      6071      6074      6077
      6074      6077      6080      6081      6074      6077      6080      6082
      6074      6077      6080      6083      6075      6074      6077      6078
      6075      6074      6077      6079      6075      6074      6077      6080
      6076      6074      6077      6078      6076      6074      6077      6079
      6076      6074      6077      6080      6077      6080      6083      6084
      6077      6080      6083      6085      6077      6080      6083      6086
      6078      6077      6080      6081      6078      6077      6080      6082
      6078      6077      6080      6083      6079      6077      6080      6081
      6079      6077      6080      6082      6079      6077      6080      6083
      6080      6083      6086      6087      6080      6083      6086      6088
      6080      6083      6086      6089      6081      6080      6083      6084
      6081      6080      6083      6085      6081      6080      6083      6086
      6082      6080      6083      6084      6082      6080      6083      6085
      6082      6080      6083      6086      6083      6086      6089      6090
      6083      6086      6089      6091      6083      6086      6089      6092
      6084      6083      6086      6087      6084      6083      6086      6088
      6084      6083      6086      6089      6085      6083      6086      6087
      6085      6083      6086      6088      6085      6083      6086      6089
      6086      6089      6092      6093      6086      6089      6092      6094
      6086      6089      6092      6095      6087      6086      6089      6090
      6087      6086      6089      6091      6087      6086      6089      6092
      6088      6086      6089      6090      6088      6086      6089      6091
      6088      6086      6089      6092      6089      6092      6095      6096
      6089      6092      6095      6097      6089      6092      6095      6098
      6090      6089      6092      6093      6090      6089      6092      6094
      6090      6089      6092      6095      6091      6089      6092      6093
      6091      6089      6092      6094      6091      6089      6092      6095
      6092      6095      6098      6099      6092      6095      6098      6100
      6092      6095      6098      6101      6093      6092      6095      6096
      6093      6092      6095      6097      6093      6092      6095      6098
      6094      6092      6095      6096      6094      6092      6095      6097
      6094      6092      6095      6098      6096      6095      6098      6099
      6096      6095      6098      6100      6096      6095      6098      6101
      6097      6095      6098      6099      6097      6095      6098      6100
      6097      6095      6098      6101      6102      6103      6118      6119
      6102      6103      6118      6120      6102      6103      6118      6124
      6103      6102      6106      6107      6103      6102      6106      6108
      6103      6102      6106      6109      6103      6102      6110      6111
      6103      6102      6110      6112      6103      6102      6110      6113
      6103      6102      6114      6115      6103      6102      6114      6116
      6103      6102      6114      6117      6103      6118      6124      6121
      6104      6103      6102      6106      6104      6103      6102      6110
      6104      6103      6102      6114      6104      6103      6118      6119
      6104      6103      6118      6120      6104      6103      6118      6124
      6105      6103      6102      6106      6105      6103      6102      6110
      6105      6103      6102      6114      6105      6103      6118      6119
      6105      6103      6118      6120      6105      6103      6118      6124
      6106      6102      6103      6118      6106      6102      6110      6111
      6106      6102      6110      6112      6106      6102      6110      6113
      6106      6102      6114      6115      6106      6102      6114      6116
      6106      6102      6114      6117      6107      6106      6102      6110
      6107      6106      6102      6114      6108      6106      6102      6110
      6108      6106      6102      6114      6109      6106      6102      6110
      6109      6106      6102      6114      6110      6102      6103      6118
      6110      6102      6114      6115      6110      6102      6114      6116
      6110      6102      6114      6117      6111      6110      6102      6114
      6112      6110      6102      6114      6113      6110      6102      6114
      6114      6102      6103      6118      6118      6124      6121      6122
      6118      6124      6121      6123      6118      6124      6121      6125
      6119      6118      6124      6121      6120      6118      6124      6121
      6121      6125      6126      6127      6121      6125      6126      6128
      6121      6125      6126      6129      6122      6121      6125      6126
      6123      6121      6125      6126      6124      6121      6125      6126
      6125      6126      6129      6130      6125      6126      6129      6131
      6125      6126      6129      6137      6126      6129      6131      6132
      6126      6129      6137      6138      6126      6129      6137      6139
      6126      6129      6137      6140      6127      6126      6129      6130
      6127      6126      6129      6131      6127      6126      6129      6137
      6128      6126      6129      6130      6128      6126      6129      6131
      6128      6126      6129      6137      6129      6131      6132      6133
      6129      6131      6132      6134      6129      6137      6140      6141
      6130      6129      6131      6132      6130      6129      6137      6138
      6130      6129      6137      6139      6130      6129      6137      6140
      6131      6129      6137      6138      6131      6129      6137      6139
      6131      6129      6137      6140      6131      6132      6134      6135
      6131      6132      6134      6136      6131      6132      6134      6146
      6132      6131      6129      6137      6132      6134      6146      6147
      6132      6134      6146      6148      6132      6134      6146      6149
      6133      6132      6134      6135      6133      6132      6134      6136
      6133      6132      6134      6146      6134      6146      6149      6150
      6134      6146      6149      6151      6134      6146      6149      6152
      6135      6134      6146      6147      6135      6134      6146      6148
      6135      6134      6146      6149      6136      6134      6146      6147
      6136      6134      6146      6148      6136      6134      6146      6149
      6137      6140      6141      6142      6137      6140      6141      6143
      6138      6137      6140      6141      6139      6137      6140      6141
      6140      6141      6143      6144      6140      6141      6143      6145
      6140      6141      6143      6193      6141      6143      6193      6194
      6141      6143      6193      6195      6141      6143      6193      6196
      6142      6141      6143      6144      6142      6141      6143      6145
      6142      6141      6143      6193      6143      6193      6196      6197
      6143      6193      6196      6198      6143      6193      6196      6199
      6144      6143      6193      6194      6144      6143      6193      6195
      6144      6143      6193      6196      6145      6143      6193      6194
      6145      6143      6193      6195      6145      6143      6193      6196
      6146      6149      6152      6153      6146      6149      6152      6154
      6146      6149      6152      6155      6147      6146      6149      6150
      6147      6146      6149      6151      6147      6146      6149      6152
      6148      6146      6149      6150      6148      6146      6149      6151
      6148      6146      6149      6152      6149      6152      6155      6156
      6149      6152      6155      6157      6149      6152      6155      6158
      6150      6149      6152      6153      6150      6149      6152      6154
      6150      6149      6152      6155      6151      6149      6152      6153
      6151      6149      6152      6154      6151      6149      6152      6155
      6152      6155      6158      6159      6152      6155      6158      6160
      6152      6155      6158      6161      6153      6152      6155      6156
      6153      6152      6155      6157      6153      6152      6155      6158
      6154      6152      6155      6156      6154      6152      6155      6157
      6154      6152      6155      6158      6155      6158      6161      6162
      6155      6158      6161      6163      6155      6158      6161      6164
      6156      6155      6158      6159      6156      6155      6158      6160
      6156      6155      6158      6161      6157      6155      6158      6159
      6157      6155      6158      6160      6157      6155      6158      6161
      6158      6161      6164      6165      6158      6161      6164      6166
      6159      6158      6161      6162      6159      6158      6161      6163
      6159      6158      6161      6164      6160      6158      6161      6162
      6160      6158      6161      6163      6160      6158      6161      6164
      6161      6164      6166      6167      6161      6164      6166      6168
      6162      6161      6164      6165      6162      6161      6164      6166
      6163      6161      6164      6165      6163      6161      6164      6166
      6164      6166      6168      6169      6164      6166      6168      6170
      6164      6166      6168      6171      6165      6164      6166      6167
      6165      6164      6166      6168      6166      6168      6171      6172
      6166      6168      6171      6173      6166      6168      6171      6174
      6167      6166      6168      6169      6167      6166      6168      6170
      6167      6166      6168      6171      6168      6171      6174      6175
      6168      6171      6174      6176      6168      6171      6174      6177
      6169      6168      6171      6172      6169      6168      6171      6173
      6169      6168      6171      6174      6170      6168      6171      6172
      6170      6168      6171      6173      6170      6168      6171      6174
      6171      6174      6177      6178      6171      6174      6177      6179
      6171      6174      6177      6180      6172      6171      6174      6175
      6172      6171      6174      6176      6172      6171      6174      6177
      6173      6171      6174      6175      6173      6171      6174      6176
      6173      6171      6174      6177      6174      6177      6180      6181
      6174      6177      6180      6182      6174      6177      6180      6183
      6175      6174      6177      6178      6175      6174      6177      6179
      6175      6174      6177      6180      6176      6174      6177      6178
      6176      6174      6177      6179      6176      6174      6177      6180
      6177      6180      6183      6184      6177      6180      6183      6185
      6177      6180      6183      6186      6178      6177      6180      6181
      6178      6177      6180      6182      6178      6177      6180      6183
      6179      6177      6180      6181      6179      6177      6180      6182
      6179      6177      6180      6183      6180      6183      6186      6187
      6180      6183      6186      6188      6180      6183      6186      6189
      6181      6180      6183      6184      6181      6180      6183      6185
      6181      6180      6183      6186      6182      6180      6183      6184
      6182      6180      6183      6185      6182      6180      6183      6186
      6183      6186      6189      6190      6183      6186      6189      6191
      6183      6186      6189      6192      6184      6183      6186      6187
      6184      6183      6186      6188      6184      6183      6186      6189
      6185      6183      6186      6187      6185      6183      6186      6188
      6185      6183      6186      6189      6187      6186      6189      6190
      6187      6186      6189      6191      6187      6186      6189      6192
      6188      6186      6189      6190      6188      6186      6189      6191
      6188      6186      6189      6192      6193      6196      6199      6200
      6193      6196      6199      6201      6193      6196      6199      6202
      6194      6193      6196      6197      6194      6193      6196      6198
      6194      6193      6196      6199      6195      6193      6196      6197
      6195      6193      6196      6198      6195      6193      6196      6199
      6196      6199      6202      6203      6196      6199      6202      6204
      6196      6199      6202      6205      6197      6196      6199      6200
      6197      6196      6199      6201      6197      6196      6199      6202
      6198      6196      6199      6200      6198      6196      6199      6201
      6198      6196      6199      6202      6199      6202      6205      6206
      6199      6202      6205      6207      6199      6202      6205      6208
      6200      6199      6202      6203      6200      6199      6202      6204
      6200      6199      6202      6205      6201      6199      6202      6203
      6201      6199      6202      6204      6201      6199      6202      6205
      6202      6205      6208      6209      6202      6205      6208      6210
      6202      6205      6208      6211      6203      6202      6205      6206
      6203      6202      6205      6207      6203      6202      6205      6208
      6204      6202      6205      6206      6204      6202      6205      6207
      6204      6202      6205      6208      6205      6208      6211      6212
      6205      6208      6211      6213      6205      6208      6211      6214
      6206      6205      6208      6209      6206      6205      6208      6210
      6206      6205      6208      6211      6207      6205      6208      6209
      6207      6205      6208      6210      6207      6205      6208      6211
      6208      6211      6214      6215      6208      6211      6214      6216
      6208      6211      6214      6217      6209      6208      6211      6212
      6209      6208      6211      6213      6209      6208      6211      6214
      6210      6208      6211      6212      6210      6208      6211      6213
      6210      6208      6211      6214      6211      6214      6217      6218
      6211      6214      6217      6219      6211      6214      6217      6220
      6212      6211      6214      6215      6212      6211      6214      6216
      6212      6211      6214      6217      6213      6211      6214      6215
      6213      6211      6214      6216      6213      6211      6214      6217
      6214      6217      6220      6221      6214      6217      6220      6222
      6214      6217      6220      6223      6215      6214      6217      6218
      6215      6214      6217      6219      6215      6214      6217      6220
      6216      6214      6217      6218      6216      6214      6217      6219
      6216      6214      6217      6220      6217      6220      6223      6224
      6217      6220      6223      6225      6217      6220      6223      6226
      6218      6217      6220      6221      6218      6217      6220      6222
      6218      6217      6220      6223      6219      6217      6220      6221
      6219      6217      6220      6222      6219      6217      6220      6223
      6220      6223      6226      6227      6220      6223      6226      6228
      6220      6223      6226      6229      6221      6220      6223      6224
      6221      6220      6223      6225      6221      6220      6223      6226
      6222      6220      6223      6224      6222      6220      6223      6225
      6222      6220      6223      6226      6223      6226      6229      6230
      6223      6226      6229      6231      6223      6226      6229      6232
      6224      6223      6226      6227      6224      6223      6226      6228
      6224      6223      6226      6229      6225      6223      6226      6227
      6225      6223      6226      6228      6225      6223      6226      6229
      6226      6229      6232      6233      6226      6229      6232      6234
      6226      6229      6232      6235      6227      6226      6229      6230
      6227      6226      6229      6231      6227      6226      6229      6232
      6228      6226      6229      6230      6228      6226      6229      6231
      6228      6226      6229      6232      6230      6229      6232      6233
      6230      6229      6232      6234      6230      6229      6232      6235
      6231      6229      6232      6233      6231      6229      6232      6234
      6231      6229      6232      6235      6236      6237      6252      6253
      6236      6237      6252      6254      6236      6237      6252      6258
      6237      6236      6240      6241      6237      6236      6240      6242
      6237      6236      6240      6243      6237      6236      6244      6245
      6237      6236      6244      6246      6237      6236      6244      6247
      6237      6236      6248      6249      6237      6236      6248      6250
      6237      6236      6248      6251      6237      6252      6258      6255
      6238      6237      6236      6240      6238      6237      6236      6244
      6238      6237      6236      6248      6238      6237      6252      6253
      6238      6237      6252      6254      6238      6237      6252      6258
      6239      6237      6236      6240      6239      6237      6236      6244
      6239      6237      6236      6248      6239      6237      6252      6253
      6239      6237      6252      6254      6239      6237      6252      6258
      6240      6236      6237      6252      6240      6236      6244      6245
      6240      6236      6244      6246      6240      6236      6244      6247
      6240      6236      6248      6249      6240      6236      6248      6250
      6240      6236      6248      6251      6241      6240      6236      6244
      6241      6240      6236      6248      6242      6240      6236      6244
      6242      6240      6236      6248      6243      6240      6236      6244
      6243      6240      6236      6248      6244      6236      6237      6252
      6244      6236      6248      6249      6244      6236      6248      6250
      6244      6236      6248      6251      6245      6244      6236      6248
      6246      6244      6236      6248      6247      6244      6236      6248
      6248      6236      6237      6252      6252      6258      6255      6256
      6252      6258      6255      6257      6252      6258      6255      6259
      6253      6252      6258      6255      6254      6252      6258      6255
      6255      6259      6260      6261      6255      6259      6260      6262
      6255      6259      6260      6263      6256      6255      6259      6260
      6257      6255      6259      6260      6258      6255      6259      6260
      6259      6260      6263      6264      6259      6260      6263      6265
      6259      6260      6263      6271      6260      6263      6265      6266
      6260      6263      6271      6272      6260      6263      6271      6273
      6260      6263      6271      6274      6261      6260      6263      6264
      6261      6260      6263      6265      6261      6260      6263      6271
      6262      6260      6263      6264      6262      6260      6263      6265
      6262      6260      6263      6271      6263      6265      6266      6267
      6263      6265      6266      6268      6263      6271      6274      6275
      6264      6263      6265      6266      6264      6263      6271      6272
      6264      6263      6271      6273      6264      6263      6271      6274
      6265      6263      6271      6272      6265      6263      6271      6273
      6265      6263      6271      6274      6265      6266      6268      6269
      6265      6266      6268      6270      6265      6266      6268      6280
      6266      6265      6263      6271      6266      6268      6280      6281
      6266      6268      6280      6282      6266      6268      6280      6283
      6267      6266      6268      6269      6267      6266      6268      6270
      6267      6266      6268      6280      6268      6280      6283      6284
      6268      6280      6283      6285      6268      6280      6283      6286
      6269      6268      6280      6281      6269      6268      6280      6282
      6269      6268      6280      6283      6270      6268      6280      6281
      6270      6268      6280      6282      6270      6268      6280      6283
      6271      6274      6275      6276      6271      6274      6275      6277
      6272      6271      6274      6275      6273      6271      6274      6275
      6274      6275      6277      6278      6274      6275      6277      6279
      6274      6275      6277      6327      6275      6277      6327      6328
      6275      6277      6327      6329      6275      6277      6327      6330
      6276      6275      6277      6278      6276      6275      6277      6279
      6276      6275      6277      6327      6277      6327      6330      6331
      6277      6327      6330      6332      6277      6327      6330      6333
      6278      6277      6327      6328      6278      6277      6327      6329
      6278      6277      6327      6330      6279      6277      6327      6328
      6279      6277      6327      6329      6279      6277      6327      6330
      6280      6283      6286      6287      6280      6283      6286      6288
      6280      6283      6286      6289      6281      6280      6283      6284
      6281      6280      6283      6285      6281      6280      6283      6286
      6282      6280      6283      6284      6282      6280      6283      6285
      6282      6280      6283      6286      6283      6286      6289      6290
      6283      6286      6289      6291      6283      6286      6289      6292
      6284      6283      6286      6287      6284      6283      6286      6288
      6284      6283      6286      6289      6285      6283      6286      6287
      6285      6283      6286      6288      6285      6283      6286      6289
      6286      6289      6292      6293      6286      6289      6292      6294
      6286      6289      6292      6295      6287      6286      6289      6290
      6287      6286      6289      6291      6287      6286      6289      6292
      6288      6286      6289      6290      6288      6286      6289      6291
      6288      6286      6289      6292      6289      6292      6295      6296
      6289      6292      6295      6297      6289      6292      6295      6298
      6290      6289      6292      6293      6290      6289      6292      6294
      6290      6289      6292      6295      6291      6289      6292      6293
      6291      6289      6292      6294      6291      6289      6292      6295
      6292      6295      6298      6299      6292      6295      6298      6300
      6293      6292      6295      6296      6293      6292      6295      6297
      6293      6292      6295      6298      6294      6292      6295      6296
      6294      6292      6295      6297      6294      6292      6295      6298
      6295      6298      6300      6301      6295      6298      6300      6302
      6296      6295      6298      6299      6296      6295      6298      6300
      6297      6295      6298      6299      6297      6295      6298      6300
      6298      6300      6302      6303      6298      6300      6302      6304
      6298      6300      6302      6305      6299      6298      6300      6301
      6299      6298      6300      6302      6300      6302      6305      6306
      6300      6302      6305      6307      6300      6302      6305      6308
      6301      6300      6302      6303      6301      6300      6302      6304
      6301      6300      6302      6305      6302      6305      6308      6309
      6302      6305      6308      6310      6302      6305      6308      6311
      6303      6302      6305      6306      6303      6302      6305      6307
      6303      6302      6305      6308      6304      6302      6305      6306
      6304      6302      6305      6307      6304      6302      6305      6308
      6305      6308      6311      6312      6305      6308      6311      6313
      6305      6308      6311      6314      6306      6305      6308      6309
      6306      6305      6308      6310      6306      6305      6308      6311
      6307      6305      6308      6309      6307      6305      6308      6310
      6307      6305      6308      6311      6308      6311      6314      6315
      6308      6311      6314      6316      6308      6311      6314      6317
      6309      6308      6311      6312      6309      6308      6311      6313
      6309      6308      6311      6314      6310      6308      6311      6312
      6310      6308      6311      6313      6310      6308      6311      6314
      6311      6314      6317      6318      6311      6314      6317      6319
      6311      6314      6317      6320      6312      6311      6314      6315
      6312      6311      6314      6316      6312      6311      6314      6317
      6313      6311      6314      6315      6313      6311      6314      6316
      6313      6311      6314      6317      6314      6317      6320      6321
      6314      6317      6320      6322      6314      6317      6320      6323
      6315      6314      6317      6318      6315      6314      6317      6319
      6315      6314      6317      6320      6316      6314      6317      6318
      6316      6314      6317      6319      6316      6314      6317      6320
      6317      6320      6323      6324      6317      6320      6323      6325
      6317      6320      6323      6326      6318      6317      6320      6321
      6318      6317      6320      6322      6318      6317      6320      6323
      6319      6317      6320      6321      6319      6317      6320      6322
      6319      6317      6320      6323      6321      6320      6323      6324
      6321      6320      6323      6325      6321      6320      6323      6326
      6322      6320      6323      6324      6322      6320      6323      6325
      6322      6320      6323      6326      6327      6330      6333      6334
      6327      6330      6333      6335      6327      6330      6333      6336
      6328      6327      6330      6331      6328      6327      6330      6332
      6328      6327      6330      6333      6329      6327      6330      6331
      6329      6327      6330      6332      6329      6327      6330      6333
      6330      6333      6336      6337      6330      6333      6336      6338
      6330      6333      6336      6339      6331      6330      6333      6334
      6331      6330      6333      6335      6331      6330      6333      6336
      6332      6330      6333      6334      6332      6330      6333      6335
      6332      6330      6333      6336      6333      6336      6339      6340
      6333      6336      6339      6341      6333      6336      6339      6342
      6334      6333      6336      6337      6334      6333      6336      6338
      6334      6333      6336      6339      6335      6333      6336      6337
      6335      6333      6336      6338      6335      6333      6336      6339
      6336      6339      6342      6343      6336      6339      6342      6344
      6336      6339      6342      6345      6337      6336      6339      6340
      6337      6336      6339      6341      6337      6336      6339      6342
      6338      6336      6339      6340      6338      6336      6339      6341
      6338      6336      6339      6342      6339      6342      6345      6346
      6339      6342      6345      6347      6339      6342      6345      6348
      6340      6339      6342      6343      6340      6339      6342      6344
      6340      6339      6342      6345      6341      6339      6342      6343
      6341      6339      6342      6344      6341      6339      6342      6345
      6342      6345      6348      6349      6342      6345      6348      6350
      6342      6345      6348      6351      6343      6342      6345      6346
      6343      6342      6345      6347      6343      6342      6345      6348
      6344      6342      6345      6346      6344      6342      6345      6347
      6344      6342      6345      6348      6345      6348      6351      6352
      6345      6348      6351      6353      6345      6348      6351      6354
      6346      6345      6348      6349      6346      6345      6348      6350
      6346      6345      6348      6351      6347      6345      6348      6349
      6347      6345      6348      6350      6347      6345      6348      6351
      6348      6351      6354      6355      6348      6351      6354      6356
      6348      6351      6354      6357      6349      6348      6351      6352
      6349      6348      6351      6353      6349      6348      6351      6354
      6350      6348      6351      6352      6350      6348      6351      6353
      6350      6348      6351      6354      6351      6354      6357      6358
      6351      6354      6357      6359      6351      6354      6357      6360
      6352      6351      6354      6355      6352      6351      6354      6356
      6352      6351      6354      6357      6353      6351      6354      6355
      6353      6351      6354      6356      6353      6351      6354      6357
      6354      6357      6360      6361      6354      6357      6360      6362
      6354      6357      6360      6363      6355      6354      6357      6358
      6355      6354      6357      6359      6355      6354      6357      6360
      6356      6354      6357      6358      6356      6354      6357      6359
      6356      6354      6357      6360      6357      6360      6363      6364
      6357      6360      6363      6365      6357      6360      6363      6366
      6358      6357      6360      6361      6358      6357      6360      6362
      6358      6357      6360      6363      6359      6357      6360      6361
      6359      6357      6360      6362      6359      6357      6360      6363
      6360      6363      6366      6367      6360      6363      6366      6368
      6360      6363      6366      6369      6361      6360      6363      6364
      6361      6360      6363      6365      6361      6360      6363      6366
      6362      6360      6363      6364      6362      6360      6363      6365
      6362      6360      6363      6366      6364      6363      6366      6367
      6364      6363      6366      6368      6364      6363      6366      6369
      6365      6363      6366      6367      6365      6363      6366      6368
      6365      6363      6366      6369      6370      6371      6386      6387
      6370      6371      6386      6388      6370      6371      6386      6392
      6371      6370      6374      6375      6371      6370      6374      6376
      6371      6370      6374      6377      6371      6370      6378      6379
      6371      6370      6378      6380      6371      6370      6378      6381
      6371      6370      6382      6383      6371      6370      6382      6384
      6371      6370      6382      6385      6371      6386      6392      6389
      6372      6371      6370      6374      6372      6371      6370      6378
      6372      6371      6370      6382      6372      6371      6386      6387
      6372      6371      6386      6388      6372      6371      6386      6392
      6373      6371      6370      6374      6373      6371      6370      6378
      6373      6371      6370      6382      6373      6371      6386      6387
      6373      6371      6386      6388      6373      6371      6386      6392
      6374      6370      6371      6386      6374      6370      6378      6379
      6374      6370      6378      6380      6374      6370      6378      6381
      6374      6370      6382      6383      6374      6370      6382      6384
      6374      6370      6382      6385      6375      6374      6370      6378
      6375      6374      6370      6382      6376      6374      6370      6378
      6376      6374      6370      6382      6377      6374      6370      6378
      6377      6374      6370      6382      6378      6370      6371      6386
      6378      6370      6382      6383      6378      6370      6382      6384
      6378      6370      6382      6385      6379      6378      6370      6382
      6380      6378      6370      6382      6381      6378      6370      6382
      6382      6370      6371      6386      6386      6392      6389      6390
      6386      6392      6389      6391      6386      6392      6389      6393
      6387      6386      6392      6389      6388      6386      6392      6389
      6389      6393      6394      6395      6389      6393      6394      6396
      6389      6393      6394      6397      6390      6389      6393      6394
      6391      6389      6393      6394      6392      6389      6393      6394
      6393      6394      6397      6398      6393      6394      6397      6399
      6393      6394      6397      6405      6394      6397      6399      6400
      6394      6397      6405      6406      6394      6397      6405      6407
      6394      6397      6405      6408      6395      6394      6397      6398
      6395      6394      6397      6399      6395      6394      6397      6405
      6396      6394      6397      6398      6396      6394      6397      6399
      6396      6394      6397      6405      6397      6399      6400      6401
      6397      6399      6400      6402      6397      6405      6408      6409
      6398      6397      6399      6400      6398      6397      6405      6406
      6398      6397      6405      6407      6398      6397      6405      6408
      6399      6397      6405      6406      6399      6397      6405      6407
      6399      6397      6405      6408      6399      6400      6402      6403
      6399      6400      6402      6404      6399      6400      6402      6414
      6400      6399      6397      6405      6400      6402      6414      6415
      6400      6402      6414      6416      6400      6402      6414      6417
      6401      6400      6402      6403      6401      6400      6402      6404
      6401      6400      6402      6414      6402      6414      6417      6418
      6402      6414      6417      6419      6402      6414      6417      6420
      6403      6402      6414      6415      6403      6402      6414      6416
      6403      6402      6414      6417      6404      6402      6414      6415
      6404      6402      6414      6416      6404      6402      6414      6417
      6405      6408      6409      6410      6405      6408      6409      6411
      6406      6405      6408      6409      6407      6405      6408      6409
      6408      6409      6411      6412      6408      6409      6411      6413
      6408      6409      6411      6461      6409      6411      6461      6462
      6409      6411      6461      6463      6409      6411      6461      6464
      6410      6409      6411      6412      6410      6409      6411      6413
      6410      6409      6411      6461      6411      6461      6464      6465
      6411      6461      6464      6466      6411      6461      6464      6467
      6412      6411      6461      6462      6412      6411      6461      6463
      6412      6411      6461      6464      6413      6411      6461      6462
      6413      6411      6461      6463      6413      6411      6461      6464
      6414      6417      6420      6421      6414      6417      6420      6422
      6414      6417      6420      6423      6415      6414      6417      6418
      6415      6414      6417      6419      6415      6414      6417      6420
      6416      6414      6417      6418      6416      6414      6417      6419
      6416      6414      6417      6420      6417      6420      6423      6424
      6417      6420      6423      6425      6417      6420      6423      6426
      6418      6417      6420      6421      6418      6417      6420      6422
      6418      6417      6420      6423      6419      6417      6420      6421
      6419      6417      6420      6422      6419      6417      6420      6423
      6420      6423      6426      6427      6420      6423      6426      6428
      6420      6423      6426      6429      6421      6420      6423      6424
      6421      6420      6423      6425      6421      6420      6423      6426
      6422      6420      6423      6424      6422      6420      6423      6425
      6422      6420      6423      6426      6423      6426      6429      6430
      6423      6426      6429      6431      6423      6426      6429      6432
      6424      6423      6426      6427      6424      6423      6426      6428
      6424      6423      6426      6429      6425      6423      6426      6427
      6425      6423      6426      6428      6425      6423      6426      6429
      6426      6429      6432      6433      6426      6429      6432      6434
      6427      6426      6429      6430      6427      6426      6429      6431
      6427      6426      6429      6432      6428      6426      6429      6430
      6428      6426      6429      6431      6428      6426      6429      6432
      6429      6432      6434      6435      6429      6432      6434      6436
      6430      6429      6432      6433      6430      6429      6432      6434
      6431      6429      6432      6433      6431      6429      6432      6434
      6432      6434      6436      6437      6432      6434      6436      6438
      6432      6434      6436      6439      6433      6432      6434      6435
      6433      6432      6434      6436      6434      6436      6439      6440
      6434      6436      6439      6441      6434      6436      6439      6442
      6435      6434      6436      6437      6435      6434      6436      6438
      6435      6434      6436      6439      6436      6439      6442      6443
      6436      6439      6442      6444      6436      6439      6442      6445
      6437      6436      6439      6440      6437      6436      6439      6441
      6437      6436      6439      6442      6438      6436      6439      6440
      6438      6436      6439      6441      6438      6436      6439      6442
      6439      6442      6445      6446      6439      6442      6445      6447
      6439      6442      6445      6448      6440      6439      6442      6443
      6440      6439      6442      6444      6440      6439      6442      6445
      6441      6439      6442      6443      6441      6439      6442      6444
      6441      6439      6442      6445      6442      6445      6448      6449
      6442      6445      6448      6450      6442      6445      6448      6451
      6443      6442      6445      6446      6443      6442      6445      6447
      6443      6442      6445      6448      6444      6442      6445      6446
      6444      6442      6445      6447      6444      6442      6445      6448
      6445      6448      6451      6452      6445      6448      6451      6453
      6445      6448      6451      6454      6446      6445      6448      6449
      6446      6445      6448      6450      6446      6445      6448      6451
      6447      6445      6448      6449      6447      6445      6448      6450
      6447      6445      6448      6451      6448      6451      6454      6455
      6448      6451      6454      6456      6448      6451      6454      6457
      6449      6448      6451      6452      6449      6448      6451      6453
      6449      6448      6451      6454      6450      6448      6451      6452
      6450      6448      6451      6453      6450      6448      6451      6454
      6451      6454      6457      6458      6451      6454      6457      6459
      6451      6454      6457      6460      6452      6451      6454      6455
      6452      6451      6454      6456      6452      6451      6454      6457
      6453      6451      6454      6455      6453      6451      6454      6456
      6453      6451      6454      6457      6455      6454      6457      6458
      6455      6454      6457      6459      6455      6454      6457      6460
      6456      6454      6457      6458      6456      6454      6457      6459
      6456      6454      6457      6460      6461      6464      6467      6468
      6461      6464      6467      6469      6461      6464      6467      6470
      6462      6461      6464      6465      6462      6461      6464      6466
      6462      6461      6464      6467      6463      6461      6464      6465
      6463      6461      6464      6466      6463      6461      6464      6467
      6464      6467      6470      6471      6464      6467      6470      6472
      6464      6467      6470      6473      6465      6464      6467      6468
      6465      6464      6467      6469      6465      6464      6467      6470
      6466      6464      6467      6468      6466      6464      6467      6469
      6466      6464      6467      6470      6467      6470      6473      6474
      6467      6470      6473      6475      6467      6470      6473      6476
      6468      6467      6470      6471      6468      6467      6470      6472
      6468      6467      6470      6473      6469      6467      6470      6471
      6469      6467      6470      6472      6469      6467      6470      6473
      6470      6473      6476      6477      6470      6473      6476      6478
      6470      6473      6476      6479      6471      6470      6473      6474
      6471      6470      6473      6475      6471      6470      6473      6476
      6472      6470      6473      6474      6472      6470      6473      6475
      6472      6470      6473      6476      6473      6476      6479      6480
      6473      6476      6479      6481      6473      6476      6479      6482
      6474      6473      6476      6477      6474      6473      6476      6478
      6474      6473      6476      6479      6475      6473      6476      6477
      6475      6473      6476      6478      6475      6473      6476      6479
      6476      6479      6482      6483      6476      6479      6482      6484
      6476      6479      6482      6485      6477      6476      6479      6480
      6477      6476      6479      6481      6477      6476      6479      6482
      6478      6476      6479      6480      6478      6476      6479      6481
      6478      6476      6479      6482      6479      6482      6485      6486
      6479      6482      6485      6487      6479      6482      6485      6488
      6480      6479      6482      6483      6480      6479      6482      6484
      6480      6479      6482      6485      6481      6479      6482      6483
      6481      6479      6482      6484      6481      6479      6482      6485
      6482      6485      6488      6489      6482      6485      6488      6490
      6482      6485      6488      6491      6483      6482      6485      6486
      6483      6482      6485      6487      6483      6482      6485      6488
      6484      6482      6485      6486      6484      6482      6485      6487
      6484      6482      6485      6488      6485      6488      6491      6492
      6485      6488      6491      6493      6485      6488      6491      6494
      6486      6485      6488      6489      6486      6485      6488      6490
      6486      6485      6488      6491      6487      6485      6488      6489
      6487      6485      6488      6490      6487      6485      6488      6491
      6488      6491      6494      6495      6488      6491      6494      6496
      6488      6491      6494      6497      6489      6488      6491      6492
      6489      6488      6491      6493      6489      6488      6491      6494
      6490      6488      6491      6492      6490      6488      6491      6493
      6490      6488      6491      6494      6491      6494      6497      6498
      6491      6494      6497      6499      6491      6494      6497      6500
      6492      6491      6494      6495      6492      6491      6494      6496
      6492      6491      6494      6497      6493      6491      6494      6495
      6493      6491      6494      6496      6493      6491      6494      6497
      6494      6497      6500      6501      6494      6497      6500      6502
      6494      6497      6500      6503      6495      6494      6497      6498
      6495      6494      6497      6499      6495      6494      6497      6500
      6496      6494      6497      6498      6496      6494      6497      6499
      6496      6494      6497      6500      6498      6497      6500      6501
      6498      6497      6500      6502      6498      6497      6500      6503
      6499      6497      6500      6501      6499      6497      6500      6502
      6499      6497      6500      6503      6504      6505      6520      6521
      6504      6505      6520      6522      6504      6505      6520      6526
      6505      6504      6508      6509      6505      6504      6508      6510
      6505      6504      6508      6511      6505      6504      6512      6513
      6505      6504      6512      6514      6505      6504      6512      6515
      6505      6504      6516      6517      6505      6504      6516      6518
      6505      6504      6516      6519      6505      6520      6526      6523
      6506      6505      6504      6508      6506      6505      6504      6512
      6506      6505      6504      6516      6506      6505      6520      6521
      6506      6505      6520      6522      6506      6505      6520      6526
      6507      6505      6504      6508      6507      6505      6504      6512
      6507      6505      6504      6516      6507      6505      6520      6521
      6507      6505      6520      6522      6507      6505      6520      6526
      6508      6504      6505      6520      6508      6504      6512      6513
      6508      6504      6512      6514      6508      6504      6512      6515
      6508      6504      6516      6517      6508      6504      6516      6518
      6508      6504      6516      6519      6509      6508      6504      6512
      6509      6508      6504      6516      6510      6508      6504      6512
      6510      6508      6504      6516      6511      6508      6504      6512
      6511      6508      6504      6516      6512      6504      6505      6520
      6512      6504      6516      6517      6512      6504      6516      6518
      6512      6504      6516      6519      6513      6512      6504      6516
      6514      6512      6504      6516      6515      6512      6504      6516
      6516      6504      6505      6520      6520      6526      6523      6524
      6520      6526      6523      6525      6520      6526      6523      6527
      6521      6520      6526      6523      6522      6520      6526      6523
      6523      6527      6528      6529      6523      6527      6528      6530
      6523      6527      6528      6531      6524      6523      6527      6528
      6525      6523      6527      6528      6526      6523      6527      6528
      6527      6528      6531      6532      6527      6528      6531      6533
      6527      6528      6531      6539      6528      6531      6533      6534
      6528      6531      6539      6540      6528      6531      6539      6541
      6528      6531      6539      6542      6529      6528      6531      6532
      6529      6528      6531      6533      6529      6528      6531      6539
      6530      6528      6531      6532      6530      6528      6531      6533
      6530      6528      6531      6539      6531      6533      6534      6535
      6531      6533      6534      6536      6531      6539      6542      6543
      6532      6531      6533      6534      6532      6531      6539      6540
      6532      6531      6539      6541      6532      6531      6539      6542
      6533      6531      6539      6540      6533      6531      6539      6541
      6533      6531      6539      6542      6533      6534      6536      6537
      6533      6534      6536      6538      6533      6534      6536      6548
      6534      6533      6531      6539      6534      6536      6548      6549
      6534      6536      6548      6550      6534      6536      6548      6551
      6535      6534      6536      6537      6535      6534      6536      6538
      6535      6534      6536      6548      6536      6548      6551      6552
      6536      6548      6551      6553      6536      6548      6551      6554
      6537      6536      6548      6549      6537      6536      6548      6550
      6537      6536      6548      6551      6538      6536      6548      6549
      6538      6536      6548      6550      6538      6536      6548      6551
      6539      6542      6543      6544      6539      6542      6543      6545
      6540      6539      6542      6543      6541      6539      6542      6543
      6542      6543      6545      6546      6542      6543      6545      6547
      6542      6543      6545      6595      6543      6545      6595      6596
      6543      6545      6595      6597      6543      6545      6595      6598
      6544      6543      6545      6546      6544      6543      6545      6547
      6544      6543      6545      6595      6545      6595      6598      6599
      6545      6595      6598      6600      6545      6595      6598      6601
      6546      6545      6595      6596      6546      6545      6595      6597
      6546      6545      6595      6598      6547      6545      6595      6596
      6547      6545      6595      6597      6547      6545      6595      6598
      6548      6551      6554      6555      6548      6551      6554      6556
      6548      6551      6554      6557      6549      6548      6551      6552
      6549      6548      6551      6553      6549      6548      6551      6554
      6550      6548      6551      6552      6550      6548      6551      6553
      6550      6548      6551      6554      6551      6554      6557      6558
      6551      6554      6557      6559      6551      6554      6557      6560
      6552      6551      6554      6555      6552      6551      6554      6556
      6552      6551      6554      6557      6553      6551      6554      6555
      6553      6551      6554      6556      6553      6551      6554      6557
      6554      6557      6560      6561      6554      6557      6560      6562
      6554      6557      6560      6563      6555      6554      6557      6558
      6555      6554      6557      6559      6555      6554      6557      6560
      6556      6554      6557      6558      6556      6554      6557      6559
      6556      6554      6557      6560      6557      6560      6563      6564
      6557      6560      6563      6565      6557      6560      6563      6566
      6558      6557      6560      6561      6558      6557      6560      6562
      6558      6557      6560      6563      6559      6557      6560      6561
      6559      6557      6560      6562      6559      6557      6560      6563
      6560      6563      6566      6567      6560      6563      6566      6568
      6561      6560      6563      6564      6561      6560      6563      6565
      6561      6560      6563      6566      6562      6560      6563      6564
      6562      6560      6563      6565      6562      6560      6563      6566
      6563      6566      6568      6569      6563      6566      6568      6570
      6564      6563      6566      6567      6564      6563      6566      6568
      6565      6563      6566      6567      6565      6563      6566      6568
      6566      6568      6570      6571      6566      6568      6570      6572
      6566      6568      6570      6573      6567      6566      6568      6569
      6567      6566      6568      6570      6568      6570      6573      6574
      6568      6570      6573      6575      6568      6570      6573      6576
      6569      6568      6570      6571      6569      6568      6570      6572
      6569      6568      6570      6573      6570      6573      6576      6577
      6570      6573      6576      6578      6570      6573      6576      6579
      6571      6570      6573      6574      6571      6570      6573      6575
      6571      6570      6573      6576      6572      6570      6573      6574
      6572      6570      6573      6575      6572      6570      6573      6576
      6573      6576      6579      6580      6573      6576      6579      6581
      6573      6576      6579      6582      6574      6573      6576      6577
      6574      6573      6576      6578      6574      6573      6576      6579
      6575      6573      6576      6577      6575      6573      6576      6578
      6575      6573      6576      6579      6576      6579      6582      6583
      6576      6579      6582      6584      6576      6579      6582      6585
      6577      6576      6579      6580      6577      6576      6579      6581
      6577      6576      6579      6582      6578      6576      6579      6580
      6578      6576      6579      6581      6578      6576      6579      6582
      6579      6582      6585      6586      6579      6582      6585      6587
      6579      6582      6585      6588      6580      6579      6582      6583
      6580      6579      6582      6584      6580      6579      6582      6585
      6581      6579      6582      6583      6581      6579      6582      6584
      6581      6579      6582      6585      6582      6585      6588      6589
      6582      6585      6588      6590      6582      6585      6588      6591
      6583      6582      6585      6586      6583      6582      6585      6587
      6583      6582      6585      6588      6584      6582      6585      6586
      6584      6582      6585      6587      6584      6582      6585      6588
      6585      6588      6591      6592      6585      6588      6591      6593
      6585      6588      6591      6594      6586      6585      6588      6589
      6586      6585      6588      6590      6586      6585      6588      6591
      6587      6585      6588      6589      6587      6585      6588      6590
      6587      6585      6588      6591      6589      6588      6591      6592
      6589      6588      6591      6593      6589      6588      6591      6594
      6590      6588      6591      6592      6590      6588      6591      6593
      6590      6588      6591      6594      6595      6598      6601      6602
      6595      6598      6601      6603      6595      6598      6601      6604
      6596      6595      6598      6599      6596      6595      6598      6600
      6596      6595      6598      6601      6597      6595      6598      6599
      6597      6595      6598      6600      6597      6595      6598      6601
      6598      6601      6604      6605      6598      6601      6604      6606
      6598      6601      6604      6607      6599      6598      6601      6602
      6599      6598      6601      6603      6599      6598      6601      6604
      6600      6598      6601      6602      6600      6598      6601      6603
      6600      6598      6601      6604      6601      6604      6607      6608
      6601      6604      6607      6609      6601      6604      6607      6610
      6602      6601      6604      6605      6602      6601      6604      6606
      6602      6601      6604      6607      6603      6601      6604      6605
      6603      6601      6604      6606      6603      6601      6604      6607
      6604      6607      6610      6611      6604      6607      6610      6612
      6604      6607      6610      6613      6605      6604      6607      6608
      6605      6604      6607      6609      6605      6604      6607      6610
      6606      6604      6607      6608      6606      6604      6607      6609
      6606      6604      6607      6610      6607      6610      6613      6614
      6607      6610      6613      6615      6607      6610      6613      6616
      6608      6607      6610      6611      6608      6607      6610      6612
      6608      6607      6610      6613      6609      6607      6610      6611
      6609      6607      6610      6612      6609      6607      6610      6613
      6610      6613      6616      6617      6610      6613      6616      6618
      6610      6613      6616      6619      6611      6610      6613      6614
      6611      6610      6613      6615      6611      6610      6613      6616
      6612      6610      6613      6614      6612      6610      6613      6615
      6612      6610      6613      6616      6613      6616      6619      6620
      6613      6616      6619      6621      6613      6616      6619      6622
      6614      6613      6616      6617      6614      6613      6616      6618
      6614      6613      6616      6619      6615      6613      6616      6617
      6615      6613      6616      6618      6615      6613      6616      6619
      6616      6619      6622      6623      6616      6619      6622      6624
      6616      6619      6622      6625      6617      6616      6619      6620
      6617      6616      6619      6621      6617      6616      6619      6622
      6618      6616      6619      6620      6618      6616      6619      6621
      6618      6616      6619      6622      6619      6622      6625      6626
      6619      6622      6625      6627      6619      6622      6625      6628
      6620      6619      6622      6623      6620      6619      6622      6624
      6620      6619      6622      6625      6621      6619      6622      6623
      6621      6619      6622      6624      6621      6619      6622      6625
      6622      6625      6628      6629      6622      6625      6628      6630
      6622      6625      6628      6631      6623      6622      6625      6626
      6623      6622      6625      6627      6623      6622      6625      6628
      6624      6622      6625      6626      6624      6622      6625      6627
      6624      6622      6625      6628      6625      6628      6631      6632
      6625      6628      6631      6633      6625      6628      6631      6634
      6626      6625      6628      6629      6626      6625      6628      6630
      6626      6625      6628      6631      6627      6625      6628      6629
      6627      6625      6628      6630      6627      6625      6628      6631
      6628      6631      6634      6635      6628      6631      6634      6636
      6628      6631      6634      6637      6629      6628      6631      6632
      6629      6628      6631      6633      6629      6628      6631      6634
      6630      6628      6631      6632      6630      6628      6631      6633
      6630      6628      6631      6634      6632      6631      6634      6635
      6632      6631      6634      6636      6632      6631      6634      6637
      6633      6631      6634      6635      6633      6631      6634      6636
      6633      6631      6634      6637      6638      6639      6654      6655
      6638      6639      6654      6656      6638      6639      6654      6660
      6639      6638      6642      6643      6639      6638      6642      6644
      6639      6638      6642      6645      6639      6638      6646      6647
      6639      6638      6646      6648      6639      6638      6646      6649
      6639      6638      6650      6651      6639      6638      6650      6652
      6639      6638      6650      6653      6639      6654      6660      6657
      6640      6639      6638      6642      6640      6639      6638      6646
      6640      6639      6638      6650      6640      6639      6654      6655
      6640      6639      6654      6656      6640      6639      6654      6660
      6641      6639      6638      6642      6641      6639      6638      6646
      6641      6639      6638      6650      6641      6639      6654      6655
      6641      6639      6654      6656      6641      6639      6654      6660
      6642      6638      6639      6654      6642      6638      6646      6647
      6642      6638      6646      6648      6642      6638      6646      6649
      6642      6638      6650      6651      6642      6638      6650      6652
      6642      6638      6650      6653      6643      6642      6638      6646
      6643      6642      6638      6650      6644      6642      6638      6646
      6644      6642      6638      6650      6645      6642      6638      6646
      6645      6642      6638      6650      6646      6638      6639      6654
      6646      6638      6650      6651      6646      6638      6650      6652
      6646      6638      6650      6653      6647      6646      6638      6650
      6648      6646      6638      6650      6649      6646      6638      6650
      6650      6638      6639      6654      6654      6660      6657      6658
      6654      6660      6657      6659      6654      6660      6657      6661
      6655      6654      6660      6657      6656      6654      6660      6657
      6657      6661      6662      6663      6657      6661      6662      6664
      6657      6661      6662      6665      6658      6657      6661      6662
      6659      6657      6661      6662      6660      6657      6661      6662
      6661      6662      6665      6666      6661      6662      6665      6667
      6661      6662      6665      6673      6662      6665      6667      6668
      6662      6665      6673      6674      6662      6665      6673      6675
      6662      6665      6673      6676      6663      6662      6665      6666
      6663      6662      6665      6667      6663      6662      6665      6673
      6664      6662      6665      6666      6664      6662      6665      6667
      6664      6662      6665      6673      6665      6667      6668      6669
      6665      6667      6668      6670      6665      6673      6676      6677
      6666      6665      6667      6668      6666      6665      6673      6674
      6666      6665      6673      6675      6666      6665      6673      6676
      6667      6665      6673      6674      6667      6665      6673      6675
      6667      6665      6673      6676      6667      6668      6670      6671
      6667      6668      6670      6672      6667      6668      6670      6682
      6668      6667      6665      6673      6668      6670      6682      6683
      6668      6670      6682      6684      6668      6670      6682      6685
      6669      6668      6670      6671      6669      6668      6670      6672
      6669      6668      6670      6682      6670      6682      6685      6686
      6670      6682      6685      6687      6670      6682      6685      6688
      6671      6670      6682      6683      6671      6670      6682      6684
      6671      6670      6682      6685      6672      6670      6682      6683
      6672      6670      6682      6684      6672      6670      6682      6685
      6673      6676      6677      6678      6673      6676      6677      6679
      6674      6673      6676      6677      6675      6673      6676      6677
      6676      6677      6679      6680      6676      6677      6679      6681
      6676      6677      6679      6729      6677      6679      6729      6730
      6677      6679      6729      6731      6677      6679      6729      6732
      6678      6677      6679      6680      6678      6677      6679      6681
      6678      6677      6679      6729      6679      6729      6732      6733
      6679      6729      6732      6734      6679      6729      6732      6735
      6680      6679      6729      6730      6680      6679      6729      6731
      6680      6679      6729      6732      6681      6679      6729      6730
      6681      6679      6729      6731      6681      6679      6729      6732
      6682      6685      6688      6689      6682      6685      6688      6690
      6682      6685      6688      6691      6683      6682      6685      6686
      6683      6682      6685      6687      6683      6682      6685      6688
      6684      6682      6685      6686      6684      6682      6685      6687
      6684      6682      6685      6688      6685      6688      6691      6692
      6685      6688      6691      6693      6685      6688      6691      6694
      6686      6685      6688      6689      6686      6685      6688      6690
      6686      6685      6688      6691      6687      6685      6688      6689
      6687      6685      6688      6690      6687      6685      6688      6691
      6688      6691      6694      6695      6688      6691      6694      6696
      6688      6691      6694      6697      6689      6688      6691      6692
      6689      6688      6691      6693      6689      6688      6691      6694
      6690      6688      6691      6692      6690      6688      6691      6693
      6690      6688      6691      6694      6691      6694      6697      6698
      6691      6694      6697      6699      6691      6694      6697      6700
      6692      6691      6694      6695      6692      6691      6694      6696
      6692      6691      6694      6697      6693      6691      6694      6695
      6693      6691      6694      6696      6693      6691      6694      6697
      6694      6697      6700      6701      6694      6697      6700      6702
      6695      6694      6697      6698      6695      6694      6697      6699
      6695      6694      6697      6700      6696      6694      6697      6698
      6696      6694      6697      6699      6696      6694      6697      6700
      6697      6700      6702      6703      6697      6700      6702      6704
      6698      6697      6700      6701      6698      6697      6700      6702
      6699      6697      6700      6701      6699      6697      6700      6702
      6700      6702      6704      6705      6700      6702      6704      6706
      6700      6702      6704      6707      6701      6700      6702      6703
      6701      6700      6702      6704      6702      6704      6707      6708
      6702      6704      6707      6709      6702      6704      6707      6710
      6703      6702      6704      6705      6703      6702      6704      6706
      6703      6702      6704      6707      6704      6707      6710      6711
      6704      6707      6710      6712      6704      6707      6710      6713
      6705      6704      6707      6708      6705      6704      6707      6709
      6705      6704      6707      6710      6706      6704      6707      6708
      6706      6704      6707      6709      6706      6704      6707      6710
      6707      6710      6713      6714      6707      6710      6713      6715
      6707      6710      6713      6716      6708      6707      6710      6711
      6708      6707      6710      6712      6708      6707      6710      6713
      6709      6707      6710      6711      6709      6707      6710      6712
      6709      6707      6710      6713      6710      6713      6716      6717
      6710      6713      6716      6718      6710      6713      6716      6719
      6711      6710      6713      6714      6711      6710      6713      6715
      6711      6710      6713      6716      6712      6710      6713      6714
      6712      6710      6713      6715      6712      6710      6713      6716
      6713      6716      6719      6720      6713      6716      6719      6721
      6713      6716      6719      6722      6714      6713      6716      6717
      6714      6713      6716      6718      6714      6713      6716      6719
      6715      6713      6716      6717      6715      6713      6716      6718
      6715      6713      6716      6719      6716      6719      6722      6723
      6716      6719      6722      6724      6716      6719      6722      6725
      6717      6716      6719      6720      6717      6716      6719      6721
      6717      6716      6719      6722      6718      6716      6719      6720
      6718      6716      6719      6721      6718      6716      6719      6722
      6719      6722      6725      6726      6719      6722      6725      6727
      6719      6722      6725      6728      6720      6719      6722      6723
      6720      6719      6722      6724      6720      6719      6722      6725
      6721      6719      6722      6723      6721      6719      6722      6724
      6721      6719      6722      6725      6723      6722      6725      6726
      6723      6722      6725      6727      6723      6722      6725      6728
      6724      6722      6725      6726      6724      6722      6725      6727
      6724      6722      6725      6728      6729      6732      6735      6736
      6729      6732      6735      6737      6729      6732      6735      6738
      6730      6729      6732      6733      6730      6729      6732      6734
      6730      6729      6732      6735      6731      6729      6732      6733
      6731      6729      6732      6734      6731      6729      6732      6735
      6732      6735      6738      6739      6732      6735      6738      6740
      6732      6735      6738      6741      6733      6732      6735      6736
      6733      6732      6735      6737      6733      6732      6735      6738
      6734      6732      6735      6736      6734      6732      6735      6737
      6734      6732      6735      6738      6735      6738      6741      6742
      6735      6738      6741      6743      6735      6738      6741      6744
      6736      6735      6738      6739      6736      6735      6738      6740
      6736      6735      6738      6741      6737      6735      6738      6739
      6737      6735      6738      6740      6737      6735      6738      6741
      6738      6741      6744      6745      6738      6741      6744      6746
      6738      6741      6744      6747      6739      6738      6741      6742
      6739      6738      6741      6743      6739      6738      6741      6744
      6740      6738      6741      6742      6740      6738      6741      6743
      6740      6738      6741      6744      6741      6744      6747      6748
      6741      6744      6747      6749      6741      6744      6747      6750
      6742      6741      6744      6745      6742      6741      6744      6746
      6742      6741      6744      6747      6743      6741      6744      6745
      6743      6741      6744      6746      6743      6741      6744      6747
      6744      6747      6750      6751      6744      6747      6750      6752
      6744      6747      6750      6753      6745      6744      6747      6748
      6745      6744      6747      6749      6745      6744      6747      6750
      6746      6744      6747      6748      6746      6744      6747      6749
      6746      6744      6747      6750      6747      6750      6753      6754
      6747      6750      6753      6755      6747      6750      6753      6756
      6748      6747      6750      6751      6748      6747      6750      6752
      6748      6747      6750      6753      6749      6747      6750      6751
      6749      6747      6750      6752      6749      6747      6750      6753
      6750      6753      6756      6757      6750      6753      6756      6758
      6750      6753      6756      6759      6751      6750      6753      6754
      6751      6750      6753      6755      6751      6750      6753      6756
      6752      6750      6753      6754      6752      6750      6753      6755
      6752      6750      6753      6756      6753      6756      6759      6760
      6753      6756      6759      6761      6753      6756      6759      6762
      6754      6753      6756      6757      6754      6753      6756      6758
      6754      6753      6756      6759      6755      6753      6756      6757
      6755      6753      6756      6758      6755      6753      6756      6759
      6756      6759      6762      6763      6756      6759      6762      6764
      6756      6759      6762      6765      6757      6756      6759      6760
      6757      6756      6759      6761      6757      6756      6759      6762
      6758      6756      6759      6760      6758      6756      6759      6761
      6758      6756      6759      6762      6759      6762      6765      6766
      6759      6762      6765      6767      6759      6762      6765      6768
      6760      6759      6762      6763      6760      6759      6762      6764
      6760      6759      6762      6765      6761      6759      6762      6763
      6761      6759      6762      6764      6761      6759      6762      6765
      6762      6765      6768      6769      6762      6765      6768      6770
      6762      6765      6768      6771      6763      6762      6765      6766
      6763      6762      6765      6767      6763      6762      6765      6768
      6764      6762      6765      6766      6764      6762      6765      6767
      6764      6762      6765      6768      6766      6765      6768      6769
      6766      6765      6768      6770      6766      6765      6768      6771
      6767      6765      6768      6769      6767      6765      6768      6770
      6767      6765      6768      6771      6772      6773      6788      6789
      6772      6773      6788      6790      6772      6773      6788      6794
      6773      6772      6776      6777      6773      6772      6776      6778
      6773      6772      6776      6779      6773      6772      6780      6781
      6773      6772      6780      6782      6773      6772      6780      6783
      6773      6772      6784      6785      6773      6772      6784      6786
      6773      6772      6784      6787      6773      6788      6794      6791
      6774      6773      6772      6776      6774      6773      6772      6780
      6774      6773      6772      6784      6774      6773      6788      6789
      6774      6773      6788      6790      6774      6773      6788      6794
      6775      6773      6772      6776      6775      6773      6772      6780
      6775      6773      6772      6784      6775      6773      6788      6789
      6775      6773      6788      6790      6775      6773      6788      6794
      6776      6772      6773      6788      6776      6772      6780      6781
      6776      6772      6780      6782      6776      6772      6780      6783
      6776      6772      6784      6785      6776      6772      6784      6786
      6776      6772      6784      6787      6777      6776      6772      6780
      6777      6776      6772      6784      6778      6776      6772      6780
      6778      6776      6772      6784      6779      6776      6772      6780
      6779      6776      6772      6784      6780      6772      6773      6788
      6780      6772      6784      6785      6780      6772      6784      6786
      6780      6772      6784      6787      6781      6780      6772      6784
      6782      6780      6772      6784      6783      6780      6772      6784
      6784      6772      6773      6788      6788      6794      6791      6792
      6788      6794      6791      6793      6788      6794      6791      6795
      6789      6788      6794      6791      6790      6788      6794      6791
      6791      6795      6796      6797      6791      6795      6796      6798
      6791      6795      6796      6799      6792      6791      6795      6796
      6793      6791      6795      6796      6794      6791      6795      6796
      6795      6796      6799      6800      6795      6796      6799      6801
      6795      6796      6799      6807      6796      6799      6801      6802
      6796      6799      6807      6808      6796      6799      6807      6809
      6796      6799      6807      6810      6797      6796      6799      6800
      6797      6796      6799      6801      6797      6796      6799      6807
      6798      6796      6799      6800      6798      6796      6799      6801
      6798      6796      6799      6807      6799      6801      6802      6803
      6799      6801      6802      6804      6799      6807      6810      6811
      6800      6799      6801      6802      6800      6799      6807      6808
      6800      6799      6807      6809      6800      6799      6807      6810
      6801      6799      6807      6808      6801      6799      6807      6809
      6801      6799      6807      6810      6801      6802      6804      6805
      6801      6802      6804      6806      6801      6802      6804      6816
      6802      6801      6799      6807      6802      6804      6816      6817
      6802      6804      6816      6818      6802      6804      6816      6819
      6803      6802      6804      6805      6803      6802      6804      6806
      6803      6802      6804      6816      6804      6816      6819      6820
      6804      6816      6819      6821      6804      6816      6819      6822
      6805      6804      6816      6817      6805      6804      6816      6818
      6805      6804      6816      6819      6806      6804      6816      6817
      6806      6804      6816      6818      6806      6804      6816      6819
      6807      6810      6811      6812      6807      6810      6811      6813
      6808      6807      6810      6811      6809      6807      6810      6811
      6810      6811      6813      6814      6810      6811      6813      6815
      6810      6811      6813      6863      6811      6813      6863      6864
      6811      6813      6863      6865      6811      6813      6863      6866
      6812      6811      6813      6814      6812      6811      6813      6815
      6812      6811      6813      6863      6813      6863      6866      6867
      6813      6863      6866      6868      6813      6863      6866      6869
      6814      6813      6863      6864      6814      6813      6863      6865
      6814      6813      6863      6866      6815      6813      6863      6864
      6815      6813      6863      6865      6815      6813      6863      6866
      6816      6819      6822      6823      6816      6819      6822      6824
      6816      6819      6822      6825      6817      6816      6819      6820
      6817      6816      6819      6821      6817      6816      6819      6822
      6818      6816      6819      6820      6818      6816      6819      6821
      6818      6816      6819      6822      6819      6822      6825      6826
      6819      6822      6825      6827      6819      6822      6825      6828
      6820      6819      6822      6823      6820      6819      6822      6824
      6820      6819      6822      6825      6821      6819      6822      6823
      6821      6819      6822      6824      6821      6819      6822      6825
      6822      6825      6828      6829      6822      6825      6828      6830
      6822      6825      6828      6831      6823      6822      6825      6826
      6823      6822      6825      6827      6823      6822      6825      6828
      6824      6822      6825      6826      6824      6822      6825      6827
      6824      6822      6825      6828      6825      6828      6831      6832
      6825      6828      6831      6833      6825      6828      6831      6834
      6826      6825      6828      6829      6826      6825      6828      6830
      6826      6825      6828      6831      6827      6825      6828      6829
      6827      6825      6828      6830      6827      6825      6828      6831
      6828      6831      6834      6835      6828      6831      6834      6836
      6829      6828      6831      6832      6829      6828      6831      6833
      6829      6828      6831      6834      6830      6828      6831      6832
      6830      6828      6831      6833      6830      6828      6831      6834
      6831      6834      6836      6837      6831      6834      6836      6838
      6832      6831      6834      6835      6832      6831      6834      6836
      6833      6831      6834      6835      6833      6831      6834      6836
      6834      6836      6838      6839      6834      6836      6838      6840
      6834      6836      6838      6841      6835      6834      6836      6837
      6835      6834      6836      6838      6836      6838      6841      6842
      6836      6838      6841      6843      6836      6838      6841      6844
      6837      6836      6838      6839      6837      6836      6838      6840
      6837      6836      6838      6841      6838      6841      6844      6845
      6838      6841      6844      6846      6838      6841      6844      6847
      6839      6838      6841      6842      6839      6838      6841      6843
      6839      6838      6841      6844      6840      6838      6841      6842
      6840      6838      6841      6843      6840      6838      6841      6844
      6841      6844      6847      6848      6841      6844      6847      6849
      6841      6844      6847      6850      6842      6841      6844      6845
      6842      6841      6844      6846      6842      6841      6844      6847
      6843      6841      6844      6845      6843      6841      6844      6846
      6843      6841      6844      6847      6844      6847      6850      6851
      6844      6847      6850      6852      6844      6847      6850      6853
      6845      6844      6847      6848      6845      6844      6847      6849
      6845      6844      6847      6850      6846      6844      6847      6848
      6846      6844      6847      6849      6846      6844      6847      6850
      6847      6850      6853      6854      6847      6850      6853      6855
      6847      6850      6853      6856      6848      6847      6850      6851
      6848      6847      6850      6852      6848      6847      6850      6853
      6849      6847      6850      6851      6849      6847      6850      6852
      6849      6847      6850      6853      6850      6853      6856      6857
      6850      6853      6856      6858      6850      6853      6856      6859
      6851      6850      6853      6854      6851      6850      6853      6855
      6851      6850      6853      6856      6852      6850      6853      6854
      6852      6850      6853      6855      6852      6850      6853      6856
      6853      6856      6859      6860      6853      6856      6859      6861
      6853      6856      6859      6862      6854      6853      6856      6857
      6854      6853      6856      6858      6854      6853      6856      6859
      6855      6853      6856      6857      6855      6853      6856      6858
      6855      6853      6856      6859      6857      6856      6859      6860
      6857      6856      6859      6861      6857      6856      6859      6862
      6858      6856      6859      6860      6858      6856      6859      6861
      6858      6856      6859      6862      6863      6866      6869      6870
      6863      6866      6869      6871      6863      6866      6869      6872
      6864      6863      6866      6867      6864      6863      6866      6868
      6864      6863      6866      6869      6865      6863      6866      6867
      6865      6863      6866      6868      6865      6863      6866      6869
      6866      6869      6872      6873      6866      6869      6872      6874
      6866      6869      6872      6875      6867      6866      6869      6870
      6867      6866      6869      6871      6867      6866      6869      6872
      6868      6866      6869      6870      6868      6866      6869      6871
      6868      6866      6869      6872      6869      6872      6875      6876
      6869      6872      6875      6877      6869      6872      6875      6878
      6870      6869      6872      6873      6870      6869      6872      6874
      6870      6869      6872      6875      6871      6869      6872      6873
      6871      6869      6872      6874      6871      6869      6872      6875
      6872      6875      6878      6879      6872      6875      6878      6880
      6872      6875      6878      6881      6873      6872      6875      6876
      6873      6872      6875      6877      6873      6872      6875      6878
      6874      6872      6875      6876      6874      6872      6875      6877
      6874      6872      6875      6878      6875      6878      6881      6882
      6875      6878      6881      6883      6875      6878      6881      6884
      6876      6875      6878      6879      6876      6875      6878      6880
      6876      6875      6878      6881      6877      6875      6878      6879
      6877      6875      6878      6880      6877      6875      6878      6881
      6878      6881      6884      6885      6878      6881      6884      6886
      6878      6881      6884      6887      6879      6878      6881      6882
      6879      6878      6881      6883      6879      6878      6881      6884
      6880      6878      6881      6882      6880      6878      6881      6883
      6880      6878      6881      6884      6881      6884      6887      6888
      6881      6884      6887      6889      6881      6884      6887      6890
      6882      6881      6884      6885      6882      6881      6884      6886
      6882      6881      6884      6887      6883      6881      6884      6885
      6883      6881      6884      6886      6883      6881      6884      6887
      6884      6887      6890      6891      6884      6887      6890      6892
      6884      6887      6890      6893      6885      6884      6887      6888
      6885      6884      6887      6889      6885      6884      6887      6890
      6886      6884      6887      6888      6886      6884      6887      6889
      6886      6884      6887      6890      6887      6890      6893      6894
      6887      6890      6893      6895      6887      6890      6893      6896
      6888      6887      6890      6891      6888      6887      6890      6892
      6888      6887      6890      6893      6889      6887      6890      6891
      6889      6887      6890      6892      6889      6887      6890      6893
      6890      6893      6896      6897      6890      6893      6896      6898
      6890      6893      6896      6899      6891      6890      6893      6894
      6891      6890      6893      6895      6891      6890      6893      6896
      6892      6890      6893      6894      6892      6890      6893      6895
      6892      6890      6893      6896      6893      6896      6899      6900
      6893      6896      6899      6901      6893      6896      6899      6902
      6894      6893      6896      6897      6894      6893      6896      6898
      6894      6893      6896      6899      6895      6893      6896      6897
      6895      6893      6896      6898      6895      6893      6896      6899
      6896      6899      6902      6903      6896      6899      6902      6904
      6896      6899      6902      6905      6897      6896      6899      6900
      6897      6896      6899      6901      6897      6896      6899      6902
      6898      6896      6899      6900      6898      6896      6899      6901
      6898      6896      6899      6902      6900      6899      6902      6903
      6900      6899      6902      6904      6900      6899      6902      6905
      6901      6899      6902      6903      6901      6899      6902      6904
      6901      6899      6902      6905      6906      6907      6922      6923
      6906      6907      6922      6924      6906      6907      6922      6928
      6907      6906      6910      6911      6907      6906      6910      6912
      6907      6906      6910      6913      6907      6906      6914      6915
      6907      6906      6914      6916      6907      6906      6914      6917
      6907      6906      6918      6919      6907      6906      6918      6920
      6907      6906      6918      6921      6907      6922      6928      6925
      6908      6907      6906      6910      6908      6907      6906      6914
      6908      6907      6906      6918      6908      6907      6922      6923
      6908      6907      6922      6924      6908      6907      6922      6928
      6909      6907      6906      6910      6909      6907      6906      6914
      6909      6907      6906      6918      6909      6907      6922      6923
      6909      6907      6922      6924      6909      6907      6922      6928
      6910      6906      6907      6922      6910      6906      6914      6915
      6910      6906      6914      6916      6910      6906      6914      6917
      6910      6906      6918      6919      6910      6906      6918      6920
      6910      6906      6918      6921      6911      6910      6906      6914
      6911      6910      6906      6918      6912      6910      6906      6914
      6912      6910      6906      6918      6913      6910      6906      6914
      6913      6910      6906      6918      6914      6906      6907      6922
      6914      6906      6918      6919      6914      6906      6918      6920
      6914      6906      6918      6921      6915      6914      6906      6918
      6916      6914      6906      6918      6917      6914      6906      6918
      6918      6906      6907      6922      6922      6928      6925      6926
      6922      6928      6925      6927      6922      6928      6925      6929
      6923      6922      6928      6925      6924      6922      6928      6925
      6925      6929      6930      6931      6925      6929      6930      6932
      6925      6929      6930      6933      6926      6925      6929      6930
      6927      6925      6929      6930      6928      6925      6929      6930
      6929      6930      6933      6934      6929      6930      6933      6935
      6929      6930      6933      6941      6930      6933      6935      6936
      6930      6933      6941      6942      6930      6933      6941      6943
      6930      6933      6941      6944      6931      6930      6933      6934
      6931      6930      6933      6935      6931      6930      6933      6941
      6932      6930      6933      6934      6932      6930      6933      6935
      6932      6930      6933      6941      6933      6935      6936      6937
      6933      6935      6936      6938      6933      6941      6944      6945
      6934      6933      6935      6936      6934      6933      6941      6942
      6934      6933      6941      6943      6934      6933      6941      6944
      6935      6933      6941      6942      6935      6933      6941      6943
      6935      6933      6941      6944      6935      6936      6938      6939
      6935      6936      6938      6940      6935      6936      6938      6950
      6936      6935      6933      6941      6936      6938      6950      6951
      6936      6938      6950      6952      6936      6938      6950      6953
      6937      6936      6938      6939      6937      6936      6938      6940
      6937      6936      6938      6950      6938      6950      6953      6954
      6938      6950      6953      6955      6938      6950      6953      6956
      6939      6938      6950      6951      6939      6938      6950      6952
      6939      6938      6950      6953      6940      6938      6950      6951
      6940      6938      6950      6952      6940      6938      6950      6953
      6941      6944      6945      6946      6941      6944      6945      6947
      6942      6941      6944      6945      6943      6941      6944      6945
      6944      6945      6947      6948      6944      6945      6947      6949
      6944      6945      6947      6997      6945      6947      6997      6998
      6945      6947      6997      6999      6945      6947      6997      7000
      6946      6945      6947      6948      6946      6945      6947      6949
      6946      6945      6947      6997      6947      6997      7000      7001
      6947      6997      7000      7002      6947      6997      7000      7003
      6948      6947      6997      6998      6948      6947      6997      6999
      6948      6947      6997      7000      6949      6947      6997      6998
      6949      6947      6997      6999      6949      6947      6997      7000
      6950      6953      6956      6957      6950      6953      6956      6958
      6950      6953      6956      6959      6951      6950      6953      6954
      6951      6950      6953      6955      6951      6950      6953      6956
      6952      6950      6953      6954      6952      6950      6953      6955
      6952      6950      6953      6956      6953      6956      6959      6960
      6953      6956      6959      6961      6953      6956      6959      6962
      6954      6953      6956      6957      6954      6953      6956      6958
      6954      6953      6956      6959      6955      6953      6956      6957
      6955      6953      6956      6958      6955      6953      6956      6959
      6956      6959      6962      6963      6956      6959      6962      6964
      6956      6959      6962      6965      6957      6956      6959      6960
      6957      6956      6959      6961      6957      6956      6959      6962
      6958      6956      6959      6960      6958      6956      6959      6961
      6958      6956      6959      6962      6959      6962      6965      6966
      6959      6962      6965      6967      6959      6962      6965      6968
      6960      6959      6962      6963      6960      6959      6962      6964
      6960      6959      6962      6965      6961      6959      6962      6963
      6961      6959      6962      6964      6961      6959      6962      6965
      6962      6965      6968      6969      6962      6965      6968      6970
      6963      6962      6965      6966      6963      6962      6965      6967
      6963      6962      6965      6968      6964      6962      6965      6966
      6964      6962      6965      6967      6964      6962      6965      6968
      6965      6968      6970      6971      6965      6968      6970      6972
      6966      6965      6968      6969      6966      6965      6968      6970
      6967      6965      6968      6969      6967      6965      6968      6970
      6968      6970      6972      6973      6968      6970      6972      6974
      6968      6970      6972      6975      6969      6968      6970      6971
      6969      6968      6970      6972      6970      6972      6975      6976
      6970      6972      6975      6977      6970      6972      6975      6978
      6971      6970      6972      6973      6971      6970      6972      6974
      6971      6970      6972      6975      6972      6975      6978      6979
      6972      6975      6978      6980      6972      6975      6978      6981
      6973      6972      6975      6976      6973      6972      6975      6977
      6973      6972      6975      6978      6974      6972      6975      6976
      6974      6972      6975      6977      6974      6972      6975      6978
      6975      6978      6981      6982      6975      6978      6981      6983
      6975      6978      6981      6984      6976      6975      6978      6979
      6976      6975      6978      6980      6976      6975      6978      6981
      6977      6975      6978      6979      6977      6975      6978      6980
      6977      6975      6978      6981      6978      6981      6984      6985
      6978      6981      6984      6986      6978      6981      6984      6987
      6979      6978      6981      6982      6979      6978      6981      6983
      6979      6978      6981      6984      6980      6978      6981      6982
      6980      6978      6981      6983      6980      6978      6981      6984
      6981      6984      6987      6988      6981      6984      6987      6989
      6981      6984      6987      6990      6982      6981      6984      6985
      6982      6981      6984      6986      6982      6981      6984      6987
      6983      6981      6984      6985      6983      6981      6984      6986
      6983      6981      6984      6987      6984      6987      6990      6991
      6984      6987      6990      6992      6984      6987      6990      6993
      6985      6984      6987      6988      6985      6984      6987      6989
      6985      6984      6987      6990      6986      6984      6987      6988
      6986      6984      6987      6989      6986      6984      6987      6990
      6987      6990      6993      6994      6987      6990      6993      6995
      6987      6990      6993      6996      6988      6987      6990      6991
      6988      6987      6990      6992      6988      6987      6990      6993
      6989      6987      6990      6991      6989      6987      6990      6992
      6989      6987      6990      6993      6991      6990      6993      6994
      6991      6990      6993      6995      6991      6990      6993      6996
      6992      6990      6993      6994      6992      6990      6993      6995
      6992      6990      6993      6996      6997      7000      7003      7004
      6997      7000      7003      7005      6997      7000      7003      7006
      6998      6997      7000      7001      6998      6997      7000      7002
      6998      6997      7000      7003      6999      6997      7000      7001
      6999      6997      7000      7002      6999      6997      7000      7003
      7000      7003      7006      7007      7000      7003      7006      7008
      7000      7003      7006      7009      7001      7000      7003      7004
      7001      7000      7003      7005      7001      7000      7003      7006
      7002      7000      7003      7004      7002      7000      7003      7005
      7002      7000      7003      7006      7003      7006      7009      7010
      7003      7006      7009      7011      7003      7006      7009      7012
      7004      7003      7006      7007      7004      7003      7006      7008
      7004      7003      7006      7009      7005      7003      7006      7007
      7005      7003      7006      7008      7005      7003      7006      7009
      7006      7009      7012      7013      7006      7009      7012      7014
      7006      7009      7012      7015      7007      7006      7009      7010
      7007      7006      7009      7011      7007      7006      7009      7012
      7008      7006      7009      7010      7008      7006      7009      7011
      7008      7006      7009      7012      7009      7012      7015      7016
      7009      7012      7015      7017      7009      7012      7015      7018
      7010      7009      7012      7013      7010      7009      7012      7014
      7010      7009      7012      7015      7011      7009      7012      7013
      7011      7009      7012      7014      7011      7009      7012      7015
      7012      7015      7018      7019      7012      7015      7018      7020
      7012      7015      7018      7021      7013      7012      7015      7016
      7013      7012      7015      7017      7013      7012      7015      7018
      7014      7012      7015      7016      7014      7012      7015      7017
      7014      7012      7015      7018      7015      7018      7021      7022
      7015      7018      7021      7023      7015      7018      7021      7024
      7016      7015      7018      7019      7016      7015      7018      7020
      7016      7015      7018      7021      7017      7015      7018      7019
      7017      7015      7018      7020      7017      7015      7018      7021
      7018      7021      7024      7025      7018      7021      7024      7026
      7018      7021      7024      7027      7019      7018      7021      7022
      7019      7018      7021      7023      7019      7018      7021      7024
      7020      7018      7021      7022      7020      7018      7021      7023
      7020      7018      7021      7024      7021      7024      7027      7028
      7021      7024      7027      7029      7021      7024      7027      7030
      7022      7021      7024      7025      7022      7021      7024      7026
      7022      7021      7024      7027      7023      7021      7024      7025
      7023      7021      7024      7026      7023      7021      7024      7027
      7024      7027      7030      7031      7024      7027      7030      7032
      7024      7027      7030      7033      7025      7024      7027      7028
      7025      7024      7027      7029      7025      7024      7027      7030
      7026      7024      7027      7028      7026      7024      7027      7029
      7026      7024      7027      7030      7027      7030      7033      7034
      7027      7030      7033      7035      7027      7030      7033      7036
      7028      7027      7030      7031      7028      7027      7030      7032
      7028      7027      7030      7033      7029      7027      7030      7031
      7029      7027      7030      7032      7029      7027      7030      7033
      7030      7033      7036      7037      7030      7033      7036      7038
      7030      7033      7036      7039      7031      7030      7033      7034
      7031      7030      7033      7035      7031      7030      7033      7036
      7032      7030      7033      7034      7032      7030      7033      7035
      7032      7030      7033      7036      7034      7033      7036      7037
      7034      7033      7036      7038      7034      7033      7036      7039
      7035      7033      7036      7037      7035      7033      7036      7038
      7035      7033      7036      7039      7040      7041      7056      7057
      7040      7041      7056      7058      7040      7041      7056      7062
      7041      7040      7044      7045      7041      7040      7044      7046
      7041      7040      7044      7047      7041      7040      7048      7049
      7041      7040      7048      7050      7041      7040      7048      7051
      7041      7040      7052      7053      7041      7040      7052      7054
      7041      7040      7052      7055      7041      7056      7062      7059
      7042      7041      7040      7044      7042      7041      7040      7048
      7042      7041      7040      7052      7042      7041      7056      7057
      7042      7041      7056      7058      7042      7041      7056      7062
      7043      7041      7040      7044      7043      7041      7040      7048
      7043      7041      7040      7052      7043      7041      7056      7057
      7043      7041      7056      7058      7043      7041      7056      7062
      7044      7040      7041      7056      7044      7040      7048      7049
      7044      7040      7048      7050      7044      7040      7048      7051
      7044      7040      7052      7053      7044      7040      7052      7054
      7044      7040      7052      7055      7045      7044      7040      7048
      7045      7044      7040      7052      7046      7044      7040      7048
      7046      7044      7040      7052      7047      7044      7040      7048
      7047      7044      7040      7052      7048      7040      7041      7056
      7048      7040      7052      7053      7048      7040      7052      7054
      7048      7040      7052      7055      7049      7048      7040      7052
      7050      7048      7040      7052      7051      7048      7040      7052
      7052      7040      7041      7056      7056      7062      7059      7060
      7056      7062      7059      7061      7056      7062      7059      7063
      7057      7056      7062      7059      7058      7056      7062      7059
      7059      7063      7064      7065      7059      7063      7064      7066
      7059      7063      7064      7067      7060      7059      7063      7064
      7061      7059      7063      7064      7062      7059      7063      7064
      7063      7064      7067      7068      7063      7064      7067      7069
      7063      7064      7067      7075      7064      7067      7069      7070
      7064      7067      7075      7076      7064      7067      7075      7077
      7064      7067      7075      7078      7065      7064      7067      7068
      7065      7064      7067      7069      7065      7064      7067      7075
      7066      7064      7067      7068      7066      7064      7067      7069
      7066      7064      7067      7075      7067      7069      7070      7071
      7067      7069      7070      7072      7067      7075      7078      7079
      7068      7067      7069      7070      7068      7067      7075      7076
      7068      7067      7075      7077      7068      7067      7075      7078
      7069      7067      7075      7076      7069      7067      7075      7077
      7069      7067      7075      7078      7069      7070      7072      7073
      7069      7070      7072      7074      7069      7070      7072      7084
      7070      7069      7067      7075      7070      7072      7084      7085
      7070      7072      7084      7086      7070      7072      7084      7087
      7071      7070      7072      7073      7071      7070      7072      7074
      7071      7070      7072      7084      7072      7084      7087      7088
      7072      7084      7087      7089      7072      7084      7087      7090
      7073      7072      7084      7085      7073      7072      7084      7086
      7073      7072      7084      7087      7074      7072      7084      7085
      7074      7072      7084      7086      7074      7072      7084      7087
      7075      7078      7079      7080      7075      7078      7079      7081
      7076      7075      7078      7079      7077      7075      7078      7079
      7078      7079      7081      7082      7078      7079      7081      7083
      7078      7079      7081      7131      7079      7081      7131      7132
      7079      7081      7131      7133      7079      7081      7131      7134
      7080      7079      7081      7082      7080      7079      7081      7083
      7080      7079      7081      7131      7081      7131      7134      7135
      7081      7131      7134      7136      7081      7131      7134      7137
      7082      7081      7131      7132      7082      7081      7131      7133
      7082      7081      7131      7134      7083      7081      7131      7132
      7083      7081      7131      7133      7083      7081      7131      7134
      7084      7087      7090      7091      7084      7087      7090      7092
      7084      7087      7090      7093      7085      7084      7087      7088
      7085      7084      7087      7089      7085      7084      7087      7090
      7086      7084      7087      7088      7086      7084      7087      7089
      7086      7084      7087      7090      7087      7090      7093      7094
      7087      7090      7093      7095      7087      7090      7093      7096
      7088      7087      7090      7091      7088      7087      7090      7092
      7088      7087      7090      7093      7089      7087      7090      7091
      7089      7087      7090      7092      7089      7087      7090      7093
      7090      7093      7096      7097      7090      7093      7096      7098
      7090      7093      7096      7099      7091      7090      7093      7094
      7091      7090      7093      7095      7091      7090      7093      7096
      7092      7090      7093      7094      7092      7090      7093      7095
      7092      7090      7093      7096      7093      7096      7099      7100
      7093      7096      7099      7101      7093      7096      7099      7102
      7094      7093      7096      7097      7094      7093      7096      7098
      7094      7093      7096      7099      7095      7093      7096      7097
      7095      7093      7096      7098      7095      7093      7096      7099
      7096      7099      7102      7103      7096      7099      7102      7104
      7097      7096      7099      7100      7097      7096      7099      7101
      7097      7096      7099      7102      7098      7096      7099      7100
      7098      7096      7099      7101      7098      7096      7099      7102
      7099      7102      7104      7105      7099      7102      7104      7106
      7100      7099      7102      7103      7100      7099      7102      7104
      7101      7099      7102      7103      7101      7099      7102      7104
      7102      7104      7106      7107      7102      7104      7106      7108
      7102      7104      7106      7109      7103      7102      7104      7105
      7103      7102      7104      7106      7104      7106      7109      7110
      7104      7106      7109      7111      7104      7106      7109      7112
      7105      7104      7106      7107      7105      7104      7106      7108
      7105      7104      7106      7109      7106      7109      7112      7113
      7106      7109      7112      7114      7106      7109      7112      7115
      7107      7106      7109      7110      7107      7106      7109      7111
      7107      7106      7109      7112      7108      7106      7109      7110
      7108      7106      7109      7111      7108      7106      7109      7112
      7109      7112      7115      7116      7109      7112      7115      7117
      7109      7112      7115      7118      7110      7109      7112      7113
      7110      7109      7112      7114      7110      7109      7112      7115
      7111      7109      7112      7113      7111      7109      7112      7114
      7111      7109      7112      7115      7112      7115      7118      7119
      7112      7115      7118      7120      7112      7115      7118      7121
      7113      7112      7115      7116      7113      7112      7115      7117
      7113      7112      7115      7118      7114      7112      7115      7116
      7114      7112      7115      7117      7114      7112      7115      7118
      7115      7118      7121      7122      7115      7118      7121      7123
      7115      7118      7121      7124      7116      7115      7118      7119
      7116      7115      7118      7120      7116      7115      7118      7121
      7117      7115      7118      7119      7117      7115      7118      7120
      7117      7115      7118      7121      7118      7121      7124      7125
      7118      7121      7124      7126      7118      7121      7124      7127
      7119      7118      7121      7122      7119      7118      7121      7123
      7119      7118      7121      7124      7120      7118      7121      7122
      7120      7118      7121      7123      7120      7118      7121      7124
      7121      7124      7127      7128      7121      7124      7127      7129
      7121      7124      7127      7130      7122      7121      7124      7125
      7122      7121      7124      7126      7122      7121      7124      7127
      7123      7121      7124      7125      7123      7121      7124      7126
      7123      7121      7124      7127      7125      7124      7127      7128
      7125      7124      7127      7129      7125      7124      7127      7130
      7126      7124      7127      7128      7126      7124      7127      7129
      7126      7124      7127      7130      7131      7134      7137      7138
      7131      7134      7137      7139      7131      7134      7137      7140
      7132      7131      7134      7135      7132      7131      7134      7136
      7132      7131      7134      7137      7133      7131      7134      7135
      7133      7131      7134      7136      7133      7131      7134      7137
      7134      7137      7140      7141      7134      7137      7140      7142
      7134      7137      7140      7143      7135      7134      7137      7138
      7135      7134      7137      7139      7135      7134      7137      7140
      7136      7134      7137      7138      7136      7134      7137      7139
      7136      7134      7137      7140      7137      7140      7143      7144
      7137      7140      7143      7145      7137      7140      7143      7146
      7138      7137      7140      7141      7138      7137      7140      7142
      7138      7137      7140      7143      7139      7137      7140      7141
      7139      7137      7140      7142      7139      7137      7140      7143
      7140      7143      7146      7147      7140      7143      7146      7148
      7140      7143      7146      7149      7141      7140      7143      7144
      7141      7140      7143      7145      7141      7140      7143      7146
      7142      7140      7143      7144      7142      7140      7143      7145
      7142      7140      7143      7146      7143      7146      7149      7150
      7143      7146      7149      7151      7143      7146      7149      7152
      7144      7143      7146      7147      7144      7143      7146      7148
      7144      7143      7146      7149      7145      7143      7146      7147
      7145      7143      7146      7148      7145      7143      7146      7149
      7146      7149      7152      7153      7146      7149      7152      7154
      7146      7149      7152      7155      7147      7146      7149      7150
      7147      7146      7149      7151      7147      7146      7149      7152
      7148      7146      7149      7150      7148      7146      7149      7151
      7148      7146      7149      7152      7149      7152      7155      7156
      7149      7152      7155      7157      7149      7152      7155      7158
      7150      7149      7152      7153      7150      7149      7152      7154
      7150      7149      7152      7155      7151      7149      7152      7153
      7151      7149      7152      7154      7151      7149      7152      7155
      7152      7155      7158      7159      7152      7155      7158      7160
      7152      7155      7158      7161      7153      7152      7155      7156
      7153      7152      7155      7157      7153      7152      7155      7158
      7154      7152      7155      7156      7154      7152      7155      7157
      7154      7152      7155      7158      7155      7158      7161      7162
      7155      7158      7161      7163      7155      7158      7161      7164
      7156      7155      7158      7159      7156      7155      7158      7160
      7156      7155      7158      7161      7157      7155      7158      7159
      7157      7155      7158      7160      7157      7155      7158      7161
      7158      7161      7164      7165      7158      7161      7164      7166
      7158      7161      7164      7167      7159      7158      7161      7162
      7159      7158      7161      7163      7159      7158      7161      7164
      7160      7158      7161      7162      7160      7158      7161      7163
      7160      7158      7161      7164      7161      7164      7167      7168
      7161      7164      7167      7169      7161      7164      7167      7170
      7162      7161      7164      7165      7162      7161      7164      7166
      7162      7161      7164      7167      7163      7161      7164      7165
      7163      7161      7164      7166      7163      7161      7164      7167
      7164      7167      7170      7171      7164      7167      7170      7172
      7164      7167      7170      7173      7165      7164      7167      7168
      7165      7164      7167      7169      7165      7164      7167      7170
      7166      7164      7167      7168      7166      7164      7167      7169
      7166      7164      7167      7170      7168      7167      7170      7171
      7168      7167      7170      7172      7168      7167      7170      7173
      7169      7167      7170      7171      7169      7167      7170      7172
      7169      7167      7170      7173      7174      7178      7180      7181
      7174      7178      7180      7182      7174      7178      7183      7184
      7174      7178      7183      7185      7174      7178      7183      7189
      7175      7174      7178      7179      7175      7174      7178      7180
      7175      7174      7178      7183      7176      7174      7178      7179
      7176      7174      7178      7180      7176      7174      7178      7183
      7177      7174      7178      7179      7177      7174      7178      7180
      7177      7174      7178      7183      7178      7183      7189      7186
      7179      7178      7180      7181      7179      7178      7180      7182
      7179      7178      7183      7184      7179      7178      7183      7185
      7179      7178      7183      7189      7180      7178      7183      7184
      7180      7178      7183      7185      7180      7178      7183      7189
      7181      7180      7178      7183      7182      7180      7178      7183
      7183      7189      7186      7187      7183      7189      7186      7188
      7183      7189      7186      7190      7184      7183      7189      7186
      7185      7183      7189      7186      7186      7190      7191      7192
      7186      7190      7191      7193      7186      7190      7191      7194
      7187      7186      7190      7191      7188      7186      7190      7191
      7189      7186      7190      7191      7190      7191      7194      7195
      7190      7191      7194      7196      7190      7191      7194      7202
      7191      7194      7196      7197      7191      7194      7202      7203
      7191      7194      7202      7204      7191      7194      7202      7205
      7192      7191      7194      7195      7192      7191      7194      7196
      7192      7191      7194      7202      7193      7191      7194      7195
      7193      7191      7194      7196      7193      7191      7194      7202
      7194      7196      7197      7198      7194      7196      7197      7199
      7194      7202      7205      7206      7195      7194      7196      7197
      7195      7194      7202      7203      7195      7194      7202      7204
      7195      7194      7202      7205      7196      7194      7202      7203
      7196      7194      7202      7204      7196      7194      7202      7205
      7196      7197      7199      7200      7196      7197      7199      7201
      7196      7197      7199      7211      7197      7196      7194      7202
      7197      7199      7211      7212      7197      7199      7211      7213
      7197      7199      7211      7214      7198      7197      7199      7200
      7198      7197      7199      7201      7198      7197      7199      7211
      7199      7211      7214      7215      7199      7211      7214      7216
      7199      7211      7214      7217      7200      7199      7211      7212
      7200      7199      7211      7213      7200      7199      7211      7214
      7201      7199      7211      7212      7201      7199      7211      7213
      7201      7199      7211      7214      7202      7205      7206      7207
      7202      7205      7206      7208      7203      7202      7205      7206
      7204      7202      7205      7206      7205      7206      7208      7209
      7205      7206      7208      7210      7205      7206      7208      7258
      7206      7208      7258      7259      7206      7208      7258      7260
      7206      7208      7258      7261      7207      7206      7208      7209
      7207      7206      7208      7210      7207      7206      7208      7258
      7208      7258      7261      7262      7208      7258      7261      7263
      7208      7258      7261      7264      7209      7208      7258      7259
      7209      7208      7258      7260      7209      7208      7258      7261
      7210      7208      7258      7259      7210      7208      7258      7260
      7210      7208      7258      7261      7211      7214      7217      7218
      7211      7214      7217      7219      7211      7214      7217      7220
      7212      7211      7214      7215      7212      7211      7214      7216
      7212      7211      7214      7217      7213      7211      7214      7215
      7213      7211      7214      7216      7213      7211      7214      7217
      7214      7217      7220      7221      7214      7217      7220      7222
      7214      7217      7220      7223      7215      7214      7217      7218
      7215      7214      7217      7219      7215      7214      7217      7220
      7216      7214      7217      7218      7216      7214      7217      7219
      7216      7214      7217      7220      7217      7220      7223      7224
      7217      7220      7223      7225      7217      7220      7223      7226
      7218      7217      7220      7221      7218      7217      7220      7222
      7218      7217      7220      7223      7219      7217      7220      7221
      7219      7217      7220      7222      7219      7217      7220      7223
      7220      7223      7226      7227      7220      7223      7226      7228
      7220      7223      7226      7229      7221      7220      7223      7224
      7221      7220      7223      7225      7221      7220      7223      7226
      7222      7220      7223      7224      7222      7220      7223      7225
      7222      7220      7223      7226      7223      7226      7229      7230
      7223      7226      7229      7231      7224      7223      7226      7227
      7224      7223      7226      7228      7224      7223      7226      7229
      7225      7223      7226      7227      7225      7223      7226      7228
      7225      7223      7226      7229      7226      7229      7231      7232
      7226      7229      7231      7233      7227      7226      7229      7230
      7227      7226      7229      7231      7228      7226      7229      7230
      7228      7226      7229      7231      7229      7231      7233      7234
      7229      7231      7233      7235      7229      7231      7233      7236
      7230      7229      7231      7232      7230      7229      7231      7233
      7231      7233      7236      7237      7231      7233      7236      7238
      7231      7233      7236      7239      7232      7231      7233      7234
      7232      7231      7233      7235      7232      7231      7233      7236
      7233      7236      7239      7240      7233      7236      7239      7241
      7233      7236      7239      7242      7234      7233      7236      7237
      7234      7233      7236      7238      7234      7233      7236      7239
      7235      7233      7236      7237      7235      7233      7236      7238
      7235      7233      7236      7239      7236      7239      7242      7243
      7236      7239      7242      7244      7236      7239      7242      7245
      7237      7236      7239      7240      7237      7236      7239      7241
      7237      7236      7239      7242      7238      7236      7239      7240
      7238      7236      7239      7241      7238      7236      7239      7242
      7239      7242      7245      7246      7239      7242      7245      7247
      7239      7242      7245      7248      7240      7239      7242      7243
      7240      7239      7242      7244      7240      7239      7242      7245
      7241      7239      7242      7243      7241      7239      7242      7244
      7241      7239      7242      7245      7242      7245      7248      7249
      7242      7245      7248      7250      7242      7245      7248      7251
      7243      7242      7245      7246      7243      7242      7245      7247
      7243      7242      7245      7248      7244      7242      7245      7246
      7244      7242      7245      7247      7244      7242      7245      7248
      7245      7248      7251      7252      7245      7248      7251      7253
      7245      7248      7251      7254      7246      7245      7248      7249
      7246      7245      7248      7250      7246      7245      7248      7251
      7247      7245      7248      7249      7247      7245      7248      7250
      7247      7245      7248      7251      7248      7251      7254      7255
      7248      7251      7254      7256      7248      7251      7254      7257
      7249      7248      7251      7252      7249      7248      7251      7253
      7249      7248      7251      7254      7250      7248      7251      7252
      7250      7248      7251      7253      7250      7248      7251      7254
      7252      7251      7254      7255      7252      7251      7254      7256
      7252      7251      7254      7257      7253      7251      7254      7255
      7253      7251      7254      7256      7253      7251      7254      7257
      7258      7261      7264      7265      7258      7261      7264      7266
      7258      7261      7264      7267      7259      7258      7261      7262
      7259      7258      7261      7263      7259      7258      7261      7264
      7260      7258      7261      7262      7260      7258      7261      7263
      7260      7258      7261      7264      7261      7264      7267      7268
      7261      7264      7267      7269      7261      7264      7267      7270
      7262      7261      7264      7265      7262      7261      7264      7266
      7262      7261      7264      7267      7263      7261      7264      7265
      7263      7261      7264      7266      7263      7261      7264      7267
      7264      7267      7270      7271      7264      7267      7270      7272
      7264      7267      7270      7273      7265      7264      7267      7268
      7265      7264      7267      7269      7265      7264      7267      7270
      7266      7264      7267      7268      7266      7264      7267      7269
      7266      7264      7267      7270      7267      7270      7273      7274
      7267      7270      7273      7275      7267      7270      7273      7276
      7268      7267      7270      7271      7268      7267      7270      7272
      7268      7267      7270      7273      7269      7267      7270      7271
      7269      7267      7270      7272      7269      7267      7270      7273
      7270      7273      7276      7277      7270      7273      7276      7278
      7270      7273      7276      7279      7271      7270      7273      7274
      7271      7270      7273      7275      7271      7270      7273      7276
      7272      7270      7273      7274      7272      7270      7273      7275
      7272      7270      7273      7276      7273      7276      7279      7280
      7273      7276      7279      7281      7273      7276      7279      7282
      7274      7273      7276      7277      7274      7273      7276      7278
      7274      7273      7276      7279      7275      7273      7276      7277
      7275      7273      7276      7278      7275      7273      7276      7279
      7276      7279      7282      7283      7276      7279      7282      7284
      7276      7279      7282      7285      7277      7276      7279      7280
      7277      7276      7279      7281      7277      7276      7279      7282
      7278      7276      7279      7280      7278      7276      7279      7281
      7278      7276      7279      7282      7279      7282      7285      7286
      7279      7282      7285      7287      7279      7282      7285      7288
      7280      7279      7282      7283      7280      7279      7282      7284
      7280      7279      7282      7285      7281      7279      7282      7283
      7281      7279      7282      7284      7281      7279      7282      7285
      7282      7285      7288      7289      7282      7285      7288      7290
      7282      7285      7288      7291      7283      7282      7285      7286
      7283      7282      7285      7287      7283      7282      7285      7288
      7284      7282      7285      7286      7284      7282      7285      7287
      7284      7282      7285      7288      7285      7288      7291      7292
      7285      7288      7291      7293      7285      7288      7291      7294
      7286      7285      7288      7289      7286      7285      7288      7290
      7286      7285      7288      7291      7287      7285      7288      7289
      7287      7285      7288      7290      7287      7285      7288      7291
      7288      7291      7294      7295      7288      7291      7294      7296
      7288      7291      7294      7297      7289      7288      7291      7292
      7289      7288      7291      7293      7289      7288      7291      7294
      7290      7288      7291      7292      7290      7288      7291      7293
      7290      7288      7291      7294      7291      7294      7297      7298
      7291      7294      7297      7299      7291      7294      7297      7300
      7292      7291      7294      7295      7292      7291      7294      7296
      7292      7291      7294      7297      7293      7291      7294      7295
      7293      7291      7294      7296      7293      7291      7294      7297
      7295      7294      7297      7298      7295      7294      7297      7299
      7295      7294      7297      7300      7296      7294      7297      7298
      7296      7294      7297      7299      7296      7294      7297      7300
      7301      7305      7307      7308      7301      7305      7307      7309
      7301      7305      7310      7311      7301      7305      7310      7312
      7301      7305      7310      7316      7302      7301      7305      7306
      7302      7301      7305      7307      7302      7301      7305      7310
      7303      7301      7305      7306      7303      7301      7305      7307
      7303      7301      7305      7310      7304      7301      7305      7306
      7304      7301      7305      7307      7304      7301      7305      7310
      7305      7310      7316      7313      7306      7305      7307      7308
      7306      7305      7307      7309      7306      7305      7310      7311
      7306      7305      7310      7312      7306      7305      7310      7316
      7307      7305      7310      7311      7307      7305      7310      7312
      7307      7305      7310      7316      7308      7307      7305      7310
      7309      7307      7305      7310      7310      7316      7313      7314
      7310      7316      7313      7315      7310      7316      7313      7317
      7311      7310      7316      7313      7312      7310      7316      7313
      7313      7317      7318      7319      7313      7317      7318      7320
      7313      7317      7318      7321      7314      7313      7317      7318
      7315      7313      7317      7318      7316      7313      7317      7318
      7317      7318      7321      7322      7317      7318      7321      7323
      7317      7318      7321      7329      7318      7321      7323      7324
      7318      7321      7329      7330      7318      7321      7329      7331
      7318      7321      7329      7332      7319      7318      7321      7322
      7319      7318      7321      7323      7319      7318      7321      7329
      7320      7318      7321      7322      7320      7318      7321      7323
      7320      7318      7321      7329      7321      7323      7324      7325
      7321      7323      7324      7326      7321      7329      7332      7333
      7322      7321      7323      7324      7322      7321      7329      7330
      7322      7321      7329      7331      7322      7321      7329      7332
      7323      7321      7329      7330      7323      7321      7329      7331
      7323      7321      7329      7332      7323      7324      7326      7327
      7323      7324      7326      7328      7323      7324      7326      7338
      7324      7323      7321      7329      7324      7326      7338      7339
      7324      7326      7338      7340      7324      7326      7338      7341
      7325      7324      7326      7327      7325      7324      7326      7328
      7325      7324      7326      7338      7326      7338      7341      7342
      7326      7338      7341      7343      7326      7338      7341      7344
      7327      7326      7338      7339      7327      7326      7338      7340
      7327      7326      7338      7341      7328      7326      7338      7339
      7328      7326      7338      7340      7328      7326      7338      7341
      7329      7332      7333      7334      7329      7332      7333      7335
      7330      7329      7332      7333      7331      7329      7332      7333
      7332      7333      7335      7336      7332      7333      7335      7337
      7332      7333      7335      7385      7333      7335      7385      7386
      7333      7335      7385      7387      7333      7335      7385      7388
      7334      7333      7335      7336      7334      7333      7335      7337
      7334      7333      7335      7385      7335      7385      7388      7389
      7335      7385      7388      7390      7335      7385      7388      7391
      7336      7335      7385      7386      7336      7335      7385      7387
      7336      7335      7385      7388      7337      7335      7385      7386
      7337      7335      7385      7387      7337      7335      7385      7388
      7338      7341      7344      7345      7338      7341      7344      7346
      7338      7341      7344      7347      7339      7338      7341      7342
      7339      7338      7341      7343      7339      7338      7341      7344
      7340      7338      7341      7342      7340      7338      7341      7343
      7340      7338      7341      7344      7341      7344      7347      7348
      7341      7344      7347      7349      7341      7344      7347      7350
      7342      7341      7344      7345      7342      7341      7344      7346
      7342      7341      7344      7347      7343      7341      7344      7345
      7343      7341      7344      7346      7343      7341      7344      7347
      7344      7347      7350      7351      7344      7347      7350      7352
      7344      7347      7350      7353      7345      7344      7347      7348
      7345      7344      7347      7349      7345      7344      7347      7350
      7346      7344      7347      7348      7346      7344      7347      7349
      7346      7344      7347      7350      7347      7350      7353      7354
      7347      7350      7353      7355      7347      7350      7353      7356
      7348      7347      7350      7351      7348      7347      7350      7352
      7348      7347      7350      7353      7349      7347      7350      7351
      7349      7347      7350      7352      7349      7347      7350      7353
      7350      7353      7356      7357      7350      7353      7356      7358
      7351      7350      7353      7354      7351      7350      7353      7355
      7351      7350      7353      7356      7352      7350      7353      7354
      7352      7350      7353      7355      7352      7350      7353      7356
      7353      7356      7358      7359      7353      7356      7358      7360
      7354      7353      7356      7357      7354      7353      7356      7358
      7355      7353      7356      7357      7355      7353      7356      7358
      7356      7358      7360      7361      7356      7358      7360      7362
      7356      7358      7360      7363      7357      7356      7358      7359
      7357      7356      7358      7360      7358      7360      7363      7364
      7358      7360      7363      7365      7358      7360      7363      7366
      7359      7358      7360      7361      7359      7358      7360      7362
      7359      7358      7360      7363      7360      7363      7366      7367
      7360      7363      7366      7368      7360      7363      7366      7369
      7361      7360      7363      7364      7361      7360      7363      7365
      7361      7360      7363      7366      7362      7360      7363      7364
      7362      7360      7363      7365      7362      7360      7363      7366
      7363      7366      7369      7370      7363      7366      7369      7371
      7363      7366      7369      7372      7364      7363      7366      7367
      7364      7363      7366      7368      7364      7363      7366      7369
      7365      7363      7366      7367      7365      7363      7366      7368
      7365      7363      7366      7369      7366      7369      7372      7373
      7366      7369      7372      7374      7366      7369      7372      7375
      7367      7366      7369      7370      7367      7366      7369      7371
      7367      7366      7369      7372      7368      7366      7369      7370
      7368      7366      7369      7371      7368      7366      7369      7372
      7369      7372      7375      7376      7369      7372      7375      7377
      7369      7372      7375      7378      7370      7369      7372      7373
      7370      7369      7372      7374      7370      7369      7372      7375
      7371      7369      7372      7373      7371      7369      7372      7374
      7371      7369      7372      7375      7372      7375      7378      7379
      7372      7375      7378      7380      7372      7375      7378      7381
      7373      7372      7375      7376      7373      7372      7375      7377
      7373      7372      7375      7378      7374      7372      7375      7376
      7374      7372      7375      7377      7374      7372      7375      7378
      7375      7378      7381      7382      7375      7378      7381      7383
      7375      7378      7381      7384      7376      7375      7378      7379
      7376      7375      7378      7380      7376      7375      7378      7381
      7377      7375      7378      7379      7377      7375      7378      7380
      7377      7375      7378      7381      7379      7378      7381      7382
      7379      7378      7381      7383      7379      7378      7381      7384
      7380      7378      7381      7382      7380      7378      7381      7383
      7380      7378      7381      7384      7385      7388      7391      7392
      7385      7388      7391      7393      7385      7388      7391      7394
      7386      7385      7388      7389      7386      7385      7388      7390
      7386      7385      7388      7391      7387      7385      7388      7389
      7387      7385      7388      7390      7387      7385      7388      7391
      7388      7391      7394      7395      7388      7391      7394      7396
      7388      7391      7394      7397      7389      7388      7391      7392
      7389      7388      7391      7393      7389      7388      7391      7394
      7390      7388      7391      7392      7390      7388      7391      7393
      7390      7388      7391      7394      7391      7394      7397      7398
      7391      7394      7397      7399      7391      7394      7397      7400
      7392      7391      7394      7395      7392      7391      7394      7396
      7392      7391      7394      7397      7393      7391      7394      7395
      7393      7391      7394      7396      7393      7391      7394      7397
      7394      7397      7400      7401      7394      7397      7400      7402
      7394      7397      7400      7403      7395      7394      7397      7398
      7395      7394      7397      7399      7395      7394      7397      7400
      7396      7394      7397      7398      7396      7394      7397      7399
      7396      7394      7397      7400      7397      7400      7403      7404
      7397      7400      7403      7405      7397      7400      7403      7406
      7398      7397      7400      7401      7398      7397      7400      7402
      7398      7397      7400      7403      7399      7397      7400      7401
      7399      7397      7400      7402      7399      7397      7400      7403
      7400      7403      7406      7407      7400      7403      7406      7408
      7400      7403      7406      7409      7401      7400      7403      7404
      7401      7400      7403      7405      7401      7400      7403      7406
      7402      7400      7403      7404      7402      7400      7403      7405
      7402      7400      7403      7406      7403      7406      7409      7410
      7403      7406      7409      7411      7403      7406      7409      7412
      7404      7403      7406      7407      7404      7403      7406      7408
      7404      7403      7406      7409      7405      7403      7406      7407
      7405      7403      7406      7408      7405      7403      7406      7409
      7406      7409      7412      7413      7406      7409      7412      7414
      7406      7409      7412      7415      7407      7406      7409      7410
      7407      7406      7409      7411      7407      7406      7409      7412
      7408      7406      7409      7410      7408      7406      7409      7411
      7408      7406      7409      7412      7409      7412      7415      7416
      7409      7412      7415      7417      7409      7412      7415      7418
      7410      7409      7412      7413      7410      7409      7412      7414
      7410      7409      7412      7415      7411      7409      7412      7413
      7411      7409      7412      7414      7411      7409      7412      7415
      7412      7415      7418      7419      7412      7415      7418      7420
      7412      7415      7418      7421      7413      7412      7415      7416
      7413      7412      7415      7417      7413      7412      7415      7418
      7414      7412      7415      7416      7414      7412      7415      7417
      7414      7412      7415      7418      7415      7418      7421      7422
      7415      7418      7421      7423      7415      7418      7421      7424
      7416      7415      7418      7419      7416      7415      7418      7420
      7416      7415      7418      7421      7417      7415      7418      7419
      7417      7415      7418      7420      7417      7415      7418      7421
      7418      7421      7424      7425      7418      7421      7424      7426
      7418      7421      7424      7427      7419      7418      7421      7422
      7419      7418      7421      7423      7419      7418      7421      7424
      7420      7418      7421      7422      7420      7418      7421      7423
      7420      7418      7421      7424      7422      7421      7424      7425
      7422      7421      7424      7426      7422      7421      7424      7427
      7423      7421      7424      7425      7423      7421      7424      7426
      7423      7421      7424      7427      7428      7429      7444      7445
      7428      7429      7444      7446      7428      7429      7444      7450
      7429      7428      7432      7433      7429      7428      7432      7434
      7429      7428      7432      7435      7429      7428      7436      7437
      7429      7428      7436      7438      7429      7428      7436      7439
      7429      7428      7440      7441      7429      7428      7440      7442
      7429      7428      7440      7443      7429      7444      7450      7447
      7430      7429      7428      7432      7430      7429      7428      7436
      7430      7429      7428      7440      7430      7429      7444      7445
      7430      7429      7444      7446      7430      7429      7444      7450
      7431      7429      7428      7432      7431      7429      7428      7436
      7431      7429      7428      7440      7431      7429      7444      7445
      7431      7429      7444      7446      7431      7429      7444      7450
      7432      7428      7429      7444      7432      7428      7436      7437
      7432      7428      7436      7438      7432      7428      7436      7439
      7432      7428      7440      7441      7432      7428      7440      7442
      7432      7428      7440      7443      7433      7432      7428      7436
      7433      7432      7428      7440      7434      7432      7428      7436
      7434      7432      7428      7440      7435      7432      7428      7436
      7435      7432      7428      7440      7436      7428      7429      7444
      7436      7428      7440      7441      7436      7428      7440      7442
      7436      7428      7440      7443      7437      7436      7428      7440
      7438      7436      7428      7440      7439      7436      7428      7440
      7440      7428      7429      7444      7444      7450      7447      7448
      7444      7450      7447      7449      7444      7450      7447      7451
      7445      7444      7450      7447      7446      7444      7450      7447
      7447      7451      7452      7453      7447      7451      7452      7454
      7447      7451      7452      7455      7448      7447      7451      7452
      7449      7447      7451      7452      7450      7447      7451      7452
      7451      7452      7455      7456      7451      7452      7455      7457
      7451      7452      7455      7463      7452      7455      7457      7458
      7452      7455      7463      7464      7452      7455      7463      7465
      7452      7455      7463      7466      7453      7452      7455      7456
      7453      7452      7455      7457      7453      7452      7455      7463
      7454      7452      7455      7456      7454      7452      7455      7457
      7454      7452      7455      7463      7455      7457      7458      7459
      7455      7457      7458      7460      7455      7463      7466      7467
      7456      7455      7457      7458      7456      7455      7463      7464
      7456      7455      7463      7465      7456      7455      7463      7466
      7457      7455      7463      7464      7457      7455      7463      7465
      7457      7455      7463      7466      7457      7458      7460      7461
      7457      7458      7460      7462      7457      7458      7460      7472
      7458      7457      7455      7463      7458      7460      7472      7473
      7458      7460      7472      7474      7458      7460      7472      7475
      7459      7458      7460      7461      7459      7458      7460      7462
      7459      7458      7460      7472      7460      7472      7475      7476
      7460      7472      7475      7477      7460      7472      7475      7478
      7461      7460      7472      7473      7461      7460      7472      7474
      7461      7460      7472      7475      7462      7460      7472      7473
      7462      7460      7472      7474      7462      7460      7472      7475
      7463      7466      7467      7468      7463      7466      7467      7469
      7464      7463      7466      7467      7465      7463      7466      7467
      7466      7467      7469      7470      7466      7467      7469      7471
      7466      7467      7469      7519      7467      7469      7519      7520
      7467      7469      7519      7521      7467      7469      7519      7522
      7468      7467      7469      7470      7468      7467      7469      7471
      7468      7467      7469      7519      7469      7519      7522      7523
      7469      7519      7522      7524      7469      7519      7522      7525
      7470      7469      7519      7520      7470      7469      7519      7521
      7470      7469      7519      7522      7471      7469      7519      7520
      7471      7469      7519      7521      7471      7469      7519      7522
      7472      7475      7478      7479      7472      7475      7478      7480
      7472      7475      7478      7481      7473      7472      7475      7476
      7473      7472      7475      7477      7473      7472      7475      7478
      7474      7472      7475      7476      7474      7472      7475      7477
      7474      7472      7475      7478      7475      7478      7481      7482
      7475      7478      7481      7483      7475      7478      7481      7484
      7476      7475      7478      7479      7476      7475      7478      7480
      7476      7475      7478      7481      7477      7475      7478      7479
      7477      7475      7478      7480      7477      7475      7478      7481
      7478      7481      7484      7485      7478      7481      7484      7486
      7478      7481      7484      7487      7479      7478      7481      7482
      7479      7478      7481      7483      7479      7478      7481      7484
      7480      7478      7481      7482      7480      7478      7481      7483
      7480      7478      7481      7484      7481      7484      7487      7488
      7481      7484      7487      7489      7481      7484      7487      7490
      7482      7481      7484      7485      7482      7481      7484      7486
      7482      7481      7484      7487      7483      7481      7484      7485
      7483      7481      7484      7486      7483      7481      7484      7487
      7484      7487      7490      7491      7484      7487      7490      7492
      7485      7484      7487      7488      7485      7484      7487      7489
      7485      7484      7487      7490      7486      7484      7487      7488
      7486      7484      7487      7489      7486      7484      7487      7490
      7487      7490      7492      7493      7487      7490      7492      7494
      7488      7487      7490      7491      7488      7487      7490      7492
      7489      7487      7490      7491      7489      7487      7490      7492
      7490      7492      7494      7495      7490      7492      7494      7496
      7490      7492      7494      7497      7491      7490      7492      7493
      7491      7490      7492      7494      7492      7494      7497      7498
      7492      7494      7497      7499      7492      7494      7497      7500
      7493      7492      7494      7495      7493      7492      7494      7496
      7493      7492      7494      7497      7494      7497      7500      7501
      7494      7497      7500      7502      7494      7497      7500      7503
      7495      7494      7497      7498      7495      7494      7497      7499
      7495      7494      7497      7500      7496      7494      7497      7498
      7496      7494      7497      7499      7496      7494      7497      7500
      7497      7500      7503      7504      7497      7500      7503      7505
      7497      7500      7503      7506      7498      7497      7500      7501
      7498      7497      7500      7502      7498      7497      7500      7503
      7499      7497      7500      7501      7499      7497      7500      7502
      7499      7497      7500      7503      7500      7503      7506      7507
      7500      7503      7506      7508      7500      7503      7506      7509
      7501      7500      7503      7504      7501      7500      7503      7505
      7501      7500      7503      7506      7502      7500      7503      7504
      7502      7500      7503      7505      7502      7500      7503      7506
      7503      7506      7509      7510      7503      7506      7509      7511
      7503      7506      7509      7512      7504      7503      7506      7507
      7504      7503      7506      7508      7504      7503      7506      7509
      7505      7503      7506      7507      7505      7503      7506      7508
      7505      7503      7506      7509      7506      7509      7512      7513
      7506      7509      7512      7514      7506      7509      7512      7515
      7507      7506      7509      7510      7507      7506      7509      7511
      7507      7506      7509      7512      7508      7506      7509      7510
      7508      7506      7509      7511      7508      7506      7509      7512
      7509      7512      7515      7516      7509      7512      7515      7517
      7509      7512      7515      7518      7510      7509      7512      7513
      7510      7509      7512      7514      7510      7509      7512      7515
      7511      7509      7512      7513      7511      7509      7512      7514
      7511      7509      7512      7515      7513      7512      7515      7516
      7513      7512      7515      7517      7513      7512      7515      7518
      7514      7512      7515      7516      7514      7512      7515      7517
      7514      7512      7515      7518      7519      7522      7525      7526
      7519      7522      7525      7527      7519      7522      7525      7528
      7520      7519      7522      7523      7520      7519      7522      7524
      7520      7519      7522      7525      7521      7519      7522      7523
      7521      7519      7522      7524      7521      7519      7522      7525
      7522      7525      7528      7529      7522      7525      7528      7530
      7522      7525      7528      7531      7523      7522      7525      7526
      7523      7522      7525      7527      7523      7522      7525      7528
      7524      7522      7525      7526      7524      7522      7525      7527
      7524      7522      7525      7528      7525      7528      7531      7532
      7525      7528      7531      7533      7525      7528      7531      7534
      7526      7525      7528      7529      7526      7525      7528      7530
      7526      7525      7528      7531      7527      7525      7528      7529
      7527      7525      7528      7530      7527      7525      7528      7531
      7528      7531      7534      7535      7528      7531      7534      7536
      7528      7531      7534      7537      7529      7528      7531      7532
      7529      7528      7531      7533      7529      7528      7531      7534
      7530      7528      7531      7532      7530      7528      7531      7533
      7530      7528      7531      7534      7531      7534      7537      7538
      7531      7534      7537      7539      7531      7534      7537      7540
      7532      7531      7534      7535      7532      7531      7534      7536
      7532      7531      7534      7537      7533      7531      7534      7535
      7533      7531      7534      7536      7533      7531      7534      7537
      7534      7537      7540      7541      7534      7537      7540      7542
      7534      7537      7540      7543      7535      7534      7537      7538
      7535      7534      7537      7539      7535      7534      7537      7540
      7536      7534      7537      7538      7536      7534      7537      7539
      7536      7534      7537      7540      7537      7540      7543      7544
      7537      7540      7543      7545      7537      7540      7543      7546
      7538      7537      7540      7541      7538      7537      7540      7542
      7538      7537      7540      7543      7539      7537      7540      7541
      7539      7537      7540      7542      7539      7537      7540      7543
      7540      7543      7546      7547      7540      7543      7546      7548
      7540      7543      7546      7549      7541      7540      7543      7544
      7541      7540      7543      7545      7541      7540      7543      7546
      7542      7540      7543      7544      7542      7540      7543      7545
      7542      7540      7543      7546      7543      7546      7549      7550
      7543      7546      7549      7551      7543      7546      7549      7552
      7544      7543      7546      7547      7544      7543      7546      7548
      7544      7543      7546      7549      7545      7543      7546      7547
      7545      7543      7546      7548      7545      7543      7546      7549
      7546      7549      7552      7553      7546      7549      7552      7554
      7546      7549      7552      7555      7547      7546      7549      7550
      7547      7546      7549      7551      7547      7546      7549      7552
      7548      7546      7549      7550      7548      7546      7549      7551
      7548      7546      7549      7552      7549      7552      7555      7556
      7549      7552      7555      7557      7549      7552      7555      7558
      7550      7549      7552      7553      7550      7549      7552      7554
      7550      7549      7552      7555      7551      7549      7552      7553
      7551      7549      7552      7554      7551      7549      7552      7555
      7552      7555      7558      7559      7552      7555      7558      7560
      7552      7555      7558      7561      7553      7552      7555      7556
      7553      7552      7555      7557      7553      7552      7555      7558
      7554      7552      7555      7556      7554      7552      7555      7557
      7554      7552      7555      7558      7556      7555      7558      7559
      7556      7555      7558      7560      7556      7555      7558      7561
      7557      7555      7558      7559      7557      7555      7558      7560
      7557      7555      7558      7561      7562      7563      7578      7579
      7562      7563      7578      7580      7562      7563      7578      7584
      7563      7562      7566      7567      7563      7562      7566      7568
      7563      7562      7566      7569      7563      7562      7570      7571
      7563      7562      7570      7572      7563      7562      7570      7573
      7563      7562      7574      7575      7563      7562      7574      7576
      7563      7562      7574      7577      7563      7578      7584      7581
      7564      7563      7562      7566      7564      7563      7562      7570
      7564      7563      7562      7574      7564      7563      7578      7579
      7564      7563      7578      7580      7564      7563      7578      7584
      7565      7563      7562      7566      7565      7563      7562      7570
      7565      7563      7562      7574      7565      7563      7578      7579
      7565      7563      7578      7580      7565      7563      7578      7584
      7566      7562      7563      7578      7566      7562      7570      7571
      7566      7562      7570      7572      7566      7562      7570      7573
      7566      7562      7574      7575      7566      7562      7574      7576
      7566      7562      7574      7577      7567      7566      7562      7570
      7567      7566      7562      7574      7568      7566      7562      7570
      7568      7566      7562      7574      7569      7566      7562      7570
      7569      7566      7562      7574      7570      7562      7563      7578
      7570      7562      7574      7575      7570      7562      7574      7576
      7570      7562      7574      7577      7571      7570      7562      7574
      7572      7570      7562      7574      7573      7570      7562      7574
      7574      7562      7563      7578      7578      7584      7581      7582
      7578      7584      7581      7583      7578      7584      7581      7585
      7579      7578      7584      7581      7580      7578      7584      7581
      7581      7585      7586      7587      7581      7585      7586      7588
      7581      7585      7586      7589      7582      7581      7585      7586
      7583      7581      7585      7586      7584      7581      7585      7586
      7585      7586      7589      7590      7585      7586      7589      7591
      7585      7586      7589      7597      7586      7589      7591      7592
      7586      7589      7597      7598      7586      7589      7597      7599
      7586      7589      7597      7600      7587      7586      7589      7590
      7587      7586      7589      7591      7587      7586      7589      7597
      7588      7586      7589      7590      7588      7586      7589      7591
      7588      7586      7589      7597      7589      7591      7592      7593
      7589      7591      7592      7594      7589      7597      7600      7601
      7590      7589      7591      7592      7590      7589      7597      7598
      7590      7589      7597      7599      7590      7589      7597      7600
      7591      7589      7597      7598      7591      7589      7597      7599
      7591      7589      7597      7600      7591      7592      7594      7595
      7591      7592      7594      7596      7591      7592      7594      7606
      7592      7591      7589      7597      7592      7594      7606      7607
      7592      7594      7606      7608      7592      7594      7606      7609
      7593      7592      7594      7595      7593      7592      7594      7596
      7593      7592      7594      7606      7594      7606      7609      7610
      7594      7606      7609      7611      7594      7606      7609      7612
      7595      7594      7606      7607      7595      7594      7606      7608
      7595      7594      7606      7609      7596      7594      7606      7607
      7596      7594      7606      7608      7596      7594      7606      7609
      7597      7600      7601      7602      7597      7600      7601      7603
      7598      7597      7600      7601      7599      7597      7600      7601
      7600      7601      7603      7604      7600      7601      7603      7605
      7600      7601      7603      7653      7601      7603      7653      7654
      7601      7603      7653      7655      7601      7603      7653      7656
      7602      7601      7603      7604      7602      7601      7603      7605
      7602      7601      7603      7653      7603      7653      7656      7657
      7603      7653      7656      7658      7603      7653      7656      7659
      7604      7603      7653      7654      7604      7603      7653      7655
      7604      7603      7653      7656      7605      7603      7653      7654
      7605      7603      7653      7655      7605      7603      7653      7656
      7606      7609      7612      7613      7606      7609      7612      7614
      7606      7609      7612      7615      7607      7606      7609      7610
      7607      7606      7609      7611      7607      7606      7609      7612
      7608      7606      7609      7610      7608      7606      7609      7611
      7608      7606      7609      7612      7609      7612      7615      7616
      7609      7612      7615      7617      7609      7612      7615      7618
      7610      7609      7612      7613      7610      7609      7612      7614
      7610      7609      7612      7615      7611      7609      7612      7613
      7611      7609      7612      7614      7611      7609      7612      7615
      7612      7615      7618      7619      7612      7615      7618      7620
      7612      7615      7618      7621      7613      7612      7615      7616
      7613      7612      7615      7617      7613      7612      7615      7618
      7614      7612      7615      7616      7614      7612      7615      7617
      7614      7612      7615      7618      7615      7618      7621      7622
      7615      7618      7621      7623      7615      7618      7621      7624
      7616      7615      7618      7619      7616      7615      7618      7620
      7616      7615      7618      7621      7617      7615      7618      7619
      7617      7615      7618      7620      7617      7615      7618      7621
      7618      7621      7624      7625      7618      7621      7624      7626
      7619      7618      7621      7622      7619      7618      7621      7623
      7619      7618      7621      7624      7620      7618      7621      7622
      7620      7618      7621      7623      7620      7618      7621      7624
      7621      7624      7626      7627      7621      7624      7626      7628
      7622      7621      7624      7625      7622      7621      7624      7626
      7623      7621      7624      7625      7623      7621      7624      7626
      7624      7626      7628      7629      7624      7626      7628      7630
      7624      7626      7628      7631      7625      7624      7626      7627
      7625      7624      7626      7628      7626      7628      7631      7632
      7626      7628      7631      7633      7626      7628      7631      7634
      7627      7626      7628      7629      7627      7626      7628      7630
      7627      7626      7628      7631      7628      7631      7634      7635
      7628      7631      7634      7636      7628      7631      7634      7637
      7629      7628      7631      7632      7629      7628      7631      7633
      7629      7628      7631      7634      7630      7628      7631      7632
      7630      7628      7631      7633      7630      7628      7631      7634
      7631      7634      7637      7638      7631      7634      7637      7639
      7631      7634      7637      7640      7632      7631      7634      7635
      7632      7631      7634      7636      7632      7631      7634      7637
      7633      7631      7634      7635      7633      7631      7634      7636
      7633      7631      7634      7637      7634      7637      7640      7641
      7634      7637      7640      7642      7634      7637      7640      7643
      7635      7634      7637      7638      7635      7634      7637      7639
      7635      7634      7637      7640      7636      7634      7637      7638
      7636      7634      7637      7639      7636      7634      7637      7640
      7637      7640      7643      7644      7637      7640      7643      7645
      7637      7640      7643      7646      7638      7637      7640      7641
      7638      7637      7640      7642      7638      7637      7640      7643
      7639      7637      7640      7641      7639      7637      7640      7642
      7639      7637      7640      7643      7640      7643      7646      7647
      7640      7643      7646      7648      7640      7643      7646      7649
      7641      7640      7643      7644      7641      7640      7643      7645
      7641      7640      7643      7646      7642      7640      7643      7644
      7642      7640      7643      7645      7642      7640      7643      7646
      7643      7646      7649      7650      7643      7646      7649      7651
      7643      7646      7649      7652      7644      7643      7646      7647
      7644      7643      7646      7648      7644      7643      7646      7649
      7645      7643      7646      7647      7645      7643      7646      7648
      7645      7643      7646      7649      7647      7646      7649      7650
      7647      7646      7649      7651      7647      7646      7649      7652
      7648      7646      7649      7650      7648      7646      7649      7651
      7648      7646      7649      7652      7653      7656      7659      7660
      7653      7656      7659      7661      7653      7656      7659      7662
      7654      7653      7656      7657      7654      7653      7656      7658
      7654      7653      7656      7659      7655      7653      7656      7657
      7655      7653      7656      7658      7655      7653      7656      7659
      7656      7659      7662      7663      7656      7659      7662      7664
      7656      7659      7662      7665      7657      7656      7659      7660
      7657      7656      7659      7661      7657      7656      7659      7662
      7658      7656      7659      7660      7658      7656      7659      7661
      7658      7656      7659      7662      7659      7662      7665      7666
      7659      7662      7665      7667      7659      7662      7665      7668
      7660      7659      7662      7663      7660      7659      7662      7664
      7660      7659      7662      7665      7661      7659      7662      7663
      7661      7659      7662      7664      7661      7659      7662      7665
      7662      7665      7668      7669      7662      7665      7668      7670
      7662      7665      7668      7671      7663      7662      7665      7666
      7663      7662      7665      7667      7663      7662      7665      7668
      7664      7662      7665      7666      7664      7662      7665      7667
      7664      7662      7665      7668      7665      7668      7671      7672
      7665      7668      7671      7673      7665      7668      7671      7674
      7666      7665      7668      7669      7666      7665      7668      7670
      7666      7665      7668      7671      7667      7665      7668      7669
      7667      7665      7668      7670      7667      7665      7668      7671
      7668      7671      7674      7675      7668      7671      7674      7676
      7668      7671      7674      7677      7669      7668      7671      7672
      7669      7668      7671      7673      7669      7668      7671      7674
      7670      7668      7671      7672      7670      7668      7671      7673
      7670      7668      7671      7674      7671      7674      7677      7678
      7671      7674      7677      7679      7671      7674      7677      7680
      7672      7671      7674      7675      7672      7671      7674      7676
      7672      7671      7674      7677      7673      7671      7674      7675
      7673      7671      7674      7676      7673      7671      7674      7677
      7674      7677      7680      7681      7674      7677      7680      7682
      7674      7677      7680      7683      7675      7674      7677      7678
      7675      7674      7677      7679      7675      7674      7677      7680
      7676      7674      7677      7678      7676      7674      7677      7679
      7676      7674      7677      7680      7677      7680      7683      7684
      7677      7680      7683      7685      7677      7680      7683      7686
      7678      7677      7680      7681      7678      7677      7680      7682
      7678      7677      7680      7683      7679      7677      7680      7681
      7679      7677      7680      7682      7679      7677      7680      7683
      7680      7683      7686      7687      7680      7683      7686      7688
      7680      7683      7686      7689      7681      7680      7683      7684
      7681      7680      7683      7685      7681      7680      7683      7686
      7682      7680      7683      7684      7682      7680      7683      7685
      7682      7680      7683      7686      7683      7686      7689      7690
      7683      7686      7689      7691      7683      7686      7689      7692
      7684      7683      7686      7687      7684      7683      7686      7688
      7684      7683      7686      7689      7685      7683      7686      7687
      7685      7683      7686      7688      7685      7683      7686      7689
      7686      7689      7692      7693      7686      7689      7692      7694
      7686      7689      7692      7695      7687      7686      7689      7690
      7687      7686      7689      7691      7687      7686      7689      7692
      7688      7686      7689      7690      7688      7686      7689      7691
      7688      7686      7689      7692      7690      7689      7692      7693
      7690      7689      7692      7694      7690      7689      7692      7695
      7691      7689      7692      7693      7691      7689      7692      7694
      7691      7689      7692      7695      7696      7697      7712      7713
      7696      7697      7712      7714      7696      7697      7712      7718
      7697      7696      7700      7701      7697      7696      7700      7702
      7697      7696      7700      7703      7697      7696      7704      7705
      7697      7696      7704      7706      7697      7696      7704      7707
      7697      7696      7708      7709      7697      7696      7708      7710
      7697      7696      7708      7711      7697      7712      7718      7715
      7698      7697      7696      7700      7698      7697      7696      7704
      7698      7697      7696      7708      7698      7697      7712      7713
      7698      7697      7712      7714      7698      7697      7712      7718
      7699      7697      7696      7700      7699      7697      7696      7704
      7699      7697      7696      7708      7699      7697      7712      7713
      7699      7697      7712      7714      7699      7697      7712      7718
      7700      7696      7697      7712      7700      7696      7704      7705
      7700      7696      7704      7706      7700      7696      7704      7707
      7700      7696      7708      7709      7700      7696      7708      7710
      7700      7696      7708      7711      7701      7700      7696      7704
      7701      7700      7696      7708      7702      7700      7696      7704
      7702      7700      7696      7708      7703      7700      7696      7704
      7703      7700      7696      7708      7704      7696      7697      7712
      7704      7696      7708      7709      7704      7696      7708      7710
      7704      7696      7708      7711      7705      7704      7696      7708
      7706      7704      7696      7708      7707      7704      7696      7708
      7708      7696      7697      7712      7712      7718      7715      7716
      7712      7718      7715      7717      7712      7718      7715      7719
      7713      7712      7718      7715      7714      7712      7718      7715
      7715      7719      7720      7721      7715      7719      7720      7722
      7715      7719      7720      7723      7716      7715      7719      7720
      7717      7715      7719      7720      7718      7715      7719      7720
      7719      7720      7723      7724      7719      7720      7723      7725
      7719      7720      7723      7731      7720      7723      7725      7726
      7720      7723      7731      7732      7720      7723      7731      7733
      7720      7723      7731      7734      7721      7720      7723      7724
      7721      7720      7723      7725      7721      7720      7723      7731
      7722      7720      7723      7724      7722      7720      7723      7725
      7722      7720      7723      7731      7723      7725      7726      7727
      7723      7725      7726      7728      7723      7731      7734      7735
      7724      7723      7725      7726      7724      7723      7731      7732
      7724      7723      7731      7733      7724      7723      7731      7734
      7725      7723      7731      7732      7725      7723      7731      7733
      7725      7723      7731      7734      7725      7726      7728      7729
      7725      7726      7728      7730      7725      7726      7728      7740
      7726      7725      7723      7731      7726      7728      7740      7741
      7726      7728      7740      7742      7726      7728      7740      7743
      7727      7726      7728      7729      7727      7726      7728      7730
      7727      7726      7728      7740      7728      7740      7743      7744
      7728      7740      7743      7745      7728      7740      7743      7746
      7729      7728      7740      7741      7729      7728      7740      7742
      7729      7728      7740      7743      7730      7728      7740      7741
      7730      7728      7740      7742      7730      7728      7740      7743
      7731      7734      7735      7736      7731      7734      7735      7737
      7732      7731      7734      7735      7733      7731      7734      7735
      7734      7735      7737      7738      7734      7735      7737      7739
      7734      7735      7737      7787      7735      7737      7787      7788
      7735      7737      7787      7789      7735      7737      7787      7790
      7736      7735      7737      7738      7736      7735      7737      7739
      7736      7735      7737      7787      7737      7787      7790      7791
      7737      7787      7790      7792      7737      7787      7790      7793
      7738      7737      7787      7788      7738      7737      7787      7789
      7738      7737      7787      7790      7739      7737      7787      7788
      7739      7737      7787      7789      7739      7737      7787      7790
      7740      7743      7746      7747      7740      7743      7746      7748
      7740      7743      7746      7749      7741      7740      7743      7744
      7741      7740      7743      7745      7741      7740      7743      7746
      7742      7740      7743      7744      7742      7740      7743      7745
      7742      7740      7743      7746      7743      7746      7749      7750
      7743      7746      7749      7751      7743      7746      7749      7752
      7744      7743      7746      7747      7744      7743      7746      7748
      7744      7743      7746      7749      7745      7743      7746      7747
      7745      7743      7746      7748      7745      7743      7746      7749
      7746      7749      7752      7753      7746      7749      7752      7754
      7746      7749      7752      7755      7747      7746      7749      7750
      7747      7746      7749      7751      7747      7746      7749      7752
      7748      7746      7749      7750      7748      7746      7749      7751
      7748      7746      7749      7752      7749      7752      7755      7756
      7749      7752      7755      7757      7749      7752      7755      7758
      7750      7749      7752      7753      7750      7749      7752      7754
      7750      7749      7752      7755      7751      7749      7752      7753
      7751      7749      7752      7754      7751      7749      7752      7755
      7752      7755      7758      7759      7752      7755      7758      7760
      7753      7752      7755      7756      7753      7752      7755      7757
      7753      7752      7755      7758      7754      7752      7755      7756
      7754      7752      7755      7757      7754      7752      7755      7758
      7755      7758      7760      7761      7755      7758      7760      7762
      7756      7755      7758      7759      7756      7755      7758      7760
      7757      7755      7758      7759      7757      7755      7758      7760
      7758      7760      7762      7763      7758      7760      7762      7764
      7758      7760      7762      7765      7759      7758      7760      7761
      7759      7758      7760      7762      7760      7762      7765      7766
      7760      7762      7765      7767      7760      7762      7765      7768
      7761      7760      7762      7763      7761      7760      7762      7764
      7761      7760      7762      7765      7762      7765      7768      7769
      7762      7765      7768      7770      7762      7765      7768      7771
      7763      7762      7765      7766      7763      7762      7765      7767
      7763      7762      7765      7768      7764      7762      7765      7766
      7764      7762      7765      7767      7764      7762      7765      7768
      7765      7768      7771      7772      7765      7768      7771      7773
      7765      7768      7771      7774      7766      7765      7768      7769
      7766      7765      7768      7770      7766      7765      7768      7771
      7767      7765      7768      7769      7767      7765      7768      7770
      7767      7765      7768      7771      7768      7771      7774      7775
      7768      7771      7774      7776      7768      7771      7774      7777
      7769      7768      7771      7772      7769      7768      7771      7773
      7769      7768      7771      7774      7770      7768      7771      7772
      7770      7768      7771      7773      7770      7768      7771      7774
      7771      7774      7777      7778      7771      7774      7777      7779
      7771      7774      7777      7780      7772      7771      7774      7775
      7772      7771      7774      7776      7772      7771      7774      7777
      7773      7771      7774      7775      7773      7771      7774      7776
      7773      7771      7774      7777      7774      7777      7780      7781
      7774      7777      7780      7782      7774      7777      7780      7783
      7775      7774      7777      7778      7775      7774      7777      7779
      7775      7774      7777      7780      7776      7774      7777      7778
      7776      7774      7777      7779      7776      7774      7777      7780
      7777      7780      7783      7784      7777      7780      7783      7785
      7777      7780      7783      7786      7778      7777      7780      7781
      7778      7777      7780      7782      7778      7777      7780      7783
      7779      7777      7780      7781      7779      7777      7780      7782
      7779      7777      7780      7783      7781      7780      7783      7784
      7781      7780      7783      7785      7781      7780      7783      7786
      7782      7780      7783      7784      7782      7780      7783      7785
      7782      7780      7783      7786      7787      7790      7793      7794
      7787      7790      7793      7795      7787      7790      7793      7796
      7788      7787      7790      7791      7788      7787      7790      7792
      7788      7787      7790      7793      7789      7787      7790      7791
      7789      7787      7790      7792      7789      7787      7790      7793
      7790      7793      7796      7797      7790      7793      7796      7798
      7790      7793      7796      7799      7791      7790      7793      7794
      7791      7790      7793      7795      7791      7790      7793      7796
      7792      7790      7793      7794      7792      7790      7793      7795
      7792      7790      7793      7796      7793      7796      7799      7800
      7793      7796      7799      7801      7793      7796      7799      7802
      7794      7793      7796      7797      7794      7793      7796      7798
      7794      7793      7796      7799      7795      7793      7796      7797
      7795      7793      7796      7798      7795      7793      7796      7799
      7796      7799      7802      7803      7796      7799      7802      7804
      7796      7799      7802      7805      7797      7796      7799      7800
      7797      7796      7799      7801      7797      7796      7799      7802
      7798      7796      7799      7800      7798      7796      7799      7801
      7798      7796      7799      7802      7799      7802      7805      7806
      7799      7802      7805      7807      7799      7802      7805      7808
      7800      7799      7802      7803      7800      7799      7802      7804
      7800      7799      7802      7805      7801      7799      7802      7803
      7801      7799      7802      7804      7801      7799      7802      7805
      7802      7805      7808      7809      7802      7805      7808      7810
      7802      7805      7808      7811      7803      7802      7805      7806
      7803      7802      7805      7807      7803      7802      7805      7808
      7804      7802      7805      7806      7804      7802      7805      7807
      7804      7802      7805      7808      7805      7808      7811      7812
      7805      7808      7811      7813      7805      7808      7811      7814
      7806      7805      7808      7809      7806      7805      7808      7810
      7806      7805      7808      7811      7807      7805      7808      7809
      7807      7805      7808      7810      7807      7805      7808      7811
      7808      7811      7814      7815      7808      7811      7814      7816
      7808      7811      7814      7817      7809      7808      7811      7812
      7809      7808      7811      7813      7809      7808      7811      7814
      7810      7808      7811      7812      7810      7808      7811      7813
      7810      7808      7811      7814      7811      7814      7817      7818
      7811      7814      7817      7819      7811      7814      7817      7820
      7812      7811      7814      7815      7812      7811      7814      7816
      7812      7811      7814      7817      7813      7811      7814      7815
      7813      7811      7814      7816      7813      7811      7814      7817
      7814      7817      7820      7821      7814      7817      7820      7822
      7814      7817      7820      7823      7815      7814      7817      7818
      7815      7814      7817      7819      7815      7814      7817      7820
      7816      7814      7817      7818      7816      7814      7817      7819
      7816      7814      7817      7820      7817      7820      7823      7824
      7817      7820      7823      7825      7817      7820      7823      7826
      7818      7817      7820      7821      7818      7817      7820      7822
      7818      7817      7820      7823      7819      7817      7820      7821
      7819      7817      7820      7822      7819      7817      7820      7823
      7820      7823      7826      7827      7820      7823      7826      7828
      7820      7823      7826      7829      7821      7820      7823      7824
      7821      7820      7823      7825      7821      7820      7823      7826
      7822      7820      7823      7824      7822      7820      7823      7825
      7822      7820      7823      7826      7824      7823      7826      7827
      7824      7823      7826      7828      7824      7823      7826      7829
      7825      7823      7826      7827      7825      7823      7826      7828
      7825      7823      7826      7829      7830      7831      7846      7847
      7830      7831      7846      7848      7830      7831      7846      7852
      7831      7830      7834      7835      7831      7830      7834      7836
      7831      7830      7834      7837      7831      7830      7838      7839
      7831      7830      7838      7840      7831      7830      7838      7841
      7831      7830      7842      7843      7831      7830      7842      7844
      7831      7830      7842      7845      7831      7846      7852      7849
      7832      7831      7830      7834      7832      7831      7830      7838
      7832      7831      7830      7842      7832      7831      7846      7847
      7832      7831      7846      7848      7832      7831      7846      7852
      7833      7831      7830      7834      7833      7831      7830      7838
      7833      7831      7830      7842      7833      7831      7846      7847
      7833      7831      7846      7848      7833      7831      7846      7852
      7834      7830      7831      7846      7834      7830      7838      7839
      7834      7830      7838      7840      7834      7830      7838      7841
      7834      7830      7842      7843      7834      7830      7842      7844
      7834      7830      7842      7845      7835      7834      7830      7838
      7835      7834      7830      7842      7836      7834      7830      7838
      7836      7834      7830      7842      7837      7834      7830      7838
      7837      7834      7830      7842      7838      7830      7831      7846
      7838      7830      7842      7843      7838      7830      7842      7844
      7838      7830      7842      7845      7839      7838      7830      7842
      7840      7838      7830      7842      7841      7838      7830      7842
      7842      7830      7831      7846      7846      7852      7849      7850
      7846      7852      7849      7851      7846      7852      7849      7853
      7847      7846      7852      7849      7848      7846      7852      7849
      7849      7853      7854      7855      7849      7853      7854      7856
      7849      7853      7854      7857      7850      7849      7853      7854
      7851      7849      7853      7854      7852      7849      7853      7854
      7853      7854      7857      7858      7853      7854      7857      7859
      7853      7854      7857      7865      7854      7857      7859      7860
      7854      7857      7865      7866      7854      7857      7865      7867
      7854      7857      7865      7868      7855      7854      7857      7858
      7855      7854      7857      7859      7855      7854      7857      7865
      7856      7854      7857      7858      7856      7854      7857      7859
      7856      7854      7857      7865      7857      7859      7860      7861
      7857      7859      7860      7862      7857      7865      7868      7869
      7858      7857      7859      7860      7858      7857      7865      7866
      7858      7857      7865      7867      7858      7857      7865      7868
      7859      7857      7865      7866      7859      7857      7865      7867
      7859      7857      7865      7868      7859      7860      7862      7863
      7859      7860      7862      7864      7859      7860      7862      7874
      7860      7859      7857      7865      7860      7862      7874      7875
      7860      7862      7874      7876      7860      7862      7874      7877
      7861      7860      7862      7863      7861      7860      7862      7864
      7861      7860      7862      7874      7862      7874      7877      7878
      7862      7874      7877      7879      7862      7874      7877      7880
      7863      7862      7874      7875      7863      7862      7874      7876
      7863      7862      7874      7877      7864      7862      7874      7875
      7864      7862      7874      7876      7864      7862      7874      7877
      7865      7868      7869      7870      7865      7868      7869      7871
      7866      7865      7868      7869      7867      7865      7868      7869
      7868      7869      7871      7872      7868      7869      7871      7873
      7868      7869      7871      7921      7869      7871      7921      7922
      7869      7871      7921      7923      7869      7871      7921      7924
      7870      7869      7871      7872      7870      7869      7871      7873
      7870      7869      7871      7921      7871      7921      7924      7925
      7871      7921      7924      7926      7871      7921      7924      7927
      7872      7871      7921      7922      7872      7871      7921      7923
      7872      7871      7921      7924      7873      7871      7921      7922
      7873      7871      7921      7923      7873      7871      7921      7924
      7874      7877      7880      7881      7874      7877      7880      7882
      7874      7877      7880      7883      7875      7874      7877      7878
      7875      7874      7877      7879      7875      7874      7877      7880
      7876      7874      7877      7878      7876      7874      7877      7879
      7876      7874      7877      7880      7877      7880      7883      7884
      7877      7880      7883      7885      7877      7880      7883      7886
      7878      7877      7880      7881      7878      7877      7880      7882
      7878      7877      7880      7883      7879      7877      7880      7881
      7879      7877      7880      7882      7879      7877      7880      7883
      7880      7883      7886      7887      7880      7883      7886      7888
      7880      7883      7886      7889      7881      7880      7883      7884
      7881      7880      7883      7885      7881      7880      7883      7886
      7882      7880      7883      7884      7882      7880      7883      7885
      7882      7880      7883      7886      7883      7886      7889      7890
      7883      7886      7889      7891      7883      7886      7889      7892
      7884      7883      7886      7887      7884      7883      7886      7888
      7884      7883      7886      7889      7885      7883      7886      7887
      7885      7883      7886      7888      7885      7883      7886      7889
      7886      7889      7892      7893      7886      7889      7892      7894
      7887      7886      7889      7890      7887      7886      7889      7891
      7887      7886      7889      7892      7888      7886      7889      7890
      7888      7886      7889      7891      7888      7886      7889      7892
      7889      7892      7894      7895      7889      7892      7894      7896
      7890      7889      7892      7893      7890      7889      7892      7894
      7891      7889      7892      7893      7891      7889      7892      7894
      7892      7894      7896      7897      7892      7894      7896      7898
      7892      7894      7896      7899      7893      7892      7894      7895
      7893      7892      7894      7896      7894      7896      7899      7900
      7894      7896      7899      7901      7894      7896      7899      7902
      7895      7894      7896      7897      7895      7894      7896      7898
      7895      7894      7896      7899      7896      7899      7902      7903
      7896      7899      7902      7904      7896      7899      7902      7905
      7897      7896      7899      7900      7897      7896      7899      7901
      7897      7896      7899      7902      7898      7896      7899      7900
      7898      7896      7899      7901      7898      7896      7899      7902
      7899      7902      7905      7906      7899      7902      7905      7907
      7899      7902      7905      7908      7900      7899      7902      7903
      7900      7899      7902      7904      7900      7899      7902      7905
      7901      7899      7902      7903      7901      7899      7902      7904
      7901      7899      7902      7905      7902      7905      7908      7909
      7902      7905      7908      7910      7902      7905      7908      7911
      7903      7902      7905      7906      7903      7902      7905      7907
      7903      7902      7905      7908      7904      7902      7905      7906
      7904      7902      7905      7907      7904      7902      7905      7908
      7905      7908      7911      7912      7905      7908      7911      7913
      7905      7908      7911      7914      7906      7905      7908      7909
      7906      7905      7908      7910      7906      7905      7908      7911
      7907      7905      7908      7909      7907      7905      7908      7910
      7907      7905      7908      7911      7908      7911      7914      7915
      7908      7911      7914      7916      7908      7911      7914      7917
      7909      7908      7911      7912      7909      7908      7911      7913
      7909      7908      7911      7914      7910      7908      7911      7912
      7910      7908      7911      7913      7910      7908      7911      7914
      7911      7914      7917      7918      7911      7914      7917      7919
      7911      7914      7917      7920      7912      7911      7914      7915
      7912      7911      7914      7916      7912      7911      7914      7917
      7913      7911      7914      7915      7913      7911      7914      7916
      7913      7911      7914      7917      7915      7914      7917      7918
      7915      7914      7917      7919      7915      7914      7917      7920
      7916      7914      7917      7918      7916      7914      7917      7919
      7916      7914      7917      7920      7921      7924      7927      7928
      7921      7924      7927      7929      7921      7924      7927      7930
      7922      7921      7924      7925      7922      7921      7924      7926
      7922      7921      7924      7927      7923      7921      7924      7925
      7923      7921      7924      7926      7923      7921      7924      7927
      7924      7927      7930      7931      7924      7927      7930      7932
      7924      7927      7930      7933      7925      7924      7927      7928
      7925      7924      7927      7929      7925      7924      7927      7930
      7926      7924      7927      7928      7926      7924      7927      7929
      7926      7924      7927      7930      7927      7930      7933      7934
      7927      7930      7933      7935      7927      7930      7933      7936
      7928      7927      7930      7931      7928      7927      7930      7932
      7928      7927      7930      7933      7929      7927      7930      7931
      7929      7927      7930      7932      7929      7927      7930      7933
      7930      7933      7936      7937      7930      7933      7936      7938
      7930      7933      7936      7939      7931      7930      7933      7934
      7931      7930      7933      7935      7931      7930      7933      7936
      7932      7930      7933      7934      7932      7930      7933      7935
      7932      7930      7933      7936      7933      7936      7939      7940
      7933      7936      7939      7941      7933      7936      7939      7942
      7934      7933      7936      7937      7934      7933      7936      7938
      7934      7933      7936      7939      7935      7933      7936      7937
      7935      7933      7936      7938      7935      7933      7936      7939
      7936      7939      7942      7943      7936      7939      7942      7944
      7936      7939      7942      7945      7937      7936      7939      7940
      7937      7936      7939      7941      7937      7936      7939      7942
      7938      7936      7939      7940      7938      7936      7939      7941
      7938      7936      7939      7942      7939      7942      7945      7946
      7939      7942      7945      7947      7939      7942      7945      7948
      7940      7939      7942      7943      7940      7939      7942      7944
      7940      7939      7942      7945      7941      7939      7942      7943
      7941      7939      7942      7944      7941      7939      7942      7945
      7942      7945      7948      7949      7942      7945      7948      7950
      7942      7945      7948      7951      7943      7942      7945      7946
      7943      7942      7945      7947      7943      7942      7945      7948
      7944      7942      7945      7946      7944      7942      7945      7947
      7944      7942      7945      7948      7945      7948      7951      7952
      7945      7948      7951      7953      7945      7948      7951      7954
      7946      7945      7948      7949      7946      7945      7948      7950
      7946      7945      7948      7951      7947      7945      7948      7949
      7947      7945      7948      7950      7947      7945      7948      7951
      7948      7951      7954      7955      7948      7951      7954      7956
      7948      7951      7954      7957      7949      7948      7951      7952
      7949      7948      7951      7953      7949      7948      7951      7954
      7950      7948      7951      7952      7950      7948      7951      7953
      7950      7948      7951      7954      7951      7954      7957      7958
      7951      7954      7957      7959      7951      7954      7957      7960
      7952      7951      7954      7955      7952      7951      7954      7956
      7952      7951      7954      7957      7953      7951      7954      7955
      7953      7951      7954      7956      7953      7951      7954      7957
      7954      7957      7960      7961      7954      7957      7960      7962
      7954      7957      7960      7963      7955      7954      7957      7958
      7955      7954      7957      7959      7955      7954      7957      7960
      7956      7954      7957      7958      7956      7954      7957      7959
      7956      7954      7957      7960      7958      7957      7960      7961
      7958      7957      7960      7962      7958      7957      7960      7963
      7959      7957      7960      7961      7959      7957      7960      7962
      7959      7957      7960      7963      7964      7965      7980      7981
      7964      7965      7980      7982      7964      7965      7980      7986
      7965      7964      7968      7969      7965      7964      7968      7970
      7965      7964      7968      7971      7965      7964      7972      7973
      7965      7964      7972      7974      7965      7964      7972      7975
      7965      7964      7976      7977      7965      7964      7976      7978
      7965      7964      7976      7979      7965      7980      7986      7983
      7966      7965      7964      7968      7966      7965      7964      7972
      7966      7965      7964      7976      7966      7965      7980      7981
      7966      7965      7980      7982      7966      7965      7980      7986
      7967      7965      7964      7968      7967      7965      7964      7972
      7967      7965      7964      7976      7967      7965      7980      7981
      7967      7965      7980      7982      7967      7965      7980      7986
      7968      7964      7965      7980      7968      7964      7972      7973
      7968      7964      7972      7974      7968      7964      7972      7975
      7968      7964      7976      7977      7968      7964      7976      7978
      7968      7964      7976      7979      7969      7968      7964      7972
      7969      7968      7964      7976      7970      7968      7964      7972
      7970      7968      7964      7976      7971      7968      7964      7972
      7971      7968      7964      7976      7972      7964      7965      7980
      7972      7964      7976      7977      7972      7964      7976      7978
      7972      7964      7976      7979      7973      7972      7964      7976
      7974      7972      7964      7976      7975      7972      7964      7976
      7976      7964      7965      7980      7980      7986      7983      7984
      7980      7986      7983      7985      7980      7986      7983      7987
      7981      7980      7986      7983      7982      7980      7986      7983
      7983      7987      7988      7989      7983      7987      7988      7990
      7983      7987      7988      7991      7984      7983      7987      7988
      7985      7983      7987      7988      7986      7983      7987      7988
      7987      7988      7991      7992      7987      7988      7991      7993
      7987      7988      7991      7999      7988      7991      7993      7994
      7988      7991      7999      8000      7988      7991      7999      8001
      7988      7991      7999      8002      7989      7988      7991      7992
      7989      7988      7991      7993      7989      7988      7991      7999
      7990      7988      7991      7992      7990      7988      7991      7993
      7990      7988      7991      7999      7991      7993      7994      7995
      7991      7993      7994      7996      7991      7999      8002      8003
      7992      7991      7993      7994      7992      7991      7999      8000
      7992      7991      7999      8001      7992      7991      7999      8002
      7993      7991      7999      8000      7993      7991      7999      8001
      7993      7991      7999      8002      7993      7994      7996      7997
      7993      7994      7996      7998      7993      7994      7996      8008
      7994      7993      7991      7999      7994      7996      8008      8009
      7994      7996      8008      8010      7994      7996      8008      8011
      7995      7994      7996      7997      7995      7994      7996      7998
      7995      7994      7996      8008      7996      8008      8011      8012
      7996      8008      8011      8013      7996      8008      8011      8014
      7997      7996      8008      8009      7997      7996      8008      8010
      7997      7996      8008      8011      7998      7996      8008      8009
      7998      7996      8008      8010      7998      7996      8008      8011
      7999      8002      8003      8004      7999      8002      8003      8005
      8000      7999      8002      8003      8001      7999      8002      8003
      8002      8003      8005      8006      8002      8003      8005      8007
      8002      8003      8005      8055      8003      8005      8055      8056
      8003      8005      8055      8057      8003      8005      8055      8058
      8004      8003      8005      8006      8004      8003      8005      8007
      8004      8003      8005      8055      8005      8055      8058      8059
      8005      8055      8058      8060      8005      8055      8058      8061
      8006      8005      8055      8056      8006      8005      8055      8057
      8006      8005      8055      8058      8007      8005      8055      8056
      8007      8005      8055      8057      8007      8005      8055      8058
      8008      8011      8014      8015      8008      8011      8014      8016
      8008      8011      8014      8017      8009      8008      8011      8012
      8009      8008      8011      8013      8009      8008      8011      8014
      8010      8008      8011      8012      8010      8008      8011      8013
      8010      8008      8011      8014      8011      8014      8017      8018
      8011      8014      8017      8019      8011      8014      8017      8020
      8012      8011      8014      8015      8012      8011      8014      8016
      8012      8011      8014      8017      8013      8011      8014      8015
      8013      8011      8014      8016      8013      8011      8014      8017
      8014      8017      8020      8021      8014      8017      8020      8022
      8014      8017      8020      8023      8015      8014      8017      8018
      8015      8014      8017      8019      8015      8014      8017      8020
      8016      8014      8017      8018      8016      8014      8017      8019
      8016      8014      8017      8020      8017      8020      8023      8024
      8017      8020      8023      8025      8017      8020      8023      8026
      8018      8017      8020      8021      8018      8017      8020      8022
      8018      8017      8020      8023      8019      8017      8020      8021
      8019      8017      8020      8022      8019      8017      8020      8023
      8020      8023      8026      8027      8020      8023      8026      8028
      8021      8020      8023      8024      8021      8020      8023      8025
      8021      8020      8023      8026      8022      8020      8023      8024
      8022      8020      8023      8025      8022      8020      8023      8026
      8023      8026      8028      8029      8023      8026      8028      8030
      8024      8023      8026      8027      8024      8023      8026      8028
      8025      8023      8026      8027      8025      8023      8026      8028
      8026      8028      8030      8031      8026      8028      8030      8032
      8026      8028      8030      8033      8027      8026      8028      8029
      8027      8026      8028      8030      8028      8030      8033      8034
      8028      8030      8033      8035      8028      8030      8033      8036
      8029      8028      8030      8031      8029      8028      8030      8032
      8029      8028      8030      8033      8030      8033      8036      8037
      8030      8033      8036      8038      8030      8033      8036      8039
      8031      8030      8033      8034      8031      8030      8033      8035
      8031      8030      8033      8036      8032      8030      8033      8034
      8032      8030      8033      8035      8032      8030      8033      8036
      8033      8036      8039      8040      8033      8036      8039      8041
      8033      8036      8039      8042      8034      8033      8036      8037
      8034      8033      8036      8038      8034      8033      8036      8039
      8035      8033      8036      8037      8035      8033      8036      8038
      8035      8033      8036      8039      8036      8039      8042      8043
      8036      8039      8042      8044      8036      8039      8042      8045
      8037      8036      8039      8040      8037      8036      8039      8041
      8037      8036      8039      8042      8038      8036      8039      8040
      8038      8036      8039      8041      8038      8036      8039      8042
      8039      8042      8045      8046      8039      8042      8045      8047
      8039      8042      8045      8048      8040      8039      8042      8043
      8040      8039      8042      8044      8040      8039      8042      8045
      8041      8039      8042      8043      8041      8039      8042      8044
      8041      8039      8042      8045      8042      8045      8048      8049
      8042      8045      8048      8050      8042      8045      8048      8051
      8043      8042      8045      8046      8043      8042      8045      8047
      8043      8042      8045      8048      8044      8042      8045      8046
      8044      8042      8045      8047      8044      8042      8045      8048
      8045      8048      8051      8052      8045      8048      8051      8053
      8045      8048      8051      8054      8046      8045      8048      8049
      8046      8045      8048      8050      8046      8045      8048      8051
      8047      8045      8048      8049      8047      8045      8048      8050
      8047      8045      8048      8051      8049      8048      8051      8052
      8049      8048      8051      8053      8049      8048      8051      8054
      8050      8048      8051      8052      8050      8048      8051      8053
      8050      8048      8051      8054      8055      8058      8061      8062
      8055      8058      8061      8063      8055      8058      8061      8064
      8056      8055      8058      8059      8056      8055      8058      8060
      8056      8055      8058      8061      8057      8055      8058      8059
      8057      8055      8058      8060      8057      8055      8058      8061
      8058      8061      8064      8065      8058      8061      8064      8066
      8058      8061      8064      8067      8059      8058      8061      8062
      8059      8058      8061      8063      8059      8058      8061      8064
      8060      8058      8061      8062      8060      8058      8061      8063
      8060      8058      8061      8064      8061      8064      8067      8068
      8061      8064      8067      8069      8061      8064      8067      8070
      8062      8061      8064      8065      8062      8061      8064      8066
      8062      8061      8064      8067      8063      8061      8064      8065
      8063      8061      8064      8066      8063      8061      8064      8067
      8064      8067      8070      8071      8064      8067      8070      8072
      8064      8067      8070      8073      8065      8064      8067      8068
      8065      8064      8067      8069      8065      8064      8067      8070
      8066      8064      8067      8068      8066      8064      8067      8069
      8066      8064      8067      8070      8067      8070      8073      8074
      8067      8070      8073      8075      8067      8070      8073      8076
      8068      8067      8070      8071      8068      8067      8070      8072
      8068      8067      8070      8073      8069      8067      8070      8071
      8069      8067      8070      8072      8069      8067      8070      8073
      8070      8073      8076      8077      8070      8073      8076      8078
      8070      8073      8076      8079      8071      8070      8073      8074
      8071      8070      8073      8075      8071      8070      8073      8076
      8072      8070      8073      8074      8072      8070      8073      8075
      8072      8070      8073      8076      8073      8076      8079      8080
      8073      8076      8079      8081      8073      8076      8079      8082
      8074      8073      8076      8077      8074      8073      8076      8078
      8074      8073      8076      8079      8075      8073      8076      8077
      8075      8073      8076      8078      8075      8073      8076      8079
      8076      8079      8082      8083      8076      8079      8082      8084
      8076      8079      8082      8085      8077      8076      8079      8080
      8077      8076      8079      8081      8077      8076      8079      8082
      8078      8076      8079      8080      8078      8076      8079      8081
      8078      8076      8079      8082      8079      8082      8085      8086
      8079      8082      8085      8087      8079      8082      8085      8088
      8080      8079      8082      8083      8080      8079      8082      8084
      8080      8079      8082      8085      8081      8079      8082      8083
      8081      8079      8082      8084      8081      8079      8082      8085
      8082      8085      8088      8089      8082      8085      8088      8090
      8082      8085      8088      8091      8083      8082      8085      8086
      8083      8082      8085      8087      8083      8082      8085      8088
      8084      8082      8085      8086      8084      8082      8085      8087
      8084      8082      8085      8088      8085      8088      8091      8092
      8085      8088      8091      8093      8085      8088      8091      8094
      8086      8085      8088      8089      8086      8085      8088      8090
      8086      8085      8088      8091      8087      8085      8088      8089
      8087      8085      8088      8090      8087      8085      8088      8091
      8088      8091      8094      8095      8088      8091      8094      8096
      8088      8091      8094      8097      8089      8088      8091      8092
      8089      8088      8091      8093      8089      8088      8091      8094
      8090      8088      8091      8092      8090      8088      8091      8093
      8090      8088      8091      8094      8092      8091      8094      8095
      8092      8091      8094      8096      8092      8091      8094      8097
      8093      8091      8094      8095      8093      8091      8094      8096
      8093      8091      8094      8097      8098      8102      8104      8105
      8098      8102      8104      8106      8098      8102      8107      8108
      8098      8102      8107      8109      8098      8102      8107      8113
      8099      8098      8102      8103      8099      8098      8102      8104
      8099      8098      8102      8107      8100      8098      8102      8103
      8100      8098      8102      8104      8100      8098      8102      8107
      8101      8098      8102      8103      8101      8098      8102      8104
      8101      8098      8102      8107      8102      8107      8113      8110
      8103      8102      8104      8105      8103      8102      8104      8106
      8103      8102      8107      8108      8103      8102      8107      8109
      8103      8102      8107      8113      8104      8102      8107      8108
      8104      8102      8107      8109      8104      8102      8107      8113
      8105      8104      8102      8107      8106      8104      8102      8107
      8107      8113      8110      8111      8107      8113      8110      8112
      8107      8113      8110      8114      8108      8107      8113      8110
      8109      8107      8113      8110      8110      8114      8115      8116
      8110      8114      8115      8117      8110      8114      8115      8118
      8111      8110      8114      8115      8112      8110      8114      8115
      8113      8110      8114      8115      8114      8115      8118      8119
      8114      8115      8118      8120      8114      8115      8118      8126
      8115      8118      8120      8121      8115      8118      8126      8127
      8115      8118      8126      8128      8115      8118      8126      8129
      8116      8115      8118      8119      8116      8115      8118      8120
      8116      8115      8118      8126      8117      8115      8118      8119
      8117      8115      8118      8120      8117      8115      8118      8126
      8118      8120      8121      8122      8118      8120      8121      8123
      8118      8126      8129      8130      8119      8118      8120      8121
      8119      8118      8126      8127      8119      8118      8126      8128
      8119      8118      8126      8129      8120      8118      8126      8127
      8120      8118      8126      8128      8120      8118      8126      8129
      8120      8121      8123      8124      8120      8121      8123      8125
      8120      8121      8123      8135      8121      8120      8118      8126
      8121      8123      8135      8136      8121      8123      8135      8137
      8121      8123      8135      8138      8122      8121      8123      8124
      8122      8121      8123      8125      8122      8121      8123      8135
      8123      8135      8138      8139      8123      8135      8138      8140
      8123      8135      8138      8141      8124      8123      8135      8136
      8124      8123      8135      8137      8124      8123      8135      8138
      8125      8123      8135      8136      8125      8123      8135      8137
      8125      8123      8135      8138      8126      8129      8130      8131
      8126      8129      8130      8132      8127      8126      8129      8130
      8128      8126      8129      8130      8129      8130      8132      8133
      8129      8130      8132      8134      8129      8130      8132      8182
      8130      8132      8182      8183      8130      8132      8182      8184
      8130      8132      8182      8185      8131      8130      8132      8133
      8131      8130      8132      8134      8131      8130      8132      8182
      8132      8182      8185      8186      8132      8182      8185      8187
      8132      8182      8185      8188      8133      8132      8182      8183
      8133      8132      8182      8184      8133      8132      8182      8185
      8134      8132      8182      8183      8134      8132      8182      8184
      8134      8132      8182      8185      8135      8138      8141      8142
      8135      8138      8141      8143      8135      8138      8141      8144
      8136      8135      8138      8139      8136      8135      8138      8140
      8136      8135      8138      8141      8137      8135      8138      8139
      8137      8135      8138      8140      8137      8135      8138      8141
      8138      8141      8144      8145      8138      8141      8144      8146
      8138      8141      8144      8147      8139      8138      8141      8142
      8139      8138      8141      8143      8139      8138      8141      8144
      8140      8138      8141      8142      8140      8138      8141      8143
      8140      8138      8141      8144      8141      8144      8147      8148
      8141      8144      8147      8149      8141      8144      8147      8150
      8142      8141      8144      8145      8142      8141      8144      8146
      8142      8141      8144      8147      8143      8141      8144      8145
      8143      8141      8144      8146      8143      8141      8144      8147
      8144      8147      8150      8151      8144      8147      8150      8152
      8144      8147      8150      8153      8145      8144      8147      8148
      8145      8144      8147      8149      8145      8144      8147      8150
      8146      8144      8147      8148      8146      8144      8147      8149
      8146      8144      8147      8150      8147      8150      8153      8154
      8147      8150      8153      8155      8148      8147      8150      8151
      8148      8147      8150      8152      8148      8147      8150      8153
      8149      8147      8150      8151      8149      8147      8150      8152
      8149      8147      8150      8153      8150      8153      8155      8156
      8150      8153      8155      8157      8151      8150      8153      8154
      8151      8150      8153      8155      8152      8150      8153      8154
      8152      8150      8153      8155      8153      8155      8157      8158
      8153      8155      8157      8159      8153      8155      8157      8160
      8154      8153      8155      8156      8154      8153      8155      8157
      8155      8157      8160      8161      8155      8157      8160      8162
      8155      8157      8160      8163      8156      8155      8157      8158
      8156      8155      8157      8159      8156      8155      8157      8160
      8157      8160      8163      8164      8157      8160      8163      8165
      8157      8160      8163      8166      8158      8157      8160      8161
      8158      8157      8160      8162      8158      8157      8160      8163
      8159      8157      8160      8161      8159      8157      8160      8162
      8159      8157      8160      8163      8160      8163      8166      8167
      8160      8163      8166      8168      8160      8163      8166      8169
      8161      8160      8163      8164      8161      8160      8163      8165
      8161      8160      8163      8166      8162      8160      8163      8164
      8162      8160      8163      8165      8162      8160      8163      8166
      8163      8166      8169      8170      8163      8166      8169      8171
      8163      8166      8169      8172      8164      8163      8166      8167
      8164      8163      8166      8168      8164      8163      8166      8169
      8165      8163      8166      8167      8165      8163      8166      8168
      8165      8163      8166      8169      8166      8169      8172      8173
      8166      8169      8172      8174      8166      8169      8172      8175
      8167      8166      8169      8170      8167      8166      8169      8171
      8167      8166      8169      8172      8168      8166      8169      8170
      8168      8166      8169      8171      8168      8166      8169      8172
      8169      8172      8175      8176      8169      8172      8175      8177
      8169      8172      8175      8178      8170      8169      8172      8173
      8170      8169      8172      8174      8170      8169      8172      8175
      8171      8169      8172      8173      8171      8169      8172      8174
      8171      8169      8172      8175      8172      8175      8178      8179
      8172      8175      8178      8180      8172      8175      8178      8181
      8173      8172      8175      8176      8173      8172      8175      8177
      8173      8172      8175      8178      8174      8172      8175      8176
      8174      8172      8175      8177      8174      8172      8175      8178
      8176      8175      8178      8179      8176      8175      8178      8180
      8176      8175      8178      8181      8177      8175      8178      8179
      8177      8175      8178      8180      8177      8175      8178      8181
      8182      8185      8188      8189      8182      8185      8188      8190
      8182      8185      8188      8191      8183      8182      8185      8186
      8183      8182      8185      8187      8183      8182      8185      8188
      8184      8182      8185      8186      8184      8182      8185      8187
      8184      8182      8185      8188      8185      8188      8191      8192
      8185      8188      8191      8193      8185      8188      8191      8194
      8186      8185      8188      8189      8186      8185      8188      8190
      8186      8185      8188      8191      8187      8185      8188      8189
      8187      8185      8188      8190      8187      8185      8188      8191
      8188      8191      8194      8195      8188      8191      8194      8196
      8188      8191      8194      8197      8189      8188      8191      8192
      8189      8188      8191      8193      8189      8188      8191      8194
      8190      8188      8191      8192      8190      8188      8191      8193
      8190      8188      8191      8194      8191      8194      8197      8198
      8191      8194      8197      8199      8191      8194      8197      8200
      8192      8191      8194      8195      8192      8191      8194      8196
      8192      8191      8194      8197      8193      8191      8194      8195
      8193      8191      8194      8196      8193      8191      8194      8197
      8194      8197      8200      8201      8194      8197      8200      8202
      8194      8197      8200      8203      8195      8194      8197      8198
      8195      8194      8197      8199      8195      8194      8197      8200
      8196      8194      8197      8198      8196      8194      8197      8199
      8196      8194      8197      8200      8197      8200      8203      8204
      8197      8200      8203      8205      8197      8200      8203      8206
      8198      8197      8200      8201      8198      8197      8200      8202
      8198      8197      8200      8203      8199      8197      8200      8201
      8199      8197      8200      8202      8199      8197      8200      8203
      8200      8203      8206      8207      8200      8203      8206      8208
      8200      8203      8206      8209      8201      8200      8203      8204
      8201      8200      8203      8205      8201      8200      8203      8206
      8202      8200      8203      8204      8202      8200      8203      8205
      8202      8200      8203      8206      8203      8206      8209      8210
      8203      8206      8209      8211      8203      8206      8209      8212
      8204      8203      8206      8207      8204      8203      8206      8208
      8204      8203      8206      8209      8205      8203      8206      8207
      8205      8203      8206      8208      8205      8203      8206      8209
      8206      8209      8212      8213      8206      8209      8212      8214
      8206      8209      8212      8215      8207      8206      8209      8210
      8207      8206      8209      8211      8207      8206      8209      8212
      8208      8206      8209      8210      8208      8206      8209      8211
      8208      8206      8209      8212      8209      8212      8215      8216
      8209      8212      8215      8217      8209      8212      8215      8218
      8210      8209      8212      8213      8210      8209      8212      8214
      8210      8209      8212      8215      8211      8209      8212      8213
      8211      8209      8212      8214      8211      8209      8212      8215
      8212      8215      8218      8219      8212      8215      8218      8220
      8212      8215      8218      8221      8213      8212      8215      8216
      8213      8212      8215      8217      8213      8212      8215      8218
      8214      8212      8215      8216      8214      8212      8215      8217
      8214      8212      8215      8218      8215      8218      8221      8222
      8215      8218      8221      8223      8215      8218      8221      8224
      8216      8215      8218      8219      8216      8215      8218      8220
      8216      8215      8218      8221      8217      8215      8218      8219
      8217      8215      8218      8220      8217      8215      8218      8221
      8219      8218      8221      8222      8219      8218      8221      8223
      8219      8218      8221      8224      8220      8218      8221      8222
      8220      8218      8221      8223      8220      8218      8221      8224
      8225      8226      8241      8242      8225      8226      8241      8243
      8225      8226      8241      8247      8226      8225      8229      8230
      8226      8225      8229      8231      8226      8225      8229      8232
      8226      8225      8233      8234      8226      8225      8233      8235
      8226      8225      8233      8236      8226      8225      8237      8238
      8226      8225      8237      8239      8226      8225      8237      8240
      8226      8241      8247      8244      8227      8226      8225      8229
      8227      8226      8225      8233      8227      8226      8225      8237
      8227      8226      8241      8242      8227      8226      8241      8243
      8227      8226      8241      8247      8228      8226      8225      8229
      8228      8226      8225      8233      8228      8226      8225      8237
      8228      8226      8241      8242      8228      8226      8241      8243
      8228      8226      8241      8247      8229      8225      8226      8241
      8229      8225      8233      8234      8229      8225      8233      8235
      8229      8225      8233      8236      8229      8225      8237      8238
      8229      8225      8237      8239      8229      8225      8237      8240
      8230      8229      8225      8233      8230      8229      8225      8237
      8231      8229      8225      8233      8231      8229      8225      8237
      8232      8229      8225      8233      8232      8229      8225      8237
      8233      8225      8226      8241      8233      8225      8237      8238
      8233      8225      8237      8239      8233      8225      8237      8240
      8234      8233      8225      8237      8235      8233      8225      8237
      8236      8233      8225      8237      8237      8225      8226      8241
      8241      8247      8244      8245      8241      8247      8244      8246
      8241      8247      8244      8248      8242      8241      8247      8244
      8243      8241      8247      8244      8244      8248      8249      8250
      8244      8248      8249      8251      8244      8248      8249      8252
      8245      8244      8248      8249      8246      8244      8248      8249
      8247      8244      8248      8249      8248      8249      8252      8253
      8248      8249      8252      8254      8248      8249      8252      8260
      8249      8252      8254      8255      8249      8252      8260      8261
      8249      8252      8260      8262      8249      8252      8260      8263
      8250      8249      8252      8253      8250      8249      8252      8254
      8250      8249      8252      8260      8251      8249      8252      8253
      8251      8249      8252      8254      8251      8249      8252      8260
      8252      8254      8255      8256      8252      8254      8255      8257
      8252      8260      8263      8264      8253      8252      8254      8255
      8253      8252      8260      8261      8253      8252      8260      8262
      8253      8252      8260      8263      8254      8252      8260      8261
      8254      8252      8260      8262      8254      8252      8260      8263
      8254      8255      8257      8258      8254      8255      8257      8259
      8254      8255      8257      8269      8255      8254      8252      8260
      8255      8257      8269      8270      8255      8257      8269      8271
      8255      8257      8269      8272      8256      8255      8257      8258
      8256      8255      8257      8259      8256      8255      8257      8269
      8257      8269      8272      8273      8257      8269      8272      8274
      8257      8269      8272      8275      8258      8257      8269      8270
      8258      8257      8269      8271      8258      8257      8269      8272
      8259      8257      8269      8270      8259      8257      8269      8271
      8259      8257      8269      8272      8260      8263      8264      8265
      8260      8263      8264      8266      8261      8260      8263      8264
      8262      8260      8263      8264      8263      8264      8266      8267
      8263      8264      8266      8268      8263      8264      8266      8316
      8264      8266      8316      8317      8264      8266      8316      8318
      8264      8266      8316      8319      8265      8264      8266      8267
      8265      8264      8266      8268      8265      8264      8266      8316
      8266      8316      8319      8320      8266      8316      8319      8321
      8266      8316      8319      8322      8267      8266      8316      8317
      8267      8266      8316      8318      8267      8266      8316      8319
      8268      8266      8316      8317      8268      8266      8316      8318
      8268      8266      8316      8319      8269      8272      8275      8276
      8269      8272      8275      8277      8269      8272      8275      8278
      8270      8269      8272      8273      8270      8269      8272      8274
      8270      8269      8272      8275      8271      8269      8272      8273
      8271      8269      8272      8274      8271      8269      8272      8275
      8272      8275      8278      8279      8272      8275      8278      8280
      8272      8275      8278      8281      8273      8272      8275      8276
      8273      8272      8275      8277      8273      8272      8275      8278
      8274      8272      8275      8276      8274      8272      8275      8277
      8274      8272      8275      8278      8275      8278      8281      8282
      8275      8278      8281      8283      8275      8278      8281      8284
      8276      8275      8278      8279      8276      8275      8278      8280
      8276      8275      8278      8281      8277      8275      8278      8279
      8277      8275      8278      8280      8277      8275      8278      8281
      8278      8281      8284      8285      8278      8281      8284      8286
      8278      8281      8284      8287      8279      8278      8281      8282
      8279      8278      8281      8283      8279      8278      8281      8284
      8280      8278      8281      8282      8280      8278      8281      8283
      8280      8278      8281      8284      8281      8284      8287      8288
      8281      8284      8287      8289      8282      8281      8284      8285
      8282      8281      8284      8286      8282      8281      8284      8287
      8283      8281      8284      8285      8283      8281      8284      8286
      8283      8281      8284      8287      8284      8287      8289      8290
      8284      8287      8289      8291      8285      8284      8287      8288
      8285      8284      8287      8289      8286      8284      8287      8288
      8286      8284      8287      8289      8287      8289      8291      8292
      8287      8289      8291      8293      8287      8289      8291      8294
      8288      8287      8289      8290      8288      8287      8289      8291
      8289      8291      8294      8295      8289      8291      8294      8296
      8289      8291      8294      8297      8290      8289      8291      8292
      8290      8289      8291      8293      8290      8289      8291      8294
      8291      8294      8297      8298      8291      8294      8297      8299
      8291      8294      8297      8300      8292      8291      8294      8295
      8292      8291      8294      8296      8292      8291      8294      8297
      8293      8291      8294      8295      8293      8291      8294      8296
      8293      8291      8294      8297      8294      8297      8300      8301
      8294      8297      8300      8302      8294      8297      8300      8303
      8295      8294      8297      8298      8295      8294      8297      8299
      8295      8294      8297      8300      8296      8294      8297      8298
      8296      8294      8297      8299      8296      8294      8297      8300
      8297      8300      8303      8304      8297      8300      8303      8305
      8297      8300      8303      8306      8298      8297      8300      8301
      8298      8297      8300      8302      8298      8297      8300      8303
      8299      8297      8300      8301      8299      8297      8300      8302
      8299      8297      8300      8303      8300      8303      8306      8307
      8300      8303      8306      8308      8300      8303      8306      8309
      8301      8300      8303      8304      8301      8300      8303      8305
      8301      8300      8303      8306      8302      8300      8303      8304
      8302      8300      8303      8305      8302      8300      8303      8306
      8303      8306      8309      8310      8303      8306      8309      8311
      8303      8306      8309      8312      8304      8303      8306      8307
      8304      8303      8306      8308      8304      8303      8306      8309
      8305      8303      8306      8307      8305      8303      8306      8308
      8305      8303      8306      8309      8306      8309      8312      8313
      8306      8309      8312      8314      8306      8309      8312      8315
      8307      8306      8309      8310      8307      8306      8309      8311
      8307      8306      8309      8312      8308      8306      8309      8310
      8308      8306      8309      8311      8308      8306      8309      8312
      8310      8309      8312      8313      8310      8309      8312      8314
      8310      8309      8312      8315      8311      8309      8312      8313
      8311      8309      8312      8314      8311      8309      8312      8315
      8316      8319      8322      8323      8316      8319      8322      8324
      8316      8319      8322      8325      8317      8316      8319      8320
      8317      8316      8319      8321      8317      8316      8319      8322
      8318      8316      8319      8320      8318      8316      8319      8321
      8318      8316      8319      8322      8319      8322      8325      8326
      8319      8322      8325      8327      8319      8322      8325      8328
      8320      8319      8322      8323      8320      8319      8322      8324
      8320      8319      8322      8325      8321      8319      8322      8323
      8321      8319      8322      8324      8321      8319      8322      8325
      8322      8325      8328      8329      8322      8325      8328      8330
      8322      8325      8328      8331      8323      8322      8325      8326
      8323      8322      8325      8327      8323      8322      8325      8328
      8324      8322      8325      8326      8324      8322      8325      8327
      8324      8322      8325      8328      8325      8328      8331      8332
      8325      8328      8331      8333      8325      8328      8331      8334
      8326      8325      8328      8329      8326      8325      8328      8330
      8326      8325      8328      8331      8327      8325      8328      8329
      8327      8325      8328      8330      8327      8325      8328      8331
      8328      8331      8334      8335      8328      8331      8334      8336
      8328      8331      8334      8337      8329      8328      8331      8332
      8329      8328      8331      8333      8329      8328      8331      8334
      8330      8328      8331      8332      8330      8328      8331      8333
      8330      8328      8331      8334      8331      8334      8337      8338
      8331      8334      8337      8339      8331      8334      8337      8340
      8332      8331      8334      8335      8332      8331      8334      8336
      8332      8331      8334      8337      8333      8331      8334      8335
      8333      8331      8334      8336      8333      8331      8334      8337
      8334      8337      8340      8341      8334      8337      8340      8342
      8334      8337      8340      8343      8335      8334      8337      8338
      8335      8334      8337      8339      8335      8334      8337      8340
      8336      8334      8337      8338      8336      8334      8337      8339
      8336      8334      8337      8340      8337      8340      8343      8344
      8337      8340      8343      8345      8337      8340      8343      8346
      8338      8337      8340      8341      8338      8337      8340      8342
      8338      8337      8340      8343      8339      8337      8340      8341
      8339      8337      8340      8342      8339      8337      8340      8343
      8340      8343      8346      8347      8340      8343      8346      8348
      8340      8343      8346      8349      8341      8340      8343      8344
      8341      8340      8343      8345      8341      8340      8343      8346
      8342      8340      8343      8344      8342      8340      8343      8345
      8342      8340      8343      8346      8343      8346      8349      8350
      8343      8346      8349      8351      8343      8346      8349      8352
      8344      8343      8346      8347      8344      8343      8346      8348
      8344      8343      8346      8349      8345      8343      8346      8347
      8345      8343      8346      8348      8345      8343      8346      8349
      8346      8349      8352      8353      8346      8349      8352      8354
      8346      8349      8352      8355      8347      8346      8349      8350
      8347      8346      8349      8351      8347      8346      8349      8352
      8348      8346      8349      8350      8348      8346      8349      8351
      8348      8346      8349      8352      8349      8352      8355      8356
      8349      8352      8355      8357      8349      8352      8355      8358
      8350      8349      8352      8353      8350      8349      8352      8354
      8350      8349      8352      8355      8351      8349      8352      8353
      8351      8349      8352      8354      8351      8349      8352      8355
      8353      8352      8355      8356      8353      8352      8355      8357
      8353      8352      8355      8358      8354      8352      8355      8356
      8354      8352      8355      8357      8354      8352      8355      8358
      8359      8360      8375      8376      8359      8360      8375      8377
      8359      8360      8375      8381      8360      8359      8363      8364
      8360      8359      8363      8365      8360      8359      8363      8366
      8360      8359      8367      8368      8360      8359      8367      8369
      8360      8359      8367      8370      8360      8359      8371      8372
      8360      8359      8371      8373      8360      8359      8371      8374
      8360      8375      8381      8378      8361      8360      8359      8363
      8361      8360      8359      8367      8361      8360      8359      8371
      8361      8360      8375      8376      8361      8360      8375      8377
      8361      8360      8375      8381      8362      8360      8359      8363
      8362      8360      8359      8367      8362      8360      8359      8371
      8362      8360      8375      8376      8362      8360      8375      8377
      8362      8360      8375      8381      8363      8359      8360      8375
      8363      8359      8367      8368      8363      8359      8367      8369
      8363      8359      8367      8370      8363      8359      8371      8372
      8363      8359      8371      8373      8363      8359      8371      8374
      8364      8363      8359      8367      8364      8363      8359      8371
      8365      8363      8359      8367      8365      8363      8359      8371
      8366      8363      8359      8367      8366      8363      8359      8371
      8367      8359      8360      8375      8367      8359      8371      8372
      8367      8359      8371      8373      8367      8359      8371      8374
      8368      8367      8359      8371      8369      8367      8359      8371
      8370      8367      8359      8371      8371      8359      8360      8375
      8375      8381      8378      8379      8375      8381      8378      8380
      8375      8381      8378      8382      8376      8375      8381      8378
      8377      8375      8381      8378      8378      8382      8383      8384
      8378      8382      8383      8385      8378      8382      8383      8386
      8379      8378      8382      8383      8380      8378      8382      8383
      8381      8378      8382      8383      8382      8383      8386      8387
      8382      8383      8386      8388      8382      8383      8386      8394
      8383      8386      8388      8389      8383      8386      8394      8395
      8383      8386      8394      8396      8383      8386      8394      8397
      8384      8383      8386      8387      8384      8383      8386      8388
      8384      8383      8386      8394      8385      8383      8386      8387
      8385      8383      8386      8388      8385      8383      8386      8394
      8386      8388      8389      8390      8386      8388      8389      8391
      8386      8394      8397      8398      8387      8386      8388      8389
      8387      8386      8394      8395      8387      8386      8394      8396
      8387      8386      8394      8397      8388      8386      8394      8395
      8388      8386      8394      8396      8388      8386      8394      8397
      8388      8389      8391      8392      8388      8389      8391      8393
      8388      8389      8391      8403      8389      8388      8386      8394
      8389      8391      8403      8404      8389      8391      8403      8405
      8389      8391      8403      8406      8390      8389      8391      8392
      8390      8389      8391      8393      8390      8389      8391      8403
      8391      8403      8406      8407      8391      8403      8406      8408
      8391      8403      8406      8409      8392      8391      8403      8404
      8392      8391      8403      8405      8392      8391      8403      8406
      8393      8391      8403      8404      8393      8391      8403      8405
      8393      8391      8403      8406      8394      8397      8398      8399
      8394      8397      8398      8400      8395      8394      8397      8398
      8396      8394      8397      8398      8397      8398      8400      8401
      8397      8398      8400      8402      8397      8398      8400      8450
      8398      8400      8450      8451      8398      8400      8450      8452
      8398      8400      8450      8453      8399      8398      8400      8401
      8399      8398      8400      8402      8399      8398      8400      8450
      8400      8450      8453      8454      8400      8450      8453      8455
      8400      8450      8453      8456      8401      8400      8450      8451
      8401      8400      8450      8452      8401      8400      8450      8453
      8402      8400      8450      8451      8402      8400      8450      8452
      8402      8400      8450      8453      8403      8406      8409      8410
      8403      8406      8409      8411      8403      8406      8409      8412
      8404      8403      8406      8407      8404      8403      8406      8408
      8404      8403      8406      8409      8405      8403      8406      8407
      8405      8403      8406      8408      8405      8403      8406      8409
      8406      8409      8412      8413      8406      8409      8412      8414
      8406      8409      8412      8415      8407      8406      8409      8410
      8407      8406      8409      8411      8407      8406      8409      8412
      8408      8406      8409      8410      8408      8406      8409      8411
      8408      8406      8409      8412      8409      8412      8415      8416
      8409      8412      8415      8417      8409      8412      8415      8418
      8410      8409      8412      8413      8410      8409      8412      8414
      8410      8409      8412      8415      8411      8409      8412      8413
      8411      8409      8412      8414      8411      8409      8412      8415
      8412      8415      8418      8419      8412      8415      8418      8420
      8412      8415      8418      8421      8413      8412      8415      8416
      8413      8412      8415      8417      8413      8412      8415      8418
      8414      8412      8415      8416      8414      8412      8415      8417
      8414      8412      8415      8418      8415      8418      8421      8422
      8415      8418      8421      8423      8416      8415      8418      8419
      8416      8415      8418      8420      8416      8415      8418      8421
      8417      8415      8418      8419      8417      8415      8418      8420
      8417      8415      8418      8421      8418      8421      8423      8424
      8418      8421      8423      8425      8419      8418      8421      8422
      8419      8418      8421      8423      8420      8418      8421      8422
      8420      8418      8421      8423      8421      8423      8425      8426
      8421      8423      8425      8427      8421      8423      8425      8428
      8422      8421      8423      8424      8422      8421      8423      8425
      8423      8425      8428      8429      8423      8425      8428      8430
      8423      8425      8428      8431      8424      8423      8425      8426
      8424      8423      8425      8427      8424      8423      8425      8428
      8425      8428      8431      8432      8425      8428      8431      8433
      8425      8428      8431      8434      8426      8425      8428      8429
      8426      8425      8428      8430      8426      8425      8428      8431
      8427      8425      8428      8429      8427      8425      8428      8430
      8427      8425      8428      8431      8428      8431      8434      8435
      8428      8431      8434      8436      8428      8431      8434      8437
      8429      8428      8431      8432      8429      8428      8431      8433
      8429      8428      8431      8434      8430      8428      8431      8432
      8430      8428      8431      8433      8430      8428      8431      8434
      8431      8434      8437      8438      8431      8434      8437      8439
      8431      8434      8437      8440      8432      8431      8434      8435
      8432      8431      8434      8436      8432      8431      8434      8437
      8433      8431      8434      8435      8433      8431      8434      8436
      8433      8431      8434      8437      8434      8437      8440      8441
      8434      8437      8440      8442      8434      8437      8440      8443
      8435      8434      8437      8438      8435      8434      8437      8439
      8435      8434      8437      8440      8436      8434      8437      8438
      8436      8434      8437      8439      8436      8434      8437      8440
      8437      8440      8443      8444      8437      8440      8443      8445
      8437      8440      8443      8446      8438      8437      8440      8441
      8438      8437      8440      8442      8438      8437      8440      8443
      8439      8437      8440      8441      8439      8437      8440      8442
      8439      8437      8440      8443      8440      8443      8446      8447
      8440      8443      8446      8448      8440      8443      8446      8449
      8441      8440      8443      8444      8441      8440      8443      8445
      8441      8440      8443      8446      8442      8440      8443      8444
      8442      8440      8443      8445      8442      8440      8443      8446
      8444      8443      8446      8447      8444      8443      8446      8448
      8444      8443      8446      8449      8445      8443      8446      8447
      8445      8443      8446      8448      8445      8443      8446      8449
      8450      8453      8456      8457      8450      8453      8456      8458
      8450      8453      8456      8459      8451      8450      8453      8454
      8451      8450      8453      8455      8451      8450      8453      8456
      8452      8450      8453      8454      8452      8450      8453      8455
      8452      8450      8453      8456      8453      8456      8459      8460
      8453      8456      8459      8461      8453      8456      8459      8462
      8454      8453      8456      8457      8454      8453      8456      8458
      8454      8453      8456      8459      8455      8453      8456      8457
      8455      8453      8456      8458      8455      8453      8456      8459
      8456      8459      8462      8463      8456      8459      8462      8464
      8456      8459      8462      8465      8457      8456      8459      8460
      8457      8456      8459      8461      8457      8456      8459      8462
      8458      8456      8459      8460      8458      8456      8459      8461
      8458      8456      8459      8462      8459      8462      8465      8466
      8459      8462      8465      8467      8459      8462      8465      8468
      8460      8459      8462      8463      8460      8459      8462      8464
      8460      8459      8462      8465      8461      8459      8462      8463
      8461      8459      8462      8464      8461      8459      8462      8465
      8462      8465      8468      8469      8462      8465      8468      8470
      8462      8465      8468      8471      8463      8462      8465      8466
      8463      8462      8465      8467      8463      8462      8465      8468
      8464      8462      8465      8466      8464      8462      8465      8467
      8464      8462      8465      8468      8465      8468      8471      8472
      8465      8468      8471      8473      8465      8468      8471      8474
      8466      8465      8468      8469      8466      8465      8468      8470
      8466      8465      8468      8471      8467      8465      8468      8469
      8467      8465      8468      8470      8467      8465      8468      8471
      8468      8471      8474      8475      8468      8471      8474      8476
      8468      8471      8474      8477      8469      8468      8471      8472
      8469      8468      8471      8473      8469      8468      8471      8474
      8470      8468      8471      8472      8470      8468      8471      8473
      8470      8468      8471      8474      8471      8474      8477      8478
      8471      8474      8477      8479      8471      8474      8477      8480
      8472      8471      8474      8475      8472      8471      8474      8476
      8472      8471      8474      8477      8473      8471      8474      8475
      8473      8471      8474      8476      8473      8471      8474      8477
      8474      8477      8480      8481      8474      8477      8480      8482
      8474      8477      8480      8483      8475      8474      8477      8478
      8475      8474      8477      8479      8475      8474      8477      8480
      8476      8474      8477      8478      8476      8474      8477      8479
      8476      8474      8477      8480      8477      8480      8483      8484
      8477      8480      8483      8485      8477      8480      8483      8486
      8478      8477      8480      8481      8478      8477      8480      8482
      8478      8477      8480      8483      8479      8477      8480      8481
      8479      8477      8480      8482      8479      8477      8480      8483
      8480      8483      8486      8487      8480      8483      8486      8488
      8480      8483      8486      8489      8481      8480      8483      8484
      8481      8480      8483      8485      8481      8480      8483      8486
      8482      8480      8483      8484      8482      8480      8483      8485
      8482      8480      8483      8486      8483      8486      8489      8490
      8483      8486      8489      8491      8483      8486      8489      8492
      8484      8483      8486      8487      8484      8483      8486      8488
      8484      8483      8486      8489      8485      8483      8486      8487
      8485      8483      8486      8488      8485      8483      8486      8489
      8487      8486      8489      8490      8487      8486      8489      8491
      8487      8486      8489      8492      8488      8486      8489      8490
      8488      8486      8489      8491      8488      8486      8489      8492
      8493      8494      8509      8510      8493      8494      8509      8511
      8493      8494      8509      8515      8494      8493      8497      8498
      8494      8493      8497      8499      8494      8493      8497      8500
      8494      8493      8501      8502      8494      8493      8501      8503
      8494      8493      8501      8504      8494      8493      8505      8506
      8494      8493      8505      8507      8494      8493      8505      8508
      8494      8509      8515      8512      8495      8494      8493      8497
      8495      8494      8493      8501      8495      8494      8493      8505
      8495      8494      8509      8510      8495      8494      8509      8511
      8495      8494      8509      8515      8496      8494      8493      8497
      8496      8494      8493      8501      8496      8494      8493      8505
      8496      8494      8509      8510      8496      8494      8509      8511
      8496      8494      8509      8515      8497      8493      8494      8509
      8497      8493      8501      8502      8497      8493      8501      8503
      8497      8493      8501      8504      8497      8493      8505      8506
      8497      8493      8505      8507      8497      8493      8505      8508
      8498      8497      8493      8501      8498      8497      8493      8505
      8499      8497      8493      8501      8499      8497      8493      8505
      8500      8497      8493      8501      8500      8497      8493      8505
      8501      8493      8494      8509      8501      8493      8505      8506
      8501      8493      8505      8507      8501      8493      8505      8508
      8502      8501      8493      8505      8503      8501      8493      8505
      8504      8501      8493      8505      8505      8493      8494      8509
      8509      8515      8512      8513      8509      8515      8512      8514
      8509      8515      8512      8516      8510      8509      8515      8512
      8511      8509      8515      8512      8512      8516      8517      8518
      8512      8516      8517      8519      8512      8516      8517      8520
      8513      8512      8516      8517      8514      8512      8516      8517
      8515      8512      8516      8517      8516      8517      8520      8521
      8516      8517      8520      8522      8516      8517      8520      8528
      8517      8520      8522      8523      8517      8520      8528      8529
      8517      8520      8528      8530      8517      8520      8528      8531
      8518      8517      8520      8521      8518      8517      8520      8522
      8518      8517      8520      8528      8519      8517      8520      8521
      8519      8517      8520      8522      8519      8517      8520      8528
      8520      8522      8523      8524      8520      8522      8523      8525
      8520      8528      8531      8532      8521      8520      8522      8523
      8521      8520      8528      8529      8521      8520      8528      8530
      8521      8520      8528      8531      8522      8520      8528      8529
      8522      8520      8528      8530      8522      8520      8528      8531
      8522      8523      8525      8526      8522      8523      8525      8527
      8522      8523      8525      8537      8523      8522      8520      8528
      8523      8525      8537      8538      8523      8525      8537      8539
      8523      8525      8537      8540      8524      8523      8525      8526
      8524      8523      8525      8527      8524      8523      8525      8537
      8525      8537      8540      8541      8525      8537      8540      8542
      8525      8537      8540      8543      8526      8525      8537      8538
      8526      8525      8537      8539      8526      8525      8537      8540
      8527      8525      8537      8538      8527      8525      8537      8539
      8527      8525      8537      8540      8528      8531      8532      8533
      8528      8531      8532      8534      8529      8528      8531      8532
      8530      8528      8531      8532      8531      8532      8534      8535
      8531      8532      8534      8536      8531      8532      8534      8584
      8532      8534      8584      8585      8532      8534      8584      8586
      8532      8534      8584      8587      8533      8532      8534      8535
      8533      8532      8534      8536      8533      8532      8534      8584
      8534      8584      8587      8588      8534      8584      8587      8589
      8534      8584      8587      8590      8535      8534      8584      8585
      8535      8534      8584      8586      8535      8534      8584      8587
      8536      8534      8584      8585      8536      8534      8584      8586
      8536      8534      8584      8587      8537      8540      8543      8544
      8537      8540      8543      8545      8537      8540      8543      8546
      8538      8537      8540      8541      8538      8537      8540      8542
      8538      8537      8540      8543      8539      8537      8540      8541
      8539      8537      8540      8542      8539      8537      8540      8543
      8540      8543      8546      8547      8540      8543      8546      8548
      8540      8543      8546      8549      8541      8540      8543      8544
      8541      8540      8543      8545      8541      8540      8543      8546
      8542      8540      8543      8544      8542      8540      8543      8545
      8542      8540      8543      8546      8543      8546      8549      8550
      8543      8546      8549      8551      8543      8546      8549      8552
      8544      8543      8546      8547      8544      8543      8546      8548
      8544      8543      8546      8549      8545      8543      8546      8547
      8545      8543      8546      8548      8545      8543      8546      8549
      8546      8549      8552      8553      8546      8549      8552      8554
      8546      8549      8552      8555      8547      8546      8549      8550
      8547      8546      8549      8551      8547      8546      8549      8552
      8548      8546      8549      8550      8548      8546      8549      8551
      8548      8546      8549      8552      8549      8552      8555      8556
      8549      8552      8555      8557      8550      8549      8552      8553
      8550      8549      8552      8554      8550      8549      8552      8555
      8551      8549      8552      8553      8551      8549      8552      8554
      8551      8549      8552      8555      8552      8555      8557      8558
      8552      8555      8557      8559      8553      8552      8555      8556
      8553      8552      8555      8557      8554      8552      8555      8556
      8554      8552      8555      8557      8555      8557      8559      8560
      8555      8557      8559      8561      8555      8557      8559      8562
      8556      8555      8557      8558      8556      8555      8557      8559
      8557      8559      8562      8563      8557      8559      8562      8564
      8557      8559      8562      8565      8558      8557      8559      8560
      8558      8557      8559      8561      8558      8557      8559      8562
      8559      8562      8565      8566      8559      8562      8565      8567
      8559      8562      8565      8568      8560      8559      8562      8563
      8560      8559      8562      8564      8560      8559      8562      8565
      8561      8559      8562      8563      8561      8559      8562      8564
      8561      8559      8562      8565      8562      8565      8568      8569
      8562      8565      8568      8570      8562      8565      8568      8571
      8563      8562      8565      8566      8563      8562      8565      8567
      8563      8562      8565      8568      8564      8562      8565      8566
      8564      8562      8565      8567      8564      8562      8565      8568
      8565      8568      8571      8572      8565      8568      8571      8573
      8565      8568      8571      8574      8566      8565      8568      8569
      8566      8565      8568      8570      8566      8565      8568      8571
      8567      8565      8568      8569      8567      8565      8568      8570
      8567      8565      8568      8571      8568      8571      8574      8575
      8568      8571      8574      8576      8568      8571      8574      8577
      8569      8568      8571      8572      8569      8568      8571      8573
      8569      8568      8571      8574      8570      8568      8571      8572
      8570      8568      8571      8573      8570      8568      8571      8574
      8571      8574      8577      8578      8571      8574      8577      8579
      8571      8574      8577      8580      8572      8571      8574      8575
      8572      8571      8574      8576      8572      8571      8574      8577
      8573      8571      8574      8575      8573      8571      8574      8576
      8573      8571      8574      8577      8574      8577      8580      8581
      8574      8577      8580      8582      8574      8577      8580      8583
      8575      8574      8577      8578      8575      8574      8577      8579
      8575      8574      8577      8580      8576      8574      8577      8578
      8576      8574      8577      8579      8576      8574      8577      8580
      8578      8577      8580      8581      8578      8577      8580      8582
      8578      8577      8580      8583      8579      8577      8580      8581
      8579      8577      8580      8582      8579      8577      8580      8583
      8584      8587      8590      8591      8584      8587      8590      8592
      8584      8587      8590      8593      8585      8584      8587      8588
      8585      8584      8587      8589      8585      8584      8587      8590
      8586      8584      8587      8588      8586      8584      8587      8589
      8586      8584      8587      8590      8587      8590      8593      8594
      8587      8590      8593      8595      8587      8590      8593      8596
      8588      8587      8590      8591      8588      8587      8590      8592
      8588      8587      8590      8593      8589      8587      8590      8591
      8589      8587      8590      8592      8589      8587      8590      8593
      8590      8593      8596      8597      8590      8593      8596      8598
      8590      8593      8596      8599      8591      8590      8593      8594
      8591      8590      8593      8595      8591      8590      8593      8596
      8592      8590      8593      8594      8592      8590      8593      8595
      8592      8590      8593      8596      8593      8596      8599      8600
      8593      8596      8599      8601      8593      8596      8599      8602
      8594      8593      8596      8597      8594      8593      8596      8598
      8594      8593      8596      8599      8595      8593      8596      8597
      8595      8593      8596      8598      8595      8593      8596      8599
      8596      8599      8602      8603      8596      8599      8602      8604
      8596      8599      8602      8605      8597      8596      8599      8600
      8597      8596      8599      8601      8597      8596      8599      8602
      8598      8596      8599      8600      8598      8596      8599      8601
      8598      8596      8599      8602      8599      8602      8605      8606
      8599      8602      8605      8607      8599      8602      8605      8608
      8600      8599      8602      8603      8600      8599      8602      8604
      8600      8599      8602      8605      8601      8599      8602      8603
      8601      8599      8602      8604      8601      8599      8602      8605
      8602      8605      8608      8609      8602      8605      8608      8610
      8602      8605      8608      8611      8603      8602      8605      8606
      8603      8602      8605      8607      8603      8602      8605      8608
      8604      8602      8605      8606      8604      8602      8605      8607
      8604      8602      8605      8608      8605      8608      8611      8612
      8605      8608      8611      8613      8605      8608      8611      8614
      8606      8605      8608      8609      8606      8605      8608      8610
      8606      8605      8608      8611      8607      8605      8608      8609
      8607      8605      8608      8610      8607      8605      8608      8611
      8608      8611      8614      8615      8608      8611      8614      8616
      8608      8611      8614      8617      8609      8608      8611      8612
      8609      8608      8611      8613      8609      8608      8611      8614
      8610      8608      8611      8612      8610      8608      8611      8613
      8610      8608      8611      8614      8611      8614      8617      8618
      8611      8614      8617      8619      8611      8614      8617      8620
      8612      8611      8614      8615      8612      8611      8614      8616
      8612      8611      8614      8617      8613      8611      8614      8615
      8613      8611      8614      8616      8613      8611      8614      8617
      8614      8617      8620      8621      8614      8617      8620      8622
      8614      8617      8620      8623      8615      8614      8617      8618
      8615      8614      8617      8619      8615      8614      8617      8620
      8616      8614      8617      8618      8616      8614      8617      8619
      8616      8614      8617      8620      8617      8620      8623      8624
      8617      8620      8623      8625      8617      8620      8623      8626
      8618      8617      8620      8621      8618      8617      8620      8622
      8618      8617      8620      8623      8619      8617      8620      8621
      8619      8617      8620      8622      8619      8617      8620      8623
      8621      8620      8623      8624      8621      8620      8623      8625
      8621      8620      8623      8626      8622      8620      8623      8624
      8622      8620      8623      8625      8622      8620      8623      8626
      8627      8631      8633      8634      8627      8631      8633      8635
      8627      8631      8636      8637      8627      8631      8636      8638
      8627      8631      8636      8642      8628      8627      8631      8632
      8628      8627      8631      8633      8628      8627      8631      8636
      8629      8627      8631      8632      8629      8627      8631      8633
      8629      8627      8631      8636      8630      8627      8631      8632
      8630      8627      8631      8633      8630      8627      8631      8636
      8631      8636      8642      8639      8632      8631      8633      8634
      8632      8631      8633      8635      8632      8631      8636      8637
      8632      8631      8636      8638      8632      8631      8636      8642
      8633      8631      8636      8637      8633      8631      8636      8638
      8633      8631      8636      8642      8634      8633      8631      8636
      8635      8633      8631      8636      8636      8642      8639      8640
      8636      8642      8639      8641      8636      8642      8639      8643
      8637      8636      8642      8639      8638      8636      8642      8639
      8639      8643      8644      8645      8639      8643      8644      8646
      8639      8643      8644      8647      8640      8639      8643      8644
      8641      8639      8643      8644      8642      8639      8643      8644
      8643      8644      8647      8648      8643      8644      8647      8649
      8643      8644      8647      8655      8644      8647      8649      8650
      8644      8647      8655      8656      8644      8647      8655      8657
      8644      8647      8655      8658      8645      8644      8647      8648
      8645      8644      8647      8649      8645      8644      8647      8655
      8646      8644      8647      8648      8646      8644      8647      8649
      8646      8644      8647      8655      8647      8649      8650      8651
      8647      8649      8650      8652      8647      8655      8658      8659
      8648      8647      8649      8650      8648      8647      8655      8656
      8648      8647      8655      8657      8648      8647      8655      8658
      8649      8647      8655      8656      8649      8647      8655      8657
      8649      8647      8655      8658      8649      8650      8652      8653
      8649      8650      8652      8654      8649      8650      8652      8664
      8650      8649      8647      8655      8650      8652      8664      8665
      8650      8652      8664      8666      8650      8652      8664      8667
      8651      8650      8652      8653      8651      8650      8652      8654
      8651      8650      8652      8664      8652      8664      8667      8668
      8652      8664      8667      8669      8652      8664      8667      8670
      8653      8652      8664      8665      8653      8652      8664      8666
      8653      8652      8664      8667      8654      8652      8664      8665
      8654      8652      8664      8666      8654      8652      8664      8667
      8655      8658      8659      8660      8655      8658      8659      8661
      8656      8655      8658      8659      8657      8655      8658      8659
      8658      8659      8661      8662      8658      8659      8661      8663
      8658      8659      8661      8711      8659      8661      8711      8712
      8659      8661      8711      8713      8659      8661      8711      8714
      8660      8659      8661      8662      8660      8659      8661      8663
      8660      8659      8661      8711      8661      8711      8714      8715
      8661      8711      8714      8716      8661      8711      8714      8717
      8662      8661      8711      8712      8662      8661      8711      8713
      8662      8661      8711      8714      8663      8661      8711      8712
      8663      8661      8711      8713      8663      8661      8711      8714
      8664      8667      8670      8671      8664      8667      8670      8672
      8664      8667      8670      8673      8665      8664      8667      8668
      8665      8664      8667      8669      8665      8664      8667      8670
      8666      8664      8667      8668      8666      8664      8667      8669
      8666      8664      8667      8670      8667      8670      8673      8674
      8667      8670      8673      8675      8667      8670      8673      8676
      8668      8667      8670      8671      8668      8667      8670      8672
      8668      8667      8670      8673      8669      8667      8670      8671
      8669      8667      8670      8672      8669      8667      8670      8673
      8670      8673      8676      8677      8670      8673      8676      8678
      8670      8673      8676      8679      8671      8670      8673      8674
      8671      8670      8673      8675      8671      8670      8673      8676
      8672      8670      8673      8674      8672      8670      8673      8675
      8672      8670      8673      8676      8673      8676      8679      8680
      8673      8676      8679      8681      8673      8676      8679      8682
      8674      8673      8676      8677      8674      8673      8676      8678
      8674      8673      8676      8679      8675      8673      8676      8677
      8675      8673      8676      8678      8675      8673      8676      8679
      8676      8679      8682      8683      8676      8679      8682      8684
      8677      8676      8679      8680      8677      8676      8679      8681
      8677      8676      8679      8682      8678      8676      8679      8680
      8678      8676      8679      8681      8678      8676      8679      8682
      8679      8682      8684      8685      8679      8682      8684      8686
      8680      8679      8682      8683      8680      8679      8682      8684
      8681      8679      8682      8683      8681      8679      8682      8684
      8682      8684      8686      8687      8682      8684      8686      8688
      8682      8684      8686      8689      8683      8682      8684      8685
      8683      8682      8684      8686      8684      8686      8689      8690
      8684      8686      8689      8691      8684      8686      8689      8692
      8685      8684      8686      8687      8685      8684      8686      8688
      8685      8684      8686      8689      8686      8689      8692      8693
      8686      8689      8692      8694      8686      8689      8692      8695
      8687      8686      8689      8690      8687      8686      8689      8691
      8687      8686      8689      8692      8688      8686      8689      8690
      8688      8686      8689      8691      8688      8686      8689      8692
      8689      8692      8695      8696      8689      8692      8695      8697
      8689      8692      8695      8698      8690      8689      8692      8693
      8690      8689      8692      8694      8690      8689      8692      8695
      8691      8689      8692      8693      8691      8689      8692      8694
      8691      8689      8692      8695      8692      8695      8698      8699
      8692      8695      8698      8700      8692      8695      8698      8701
      8693      8692      8695      8696      8693      8692      8695      8697
      8693      8692      8695      8698      8694      8692      8695      8696
      8694      8692      8695      8697      8694      8692      8695      8698
      8695      8698      8701      8702      8695      8698      8701      8703
      8695      8698      8701      8704      8696      8695      8698      8699
      8696      8695      8698      8700      8696      8695      8698      8701
      8697      8695      8698      8699      8697      8695      8698      8700
      8697      8695      8698      8701      8698      8701      8704      8705
      8698      8701      8704      8706      8698      8701      8704      8707
      8699      8698      8701      8702      8699      8698      8701      8703
      8699      8698      8701      8704      8700      8698      8701      8702
      8700      8698      8701      8703      8700      8698      8701      8704
      8701      8704      8707      8708      8701      8704      8707      8709
      8701      8704      8707      8710      8702      8701      8704      8705
      8702      8701      8704      8706      8702      8701      8704      8707
      8703      8701      8704      8705      8703      8701      8704      8706
      8703      8701      8704      8707      8705      8704      8707      8708
      8705      8704      8707      8709      8705      8704      8707      8710
      8706      8704      8707      8708      8706      8704      8707      8709
      8706      8704      8707      8710      8711      8714      8717      8718
      8711      8714      8717      8719      8711      8714      8717      8720
      8712      8711      8714      8715      8712      8711      8714      8716
      8712      8711      8714      8717      8713      8711      8714      8715
      8713      8711      8714      8716      8713      8711      8714      8717
      8714      8717      8720      8721      8714      8717      8720      8722
      8714      8717      8720      8723      8715      8714      8717      8718
      8715      8714      8717      8719      8715      8714      8717      8720
      8716      8714      8717      8718      8716      8714      8717      8719
      8716      8714      8717      8720      8717      8720      8723      8724
      8717      8720      8723      8725      8717      8720      8723      8726
      8718      8717      8720      8721      8718      8717      8720      8722
      8718      8717      8720      8723      8719      8717      8720      8721
      8719      8717      8720      8722      8719      8717      8720      8723
      8720      8723      8726      8727      8720      8723      8726      8728
      8720      8723      8726      8729      8721      8720      8723      8724
      8721      8720      8723      8725      8721      8720      8723      8726
      8722      8720      8723      8724      8722      8720      8723      8725
      8722      8720      8723      8726      8723      8726      8729      8730
      8723      8726      8729      8731      8723      8726      8729      8732
      8724      8723      8726      8727      8724      8723      8726      8728
      8724      8723      8726      8729      8725      8723      8726      8727
      8725      8723      8726      8728      8725      8723      8726      8729
      8726      8729      8732      8733      8726      8729      8732      8734
      8726      8729      8732      8735      8727      8726      8729      8730
      8727      8726      8729      8731      8727      8726      8729      8732
      8728      8726      8729      8730      8728      8726      8729      8731
      8728      8726      8729      8732      8729      8732      8735      8736
      8729      8732      8735      8737      8729      8732      8735      8738
      8730      8729      8732      8733      8730      8729      8732      8734
      8730      8729      8732      8735      8731      8729      8732      8733
      8731      8729      8732      8734      8731      8729      8732      8735
      8732      8735      8738      8739      8732      8735      8738      8740
      8732      8735      8738      8741      8733      8732      8735      8736
      8733      8732      8735      8737      8733      8732      8735      8738
      8734      8732      8735      8736      8734      8732      8735      8737
      8734      8732      8735      8738      8735      8738      8741      8742
      8735      8738      8741      8743      8735      8738      8741      8744
      8736      8735      8738      8739      8736      8735      8738      8740
      8736      8735      8738      8741      8737      8735      8738      8739
      8737      8735      8738      8740      8737      8735      8738      8741
      8738      8741      8744      8745      8738      8741      8744      8746
      8738      8741      8744      8747      8739      8738      8741      8742
      8739      8738      8741      8743      8739      8738      8741      8744
      8740      8738      8741      8742      8740      8738      8741      8743
      8740      8738      8741      8744      8741      8744      8747      8748
      8741      8744      8747      8749      8741      8744      8747      8750
      8742      8741      8744      8745      8742      8741      8744      8746
      8742      8741      8744      8747      8743      8741      8744      8745
      8743      8741      8744      8746      8743      8741      8744      8747
      8744      8747      8750      8751      8744      8747      8750      8752
      8744      8747      8750      8753      8745      8744      8747      8748
      8745      8744      8747      8749      8745      8744      8747      8750
      8746      8744      8747      8748      8746      8744      8747      8749
      8746      8744      8747      8750      8748      8747      8750      8751
      8748      8747      8750      8752      8748      8747      8750      8753
      8749      8747      8750      8751      8749      8747      8750      8752
      8749      8747      8750      8753      8754      8758      8760      8761
      8754      8758      8760      8762      8754      8758      8763      8764
      8754      8758      8763      8765      8754      8758      8763      8769
      8755      8754      8758      8759      8755      8754      8758      8760
      8755      8754      8758      8763      8756      8754      8758      8759
      8756      8754      8758      8760      8756      8754      8758      8763
      8757      8754      8758      8759      8757      8754      8758      8760
      8757      8754      8758      8763      8758      8763      8769      8766
      8759      8758      8760      8761      8759      8758      8760      8762
      8759      8758      8763      8764      8759      8758      8763      8765
      8759      8758      8763      8769      8760      8758      8763      8764
      8760      8758      8763      8765      8760      8758      8763      8769
      8761      8760      8758      8763      8762      8760      8758      8763
      8763      8769      8766      8767      8763      8769      8766      8768
      8763      8769      8766      8770      8764      8763      8769      8766
      8765      8763      8769      8766      8766      8770      8771      8772
      8766      8770      8771      8773      8766      8770      8771      8774
      8767      8766      8770      8771      8768      8766      8770      8771
      8769      8766      8770      8771      8770      8771      8774      8775
      8770      8771      8774      8776      8770      8771      8774      8782
      8771      8774      8776      8777      8771      8774      8782      8783
      8771      8774      8782      8784      8771      8774      8782      8785
      8772      8771      8774      8775      8772      8771      8774      8776
      8772      8771      8774      8782      8773      8771      8774      8775
      8773      8771      8774      8776      8773      8771      8774      8782
      8774      8776      8777      8778      8774      8776      8777      8779
      8774      8782      8785      8786      8775      8774      8776      8777
      8775      8774      8782      8783      8775      8774      8782      8784
      8775      8774      8782      8785      8776      8774      8782      8783
      8776      8774      8782      8784      8776      8774      8782      8785
      8776      8777      8779      8780      8776      8777      8779      8781
      8776      8777      8779      8791      8777      8776      8774      8782
      8777      8779      8791      8792      8777      8779      8791      8793
      8777      8779      8791      8794      8778      8777      8779      8780
      8778      8777      8779      8781      8778      8777      8779      8791
      8779      8791      8794      8795      8779      8791      8794      8796
      8779      8791      8794      8797      8780      8779      8791      8792
      8780      8779      8791      8793      8780      8779      8791      8794
      8781      8779      8791      8792      8781      8779      8791      8793
      8781      8779      8791      8794      8782      8785      8786      8787
      8782      8785      8786      8788      8783      8782      8785      8786
      8784      8782      8785      8786      8785      8786      8788      8789
      8785      8786      8788      8790      8785      8786      8788      8838
      8786      8788      8838      8839      8786      8788      8838      8840
      8786      8788      8838      8841      8787      8786      8788      8789
      8787      8786      8788      8790      8787      8786      8788      8838
      8788      8838      8841      8842      8788      8838      8841      8843
      8788      8838      8841      8844      8789      8788      8838      8839
      8789      8788      8838      8840      8789      8788      8838      8841
      8790      8788      8838      8839      8790      8788      8838      8840
      8790      8788      8838      8841      8791      8794      8797      8798
      8791      8794      8797      8799      8791      8794      8797      8800
      8792      8791      8794      8795      8792      8791      8794      8796
      8792      8791      8794      8797      8793      8791      8794      8795
      8793      8791      8794      8796      8793      8791      8794      8797
      8794      8797      8800      8801      8794      8797      8800      8802
      8794      8797      8800      8803      8795      8794      8797      8798
      8795      8794      8797      8799      8795      8794      8797      8800
      8796      8794      8797      8798      8796      8794      8797      8799
      8796      8794      8797      8800      8797      8800      8803      8804
      8797      8800      8803      8805      8797      8800      8803      8806
      8798      8797      8800      8801      8798      8797      8800      8802
      8798      8797      8800      8803      8799      8797      8800      8801
      8799      8797      8800      8802      8799      8797      8800      8803
      8800      8803      8806      8807      8800      8803      8806      8808
      8800      8803      8806      8809      8801      8800      8803      8804
      8801      8800      8803      8805      8801      8800      8803      8806
      8802      8800      8803      8804      8802      8800      8803      8805
      8802      8800      8803      8806      8803      8806      8809      8810
      8803      8806      8809      8811      8804      8803      8806      8807
      8804      8803      8806      8808      8804      8803      8806      8809
      8805      8803      8806      8807      8805      8803      8806      8808
      8805      8803      8806      8809      8806      8809      8811      8812
      8806      8809      8811      8813      8807      8806      8809      8810
      8807      8806      8809      8811      8808      8806      8809      8810
      8808      8806      8809      8811      8809      8811      8813      8814
      8809      8811      8813      8815      8809      8811      8813      8816
      8810      8809      8811      8812      8810      8809      8811      8813
      8811      8813      8816      8817      8811      8813      8816      8818
      8811      8813      8816      8819      8812      8811      8813      8814
      8812      8811      8813      8815      8812      8811      8813      8816
      8813      8816      8819      8820      8813      8816      8819      8821
      8813      8816      8819      8822      8814      8813      8816      8817
      8814      8813      8816      8818      8814      8813      8816      8819
      8815      8813      8816      8817      8815      8813      8816      8818
      8815      8813      8816      8819      8816      8819      8822      8823
      8816      8819      8822      8824      8816      8819      8822      8825
      8817      8816      8819      8820      8817      8816      8819      8821
      8817      8816      8819      8822      8818      8816      8819      8820
      8818      8816      8819      8821      8818      8816      8819      8822
      8819      8822      8825      8826      8819      8822      8825      8827
      8819      8822      8825      8828      8820      8819      8822      8823
      8820      8819      8822      8824      8820      8819      8822      8825
      8821      8819      8822      8823      8821      8819      8822      8824
      8821      8819      8822      8825      8822      8825      8828      8829
      8822      8825      8828      8830      8822      8825      8828      8831
      8823      8822      8825      8826      8823      8822      8825      8827
      8823      8822      8825      8828      8824      8822      8825      8826
      8824      8822      8825      8827      8824      8822      8825      8828
      8825      8828      8831      8832      8825      8828      8831      8833
      8825      8828      8831      8834      8826      8825      8828      8829
      8826      8825      8828      8830      8826      8825      8828      8831
      8827      8825      8828      8829      8827      8825      8828      8830
      8827      8825      8828      8831      8828      8831      8834      8835
      8828      8831      8834      8836      8828      8831      8834      8837
      8829      8828      8831      8832      8829      8828      8831      8833
      8829      8828      8831      8834      8830      8828      8831      8832
      8830      8828      8831      8833      8830      8828      8831      8834
      8832      8831      8834      8835      8832      8831      8834      8836
      8832      8831      8834      8837      8833      8831      8834      8835
      8833      8831      8834      8836      8833      8831      8834      8837
      8838      8841      8844      8845      8838      8841      8844      8846
      8838      8841      8844      8847      8839      8838      8841      8842
      8839      8838      8841      8843      8839      8838      8841      8844
      8840      8838      8841      8842      8840      8838      8841      8843
      8840      8838      8841      8844      8841      8844      8847      8848
      8841      8844      8847      8849      8841      8844      8847      8850
      8842      8841      8844      8845      8842      8841      8844      8846
      8842      8841      8844      8847      8843      8841      8844      8845
      8843      8841      8844      8846      8843      8841      8844      8847
      8844      8847      8850      8851      8844      8847      8850      8852
      8844      8847      8850      8853      8845      8844      8847      8848
      8845      8844      8847      8849      8845      8844      8847      8850
      8846      8844      8847      8848      8846      8844      8847      8849
      8846      8844      8847      8850      8847      8850      8853      8854
      8847      8850      8853      8855      8847      8850      8853      8856
      8848      8847      8850      8851      8848      8847      8850      8852
      8848      8847      8850      8853      8849      8847      8850      8851
      8849      8847      8850      8852      8849      8847      8850      8853
      8850      8853      8856      8857      8850      8853      8856      8858
      8850      8853      8856      8859      8851      8850      8853      8854
      8851      8850      8853      8855      8851      8850      8853      8856
      8852      8850      8853      8854      8852      8850      8853      8855
      8852      8850      8853      8856      8853      8856      8859      8860
      8853      8856      8859      8861      8853      8856      8859      8862
      8854      8853      8856      8857      8854      8853      8856      8858
      8854      8853      8856      8859      8855      8853      8856      8857
      8855      8853      8856      8858      8855      8853      8856      8859
      8856      8859      8862      8863      8856      8859      8862      8864
      8856      8859      8862      8865      8857      8856      8859      8860
      8857      8856      8859      8861      8857      8856      8859      8862
      8858      8856      8859      8860      8858      8856      8859      8861
      8858      8856      8859      8862      8859      8862      8865      8866
      8859      8862      8865      8867      8859      8862      8865      8868
      8860      8859      8862      8863      8860      8859      8862      8864
      8860      8859      8862      8865      8861      8859      8862      8863
      8861      8859      8862      8864      8861      8859      8862      8865
      8862      8865      8868      8869      8862      8865      8868      8870
      8862      8865      8868      8871      8863      8862      8865      8866
      8863      8862      8865      8867      8863      8862      8865      8868
      8864      8862      8865      8866      8864      8862      8865      8867
      8864      8862      8865      8868      8865      8868      8871      8872
      8865      8868      8871      8873      8865      8868      8871      8874
      8866      8865      8868      8869      8866      8865      8868      8870
      8866      8865      8868      8871      8867      8865      8868      8869
      8867      8865      8868      8870      8867      8865      8868      8871
      8868      8871      8874      8875      8868      8871      8874      8876
      8868      8871      8874      8877      8869      8868      8871      8872
      8869      8868      8871      8873      8869      8868      8871      8874
      8870      8868      8871      8872      8870      8868      8871      8873
      8870      8868      8871      8874      8871      8874      8877      8878
      8871      8874      8877      8879      8871      8874      8877      8880
      8872      8871      8874      8875      8872      8871      8874      8876
      8872      8871      8874      8877      8873      8871      8874      8875
      8873      8871      8874      8876      8873      8871      8874      8877
      8875      8874      8877      8878      8875      8874      8877      8879
      8875      8874      8877      8880      8876      8874      8877      8878
      8876      8874      8877      8879      8876      8874      8877      8880
      8881      8882      8897      8898      8881      8882      8897      8899
      8881      8882      8897      8903      8882      8881      8885      8886
      8882      8881      8885      8887      8882      8881      8885      8888
      8882      8881      8889      8890      8882      8881      8889      8891
      8882      8881      8889      8892      8882      8881      8893      8894
      8882      8881      8893      8895      8882      8881      8893      8896
      8882      8897      8903      8900      8883      8882      8881      8885
      8883      8882      8881      8889      8883      8882      8881      8893
      8883      8882      8897      8898      8883      8882      8897      8899
      8883      8882      8897      8903      8884      8882      8881      8885
      8884      8882      8881      8889      8884      8882      8881      8893
      8884      8882      8897      8898      8884      8882      8897      8899
      8884      8882      8897      8903      8885      8881      8882      8897
      8885      8881      8889      8890      8885      8881      8889      8891
      8885      8881      8889      8892      8885      8881      8893      8894
      8885      8881      8893      8895      8885      8881      8893      8896
      8886      8885      8881      8889      8886      8885      8881      8893
      8887      8885      8881      8889      8887      8885      8881      8893
      8888      8885      8881      8889      8888      8885      8881      8893
      8889      8881      8882      8897      8889      8881      8893      8894
      8889      8881      8893      8895      8889      8881      8893      8896
      8890      8889      8881      8893      8891      8889      8881      8893
      8892      8889      8881      8893      8893      8881      8882      8897
      8897      8903      8900      8901      8897      8903      8900      8902
      8897      8903      8900      8904      8898      8897      8903      8900
      8899      8897      8903      8900      8900      8904      8905      8906
      8900      8904      8905      8907      8900      8904      8905      8908
      8901      8900      8904      8905      8902      8900      8904      8905
      8903      8900      8904      8905      8904      8905      8908      8909
      8904      8905      8908      8910      8904      8905      8908      8916
      8905      8908      8910      8911      8905      8908      8916      8917
      8905      8908      8916      8918      8905      8908      8916      8919
      8906      8905      8908      8909      8906      8905      8908      8910
      8906      8905      8908      8916      8907      8905      8908      8909
      8907      8905      8908      8910      8907      8905      8908      8916
      8908      8910      8911      8912      8908      8910      8911      8913
      8908      8916      8919      8920      8909      8908      8910      8911
      8909      8908      8916      8917      8909      8908      8916      8918
      8909      8908      8916      8919      8910      8908      8916      8917
      8910      8908      8916      8918      8910      8908      8916      8919
      8910      8911      8913      8914      8910      8911      8913      8915
      8910      8911      8913      8925      8911      8910      8908      8916
      8911      8913      8925      8926      8911      8913      8925      8927
      8911      8913      8925      8928      8912      8911      8913      8914
      8912      8911      8913      8915      8912      8911      8913      8925
      8913      8925      8928      8929      8913      8925      8928      8930
      8913      8925      8928      8931      8914      8913      8925      8926
      8914      8913      8925      8927      8914      8913      8925      8928
      8915      8913      8925      8926      8915      8913      8925      8927
      8915      8913      8925      8928      8916      8919      8920      8921
      8916      8919      8920      8922      8917      8916      8919      8920
      8918      8916      8919      8920      8919      8920      8922      8923
      8919      8920      8922      8924      8919      8920      8922      8972
      8920      8922      8972      8973      8920      8922      8972      8974
      8920      8922      8972      8975      8921      8920      8922      8923
      8921      8920      8922      8924      8921      8920      8922      8972
      8922      8972      8975      8976      8922      8972      8975      8977
      8922      8972      8975      8978      8923      8922      8972      8973
      8923      8922      8972      8974      8923      8922      8972      8975
      8924      8922      8972      8973      8924      8922      8972      8974
      8924      8922      8972      8975      8925      8928      8931      8932
      8925      8928      8931      8933      8925      8928      8931      8934
      8926      8925      8928      8929      8926      8925      8928      8930
      8926      8925      8928      8931      8927      8925      8928      8929
      8927      8925      8928      8930      8927      8925      8928      8931
      8928      8931      8934      8935      8928      8931      8934      8936
      8928      8931      8934      8937      8929      8928      8931      8932
      8929      8928      8931      8933      8929      8928      8931      8934
      8930      8928      8931      8932      8930      8928      8931      8933
      8930      8928      8931      8934      8931      8934      8937      8938
      8931      8934      8937      8939      8931      8934      8937      8940
      8932      8931      8934      8935      8932      8931      8934      8936
      8932      8931      8934      8937      8933      8931      8934      8935
      8933      8931      8934      8936      8933      8931      8934      8937
      8934      8937      8940      8941      8934      8937      8940      8942
      8934      8937      8940      8943      8935      8934      8937      8938
      8935      8934      8937      8939      8935      8934      8937      8940
      8936      8934      8937      8938      8936      8934      8937      8939
      8936      8934      8937      8940      8937      8940      8943      8944
      8937      8940      8943      8945      8938      8937      8940      8941
      8938      8937      8940      8942      8938      8937      8940      8943
      8939      8937      8940      8941      8939      8937      8940      8942
      8939      8937      8940      8943      8940      8943      8945      8946
      8940      8943      8945      8947      8941      8940      8943      8944
      8941      8940      8943      8945      8942      8940      8943      8944
      8942      8940      8943      8945      8943      8945      8947      8948
      8943      8945      8947      8949      8943      8945      8947      8950
      8944      8943      8945      8946      8944      8943      8945      8947
      8945      8947      8950      8951      8945      8947      8950      8952
      8945      8947      8950      8953      8946      8945      8947      8948
      8946      8945      8947      8949      8946      8945      8947      8950
      8947      8950      8953      8954      8947      8950      8953      8955
      8947      8950      8953      8956      8948      8947      8950      8951
      8948      8947      8950      8952      8948      8947      8950      8953
      8949      8947      8950      8951      8949      8947      8950      8952
      8949      8947      8950      8953      8950      8953      8956      8957
      8950      8953      8956      8958      8950      8953      8956      8959
      8951      8950      8953      8954      8951      8950      8953      8955
      8951      8950      8953      8956      8952      8950      8953      8954
      8952      8950      8953      8955      8952      8950      8953      8956
      8953      8956      8959      8960      8953      8956      8959      8961
      8953      8956      8959      8962      8954      8953      8956      8957
      8954      8953      8956      8958      8954      8953      8956      8959
      8955      8953      8956      8957      8955      8953      8956      8958
      8955      8953      8956      8959      8956      8959      8962      8963
      8956      8959      8962      8964      8956      8959      8962      8965
      8957      8956      8959      8960      8957      8956      8959      8961
      8957      8956      8959      8962      8958      8956      8959      8960
      8958      8956      8959      8961      8958      8956      8959      8962
      8959      8962      8965      8966      8959      8962      8965      8967
      8959      8962      8965      8968      8960      8959      8962      8963
      8960      8959      8962      8964      8960      8959      8962      8965
      8961      8959      8962      8963      8961      8959      8962      8964
      8961      8959      8962      8965      8962      8965      8968      8969
      8962      8965      8968      8970      8962      8965      8968      8971
      8963      8962      8965      8966      8963      8962      8965      8967
      8963      8962      8965      8968      8964      8962      8965      8966
      8964      8962      8965      8967      8964      8962      8965      8968
      8966      8965      8968      8969      8966      8965      8968      8970
      8966      8965      8968      8971      8967      8965      8968      8969
      8967      8965      8968      8970      8967      8965      8968      8971
      8972      8975      8978      8979      8972      8975      8978      8980
      8972      8975      8978      8981      8973      8972      8975      8976
      8973      8972      8975      8977      8973      8972      8975      8978
      8974      8972      8975      8976      8974      8972      8975      8977
      8974      8972      8975      8978      8975      8978      8981      8982
      8975      8978      8981      8983      8975      8978      8981      8984
      8976      8975      8978      8979      8976      8975      8978      8980
      8976      8975      8978      8981      8977      8975      8978      8979
      8977      8975      8978      8980      8977      8975      8978      8981
      8978      8981      8984      8985      8978      8981      8984      8986
      8978      8981      8984      8987      8979      8978      8981      8982
      8979      8978      8981      8983      8979      8978      8981      8984
      8980      8978      8981      8982      8980      8978      8981      8983
      8980      8978      8981      8984      8981      8984      8987      8988
      8981      8984      8987      8989      8981      8984      8987      8990
      8982      8981      8984      8985      8982      8981      8984      8986
      8982      8981      8984      8987      8983      8981      8984      8985
      8983      8981      8984      8986      8983      8981      8984      8987
      8984      8987      8990      8991      8984      8987      8990      8992
      8984      8987      8990      8993      8985      8984      8987      8988
      8985      8984      8987      8989      8985      8984      8987      8990
      8986      8984      8987      8988      8986      8984      8987      8989
      8986      8984      8987      8990      8987      8990      8993      8994
      8987      8990      8993      8995      8987      8990      8993      8996
      8988      8987      8990      8991      8988      8987      8990      8992
      8988      8987      8990      8993      8989      8987      8990      8991
      8989      8987      8990      8992      8989      8987      8990      8993
      8990      8993      8996      8997      8990      8993      8996      8998
      8990      8993      8996      8999      8991      8990      8993      8994
      8991      8990      8993      8995      8991      8990      8993      8996
      8992      8990      8993      8994      8992      8990      8993      8995
      8992      8990      8993      8996      8993      8996      8999      9000
      8993      8996      8999      9001      8993      8996      8999      9002
      8994      8993      8996      8997      8994      8993      8996      8998
      8994      8993      8996      8999      8995      8993      8996      8997
      8995      8993      8996      8998      8995      8993      8996      8999
      8996      8999      9002      9003      8996      8999      9002      9004
      8996      8999      9002      9005      8997      8996      8999      9000
      8997      8996      8999      9001      8997      8996      8999      9002
      8998      8996      8999      9000      8998      8996      8999      9001
      8998      8996      8999      9002      8999      9002      9005      9006
      8999      9002      9005      9007      8999      9002      9005      9008
      9000      8999      9002      9003      9000      8999      9002      9004
      9000      8999      9002      9005      9001      8999      9002      9003
      9001      8999      9002      9004      9001      8999      9002      9005
      9002      9005      9008      9009      9002      9005      9008      9010
      9002      9005      9008      9011      9003      9002      9005      9006
      9003      9002      9005      9007      9003      9002      9005      9008
      9004      9002      9005      9006      9004      9002      9005      9007
      9004      9002      9005      9008      9005      9008      9011      9012
      9005      9008      9011      9013      9005      9008      9011      9014
      9006      9005      9008      9009      9006      9005      9008      9010
      9006      9005      9008      9011      9007      9005      9008      9009
      9007      9005      9008      9010      9007      9005      9008      9011
      9009      9008      9011      9012      9009      9008      9011      9013
      9009      9008      9011      9014      9010      9008      9011      9012
      9010      9008      9011      9013      9010      9008      9011      9014
      9015      9016      9031      9032      9015      9016      9031      9033
      9015      9016      9031      9037      9016      9015      9019      9020
      9016      9015      9019      9021      9016      9015      9019      9022
      9016      9015      9023      9024      9016      9015      9023      9025
      9016      9015      9023      9026      9016      9015      9027      9028
      9016      9015      9027      9029      9016      9015      9027      9030
      9016      9031      9037      9034      9017      9016      9015      9019
      9017      9016      9015      9023      9017      9016      9015      9027
      9017      9016      9031      9032      9017      9016      9031      9033
      9017      9016      9031      9037      9018      9016      9015      9019
      9018      9016      9015      9023      9018      9016      9015      9027
      9018      9016      9031      9032      9018      9016      9031      9033
      9018      9016      9031      9037      9019      9015      9016      9031
      9019      9015      9023      9024      9019      9015      9023      9025
      9019      9015      9023      9026      9019      9015      9027      9028
      9019      9015      9027      9029      9019      9015      9027      9030
      9020      9019      9015      9023      9020      9019      9015      9027
      9021      9019      9015      9023      9021      9019      9015      9027
      9022      9019      9015      9023      9022      9019      9015      9027
      9023      9015      9016      9031      9023      9015      9027      9028
      9023      9015      9027      9029      9023      9015      9027      9030
      9024      9023      9015      9027      9025      9023      9015      9027
      9026      9023      9015      9027      9027      9015      9016      9031
      9031      9037      9034      9035      9031      9037      9034      9036
      9031      9037      9034      9038      9032      9031      9037      9034
      9033      9031      9037      9034      9034      9038      9039      9040
      9034      9038      9039      9041      9034      9038      9039      9042
      9035      9034      9038      9039      9036      9034      9038      9039
      9037      9034      9038      9039      9038      9039      9042      9043
      9038      9039      9042      9044      9038      9039      9042      9050
      9039      9042      9044      9045      9039      9042      9050      9051
      9039      9042      9050      9052      9039      9042      9050      9053
      9040      9039      9042      9043      9040      9039      9042      9044
      9040      9039      9042      9050      9041      9039      9042      9043
      9041      9039      9042      9044      9041      9039      9042      9050
      9042      9044      9045      9046      9042      9044      9045      9047
      9042      9050      9053      9054      9043      9042      9044      9045
      9043      9042      9050      9051      9043      9042      9050      9052
      9043      9042      9050      9053      9044      9042      9050      9051
      9044      9042      9050      9052      9044      9042      9050      9053
      9044      9045      9047      9048      9044      9045      9047      9049
      9044      9045      9047      9059      9045      9044      9042      9050
      9045      9047      9059      9060      9045      9047      9059      9061
      9045      9047      9059      9062      9046      9045      9047      9048
      9046      9045      9047      9049      9046      9045      9047      9059
      9047      9059      9062      9063      9047      9059      9062      9064
      9047      9059      9062      9065      9048      9047      9059      9060
      9048      9047      9059      9061      9048      9047      9059      9062
      9049      9047      9059      9060      9049      9047      9059      9061
      9049      9047      9059      9062      9050      9053      9054      9055
      9050      9053      9054      9056      9051      9050      9053      9054
      9052      9050      9053      9054      9053      9054      9056      9057
      9053      9054      9056      9058      9053      9054      9056      9106
      9054      9056      9106      9107      9054      9056      9106      9108
      9054      9056      9106      9109      9055      9054      9056      9057
      9055      9054      9056      9058      9055      9054      9056      9106
      9056      9106      9109      9110      9056      9106      9109      9111
      9056      9106      9109      9112      9057      9056      9106      9107
      9057      9056      9106      9108      9057      9056      9106      9109
      9058      9056      9106      9107      9058      9056      9106      9108
      9058      9056      9106      9109      9059      9062      9065      9066
      9059      9062      9065      9067      9059      9062      9065      9068
      9060      9059      9062      9063      9060      9059      9062      9064
      9060      9059      9062      9065      9061      9059      9062      9063
      9061      9059      9062      9064      9061      9059      9062      9065
      9062      9065      9068      9069      9062      9065      9068      9070
      9062      9065      9068      9071      9063      9062      9065      9066
      9063      9062      9065      9067      9063      9062      9065      9068
      9064      9062      9065      9066      9064      9062      9065      9067
      9064      9062      9065      9068      9065      9068      9071      9072
      9065      9068      9071      9073      9065      9068      9071      9074
      9066      9065      9068      9069      9066      9065      9068      9070
      9066      9065      9068      9071      9067      9065      9068      9069
      9067      9065      9068      9070      9067      9065      9068      9071
      9068      9071      9074      9075      9068      9071      9074      9076
      9068      9071      9074      9077      9069      9068      9071      9072
      9069      9068      9071      9073      9069      9068      9071      9074
      9070      9068      9071      9072      9070      9068      9071      9073
      9070      9068      9071      9074      9071      9074      9077      9078
      9071      9074      9077      9079      9072      9071      9074      9075
      9072      9071      9074      9076      9072      9071      9074      9077
      9073      9071      9074      9075      9073      9071      9074      9076
      9073      9071      9074      9077      9074      9077      9079      9080
      9074      9077      9079      9081      9075      9074      9077      9078
      9075      9074      9077      9079      9076      9074      9077      9078
      9076      9074      9077      9079      9077      9079      9081      9082
      9077      9079      9081      9083      9077      9079      9081      9084
      9078      9077      9079      9080      9078      9077      9079      9081
      9079      9081      9084      9085      9079      9081      9084      9086
      9079      9081      9084      9087      9080      9079      9081      9082
      9080      9079      9081      9083      9080      9079      9081      9084
      9081      9084      9087      9088      9081      9084      9087      9089
      9081      9084      9087      9090      9082      9081      9084      9085
      9082      9081      9084      9086      9082      9081      9084      9087
      9083      9081      9084      9085      9083      9081      9084      9086
      9083      9081      9084      9087      9084      9087      9090      9091
      9084      9087      9090      9092      9084      9087      9090      9093
      9085      9084      9087      9088      9085      9084      9087      9089
      9085      9084      9087      9090      9086      9084      9087      9088
      9086      9084      9087      9089      9086      9084      9087      9090
      9087      9090      9093      9094      9087      9090      9093      9095
      9087      9090      9093      9096      9088      9087      9090      9091
      9088      9087      9090      9092      9088      9087      9090      9093
      9089      9087      9090      9091      9089      9087      9090      9092
      9089      9087      9090      9093      9090      9093      9096      9097
      9090      9093      9096      9098      9090      9093      9096      9099
      9091      9090      9093      9094      9091      9090      9093      9095
      9091      9090      9093      9096      9092      9090      9093      9094
      9092      9090      9093      9095      9092      9090      9093      9096
      9093      9096      9099      9100      9093      9096      9099      9101
      9093      9096      9099      9102      9094      9093      9096      9097
      9094      9093      9096      9098      9094      9093      9096      9099
      9095      9093      9096      9097      9095      9093      9096      9098
      9095      9093      9096      9099      9096      9099      9102      9103
      9096      9099      9102      9104      9096      9099      9102      9105
      9097      9096      9099      9100      9097      9096      9099      9101
      9097      9096      9099      9102      9098      9096      9099      9100
      9098      9096      9099      9101      9098      9096      9099      9102
      9100      9099      9102      9103      9100      9099      9102      9104
      9100      9099      9102      9105      9101      9099      9102      9103
      9101      9099      9102      9104      9101      9099      9102      9105
      9106      9109      9112      9113      9106      9109      9112      9114
      9106      9109      9112      9115      9107      9106      9109      9110
      9107      9106      9109      9111      9107      9106      9109      9112
      9108      9106      9109      9110      9108      9106      9109      9111
      9108      9106      9109      9112      9109      9112      9115      9116
      9109      9112      9115      9117      9109      9112      9115      9118
      9110      9109      9112      9113      9110      9109      9112      9114
      9110      9109      9112      9115      9111      9109      9112      9113
      9111      9109      9112      9114      9111      9109      9112      9115
      9112      9115      9118      9119      9112      9115      9118      9120
      9112      9115      9118      9121      9113      9112      9115      9116
      9113      9112      9115      9117      9113      9112      9115      9118
      9114      9112      9115      9116      9114      9112      9115      9117
      9114      9112      9115      9118      9115      9118      9121      9122
      9115      9118      9121      9123      9115      9118      9121      9124
      9116      9115      9118      9119      9116      9115      9118      9120
      9116      9115      9118      9121      9117      9115      9118      9119
      9117      9115      9118      9120      9117      9115      9118      9121
      9118      9121      9124      9125      9118      9121      9124      9126
      9118      9121      9124      9127      9119      9118      9121      9122
      9119      9118      9121      9123      9119      9118      9121      9124
      9120      9118      9121      9122      9120      9118      9121      9123
      9120      9118      9121      9124      9121      9124      9127      9128
      9121      9124      9127      9129      9121      9124      9127      9130
      9122      9121      9124      9125      9122      9121      9124      9126
      9122      9121      9124      9127      9123      9121      9124      9125
      9123      9121      9124      9126      9123      9121      9124      9127
      9124      9127      9130      9131      9124      9127      9130      9132
      9124      9127      9130      9133      9125      9124      9127      9128
      9125      9124      9127      9129      9125      9124      9127      9130
      9126      9124      9127      9128      9126      9124      9127      9129
      9126      9124      9127      9130      9127      9130      9133      9134
      9127      9130      9133      9135      9127      9130      9133      9136
      9128      9127      9130      9131      9128      9127      9130      9132
      9128      9127      9130      9133      9129      9127      9130      9131
      9129      9127      9130      9132      9129      9127      9130      9133
      9130      9133      9136      9137      9130      9133      9136      9138
      9130      9133      9136      9139      9131      9130      9133      9134
      9131      9130      9133      9135      9131      9130      9133      9136
      9132      9130      9133      9134      9132      9130      9133      9135
      9132      9130      9133      9136      9133      9136      9139      9140
      9133      9136      9139      9141      9133      9136      9139      9142
      9134      9133      9136      9137      9134      9133      9136      9138
      9134      9133      9136      9139      9135      9133      9136      9137
      9135      9133      9136      9138      9135      9133      9136      9139
      9136      9139      9142      9143      9136      9139      9142      9144
      9136      9139      9142      9145      9137      9136      9139      9140
      9137      9136      9139      9141      9137      9136      9139      9142
      9138      9136      9139      9140      9138      9136      9139      9141
      9138      9136      9139      9142      9139      9142      9145      9146
      9139      9142      9145      9147      9139      9142      9145      9148
      9140      9139      9142      9143      9140      9139      9142      9144
      9140      9139      9142      9145      9141      9139      9142      9143
      9141      9139      9142      9144      9141      9139      9142      9145
      9143      9142      9145      9146      9143      9142      9145      9147
      9143      9142      9145      9148      9144      9142      9145      9146
      9144      9142      9145      9147      9144      9142      9145      9148
      9149      9150      9165      9166      9149      9150      9165      9167
      9149      9150      9165      9171      9150      9149      9153      9154
      9150      9149      9153      9155      9150      9149      9153      9156
      9150      9149      9157      9158      9150      9149      9157      9159
      9150      9149      9157      9160      9150      9149      9161      9162
      9150      9149      9161      9163      9150      9149      9161      9164
      9150      9165      9171      9168      9151      9150      9149      9153
      9151      9150      9149      9157      9151      9150      9149      9161
      9151      9150      9165      9166      9151      9150      9165      9167
      9151      9150      9165      9171      9152      9150      9149      9153
      9152      9150      9149      9157      9152      9150      9149      9161
      9152      9150      9165      9166      9152      9150      9165      9167
      9152      9150      9165      9171      9153      9149      9150      9165
      9153      9149      9157      9158      9153      9149      9157      9159
      9153      9149      9157      9160      9153      9149      9161      9162
      9153      9149      9161      9163      9153      9149      9161      9164
      9154      9153      9149      9157      9154      9153      9149      9161
      9155      9153      9149      9157      9155      9153      9149      9161
      9156      9153      9149      9157      9156      9153      9149      9161
      9157      9149      9150      9165      9157      9149      9161      9162
      9157      9149      9161      9163      9157      9149      9161      9164
      9158      9157      9149      9161      9159      9157      9149      9161
      9160      9157      9149      9161      9161      9149      9150      9165
      9165      9171      9168      9169      9165      9171      9168      9170
      9165      9171      9168      9172      9166      9165      9171      9168
      9167      9165      9171      9168      9168      9172      9173      9174
      9168      9172      9173      9175      9168      9172      9173      9176
      9169      9168      9172      9173      9170      9168      9172      9173
      9171      9168      9172      9173      9172      9173      9176      9177
      9172      9173      9176      9178      9172      9173      9176      9184
      9173      9176      9178      9179      9173      9176      9184      9185
      9173      9176      9184      9186      9173      9176      9184      9187
      9174      9173      9176      9177      9174      9173      9176      9178
      9174      9173      9176      9184      9175      9173      9176      9177
      9175      9173      9176      9178      9175      9173      9176      9184
      9176      9178      9179      9180      9176      9178      9179      9181
      9176      9184      9187      9188      9177      9176      9178      9179
      9177      9176      9184      9185      9177      9176      9184      9186
      9177      9176      9184      9187      9178      9176      9184      9185
      9178      9176      9184      9186      9178      9176      9184      9187
      9178      9179      9181      9182      9178      9179      9181      9183
      9178      9179      9181      9193      9179      9178      9176      9184
      9179      9181      9193      9194      9179      9181      9193      9195
      9179      9181      9193      9196      9180      9179      9181      9182
      9180      9179      9181      9183      9180      9179      9181      9193
      9181      9193      9196      9197      9181      9193      9196      9198
      9181      9193      9196      9199      9182      9181      9193      9194
      9182      9181      9193      9195      9182      9181      9193      9196
      9183      9181      9193      9194      9183      9181      9193      9195
      9183      9181      9193      9196      9184      9187      9188      9189
      9184      9187      9188      9190      9185      9184      9187      9188
      9186      9184      9187      9188      9187      9188      9190      9191
      9187      9188      9190      9192      9187      9188      9190      9240
      9188      9190      9240      9241      9188      9190      9240      9242
      9188      9190      9240      9243      9189      9188      9190      9191
      9189      9188      9190      9192      9189      9188      9190      9240
      9190      9240      9243      9244      9190      9240      9243      9245
      9190      9240      9243      9246      9191      9190      9240      9241
      9191      9190      9240      9242      9191      9190      9240      9243
      9192      9190      9240      9241      9192      9190      9240      9242
      9192      9190      9240      9243      9193      9196      9199      9200
      9193      9196      9199      9201      9193      9196      9199      9202
      9194      9193      9196      9197      9194      9193      9196      9198
      9194      9193      9196      9199      9195      9193      9196      9197
      9195      9193      9196      9198      9195      9193      9196      9199
      9196      9199      9202      9203      9196      9199      9202      9204
      9196      9199      9202      9205      9197      9196      9199      9200
      9197      9196      9199      9201      9197      9196      9199      9202
      9198      9196      9199      9200      9198      9196      9199      9201
      9198      9196      9199      9202      9199      9202      9205      9206
      9199      9202      9205      9207      9199      9202      9205      9208
      9200      9199      9202      9203      9200      9199      9202      9204
      9200      9199      9202      9205      9201      9199      9202      9203
      9201      9199      9202      9204      9201      9199      9202      9205
      9202      9205      9208      9209      9202      9205      9208      9210
      9202      9205      9208      9211      9203      9202      9205      9206
      9203      9202      9205      9207      9203      9202      9205      9208
      9204      9202      9205      9206      9204      9202      9205      9207
      9204      9202      9205      9208      9205      9208      9211      9212
      9205      9208      9211      9213      9206      9205      9208      9209
      9206      9205      9208      9210      9206      9205      9208      9211
      9207      9205      9208      9209      9207      9205      9208      9210
      9207      9205      9208      9211      9208      9211      9213      9214
      9208      9211      9213      9215      9209      9208      9211      9212
      9209      9208      9211      9213      9210      9208      9211      9212
      9210      9208      9211      9213      9211      9213      9215      9216
      9211      9213      9215      9217      9211      9213      9215      9218
      9212      9211      9213      9214      9212      9211      9213      9215
      9213      9215      9218      9219      9213      9215      9218      9220
      9213      9215      9218      9221      9214      9213      9215      9216
      9214      9213      9215      9217      9214      9213      9215      9218
      9215      9218      9221      9222      9215      9218      9221      9223
      9215      9218      9221      9224      9216      9215      9218      9219
      9216      9215      9218      9220      9216      9215      9218      9221
      9217      9215      9218      9219      9217      9215      9218      9220
      9217      9215      9218      9221      9218      9221      9224      9225
      9218      9221      9224      9226      9218      9221      9224      9227
      9219      9218      9221      9222      9219      9218      9221      9223
      9219      9218      9221      9224      9220      9218      9221      9222
      9220      9218      9221      9223      9220      9218      9221      9224
      9221      9224      9227      9228      9221      9224      9227      9229
      9221      9224      9227      9230      9222      9221      9224      9225
      9222      9221      9224      9226      9222      9221      9224      9227
      9223      9221      9224      9225      9223      9221      9224      9226
      9223      9221      9224      9227      9224      9227      9230      9231
      9224      9227      9230      9232      9224      9227      9230      9233
      9225      9224      9227      9228      9225      9224      9227      9229
      9225      9224      9227      9230      9226      9224      9227      9228
      9226      9224      9227      9229      9226      9224      9227      9230
      9227      9230      9233      9234      9227      9230      9233      9235
      9227      9230      9233      9236      9228      9227      9230      9231
      9228      9227      9230      9232      9228      9227      9230      9233
      9229      9227      9230      9231      9229      9227      9230      9232
      9229      9227      9230      9233      9230      9233      9236      9237
      9230      9233      9236      9238      9230      9233      9236      9239
      9231      9230      9233      9234      9231      9230      9233      9235
      9231      9230      9233      9236      9232      9230      9233      9234
      9232      9230      9233      9235      9232      9230      9233      9236
      9234      9233      9236      9237      9234      9233      9236      9238
      9234      9233      9236      9239      9235      9233      9236      9237
      9235      9233      9236      9238      9235      9233      9236      9239
      9240      9243      9246      9247      9240      9243      9246      9248
      9240      9243      9246      9249      9241      9240      9243      9244
      9241      9240      9243      9245      9241      9240      9243      9246
      9242      9240      9243      9244      9242      9240      9243      9245
      9242      9240      9243      9246      9243      9246      9249      9250
      9243      9246      9249      9251      9243      9246      9249      9252
      9244      9243      9246      9247      9244      9243      9246      9248
      9244      9243      9246      9249      9245      9243      9246      9247
      9245      9243      9246      9248      9245      9243      9246      9249
      9246      9249      9252      9253      9246      9249      9252      9254
      9246      9249      9252      9255      9247      9246      9249      9250
      9247      9246      9249      9251      9247      9246      9249      9252
      9248      9246      9249      9250      9248      9246      9249      9251
      9248      9246      9249      9252      9249      9252      9255      9256
      9249      9252      9255      9257      9249      9252      9255      9258
      9250      9249      9252      9253      9250      9249      9252      9254
      9250      9249      9252      9255      9251      9249      9252      9253
      9251      9249      9252      9254      9251      9249      9252      9255
      9252      9255      9258      9259      9252      9255      9258      9260
      9252      9255      9258      9261      9253      9252      9255      9256
      9253      9252      9255      9257      9253      9252      9255      9258
      9254      9252      9255      9256      9254      9252      9255      9257
      9254      9252      9255      9258      9255      9258      9261      9262
      9255      9258      9261      9263      9255      9258      9261      9264
      9256      9255      9258      9259      9256      9255      9258      9260
      9256      9255      9258      9261      9257      9255      9258      9259
      9257      9255      9258      9260      9257      9255      9258      9261
      9258      9261      9264      9265      9258      9261      9264      9266
      9258      9261      9264      9267      9259      9258      9261      9262
      9259      9258      9261      9263      9259      9258      9261      9264
      9260      9258      9261      9262      9260      9258      9261      9263
      9260      9258      9261      9264      9261      9264      9267      9268
      9261      9264      9267      9269      9261      9264      9267      9270
      9262      9261      9264      9265      9262      9261      9264      9266
      9262      9261      9264      9267      9263      9261      9264      9265
      9263      9261      9264      9266      9263      9261      9264      9267
      9264      9267      9270      9271      9264      9267      9270      9272
      9264      9267      9270      9273      9265      9264      9267      9268
      9265      9264      9267      9269      9265      9264      9267      9270
      9266      9264      9267      9268      9266      9264      9267      9269
      9266      9264      9267      9270      9267      9270      9273      9274
      9267      9270      9273      9275      9267      9270      9273      9276
      9268      9267      9270      9271      9268      9267      9270      9272
      9268      9267      9270      9273      9269      9267      9270      9271
      9269      9267      9270      9272      9269      9267      9270      9273
      9270      9273      9276      9277      9270      9273      9276      9278
      9270      9273      9276      9279      9271      9270      9273      9274
      9271      9270      9273      9275      9271      9270      9273      9276
      9272      9270      9273      9274      9272      9270      9273      9275
      9272      9270      9273      9276      9273      9276      9279      9280
      9273      9276      9279      9281      9273      9276      9279      9282
      9274      9273      9276      9277      9274      9273      9276      9278
      9274      9273      9276      9279      9275      9273      9276      9277
      9275      9273      9276      9278      9275      9273      9276      9279
      9277      9276      9279      9280      9277      9276      9279      9281
      9277      9276      9279      9282      9278      9276      9279      9280
      9278      9276      9279      9281      9278      9276      9279      9282
      9283      9287      9289      9290      9283      9287      9289      9291
      9283      9287      9292      9293      9283      9287      9292      9294
      9283      9287      9292      9298      9284      9283      9287      9288
      9284      9283      9287      9289      9284      9283      9287      9292
      9285      9283      9287      9288      9285      9283      9287      9289
      9285      9283      9287      9292      9286      9283      9287      9288
      9286      9283      9287      9289      9286      9283      9287      9292
      9287      9292      9298      9295      9288      9287      9289      9290
      9288      9287      9289      9291      9288      9287      9292      9293
      9288      9287      9292      9294      9288      9287      9292      9298
      9289      9287      9292      9293      9289      9287      9292      9294
      9289      9287      9292      9298      9290      9289      9287      9292
      9291      9289      9287      9292      9292      9298      9295      9296
      9292      9298      9295      9297      9292      9298      9295      9299
      9293      9292      9298      9295      9294      9292      9298      9295
      9295      9299      9300      9301      9295      9299      9300      9302
      9295      9299      9300      9303      9296      9295      9299      9300
      9297      9295      9299      9300      9298      9295      9299      9300
      9299      9300      9303      9304      9299      9300      9303      9305
      9299      9300      9303      9311      9300      9303      9305      9306
      9300      9303      9311      9312      9300      9303      9311      9313
      9300      9303      9311      9314      9301      9300      9303      9304
      9301      9300      9303      9305      9301      9300      9303      9311
      9302      9300      9303      9304      9302      9300      9303      9305
      9302      9300      9303      9311      9303      9305      9306      9307
      9303      9305      9306      9308      9303      9311      9314      9315
      9304      9303      9305      9306      9304      9303      9311      9312
      9304      9303      9311      9313      9304      9303      9311      9314
      9305      9303      9311      9312      9305      9303      9311      9313
      9305      9303      9311      9314      9305      9306      9308      9309
      9305      9306      9308      9310      9305      9306      9308      9320
      9306      9305      9303      9311      9306      9308      9320      9321
      9306      9308      9320      9322      9306      9308      9320      9323
      9307      9306      9308      9309      9307      9306      9308      9310
      9307      9306      9308      9320      9308      9320      9323      9324
      9308      9320      9323      9325      9308      9320      9323      9326
      9309      9308      9320      9321      9309      9308      9320      9322
      9309      9308      9320      9323      9310      9308      9320      9321
      9310      9308      9320      9322      9310      9308      9320      9323
      9311      9314      9315      9316      9311      9314      9315      9317
      9312      9311      9314      9315      9313      9311      9314      9315
      9314      9315      9317      9318      9314      9315      9317      9319
      9314      9315      9317      9367      9315      9317      9367      9368
      9315      9317      9367      9369      9315      9317      9367      9370
      9316      9315      9317      9318      9316      9315      9317      9319
      9316      9315      9317      9367      9317      9367      9370      9371
      9317      9367      9370      9372      9317      9367      9370      9373
      9318      9317      9367      9368      9318      9317      9367      9369
      9318      9317      9367      9370      9319      9317      9367      9368
      9319      9317      9367      9369      9319      9317      9367      9370
      9320      9323      9326      9327      9320      9323      9326      9328
      9320      9323      9326      9329      9321      9320      9323      9324
      9321      9320      9323      9325      9321      9320      9323      9326
      9322      9320      9323      9324      9322      9320      9323      9325
      9322      9320      9323      9326      9323      9326      9329      9330
      9323      9326      9329      9331      9323      9326      9329      9332
      9324      9323      9326      9327      9324      9323      9326      9328
      9324      9323      9326      9329      9325      9323      9326      9327
      9325      9323      9326      9328      9325      9323      9326      9329
      9326      9329      9332      9333      9326      9329      9332      9334
      9326      9329      9332      9335      9327      9326      9329      9330
      9327      9326      9329      9331      9327      9326      9329      9332
      9328      9326      9329      9330      9328      9326      9329      9331
      9328      9326      9329      9332      9329      9332      9335      9336
      9329      9332      9335      9337      9329      9332      9335      9338
      9330      9329      9332      9333      9330      9329      9332      9334
      9330      9329      9332      9335      9331      9329      9332      9333
      9331      9329      9332      9334      9331      9329      9332      9335
      9332      9335      9338      9339      9332      9335      9338      9340
      9333      9332      9335      9336      9333      9332      9335      9337
      9333      9332      9335      9338      9334      9332      9335      9336
      9334      9332      9335      9337      9334      9332      9335      9338
      9335      9338      9340      9341      9335      9338      9340      9342
      9336      9335      9338      9339      9336      9335      9338      9340
      9337      9335      9338      9339      9337      9335      9338      9340
      9338      9340      9342      9343      9338      9340      9342      9344
      9338      9340      9342      9345      9339      9338      9340      9341
      9339      9338      9340      9342      9340      9342      9345      9346
      9340      9342      9345      9347      9340      9342      9345      9348
      9341      9340      9342      9343      9341      9340      9342      9344
      9341      9340      9342      9345      9342      9345      9348      9349
      9342      9345      9348      9350      9342      9345      9348      9351
      9343      9342      9345      9346      9343      9342      9345      9347
      9343      9342      9345      9348      9344      9342      9345      9346
      9344      9342      9345      9347      9344      9342      9345      9348
      9345      9348      9351      9352      9345      9348      9351      9353
      9345      9348      9351      9354      9346      9345      9348      9349
      9346      9345      9348      9350      9346      9345      9348      9351
      9347      9345      9348      9349      9347      9345      9348      9350
      9347      9345      9348      9351      9348      9351      9354      9355
      9348      9351      9354      9356      9348      9351      9354      9357
      9349      9348      9351      9352      9349      9348      9351      9353
      9349      9348      9351      9354      9350      9348      9351      9352
      9350      9348      9351      9353      9350      9348      9351      9354
      9351      9354      9357      9358      9351      9354      9357      9359
      9351      9354      9357      9360      9352      9351      9354      9355
      9352      9351      9354      9356      9352      9351      9354      9357
      9353      9351      9354      9355      9353      9351      9354      9356
      9353      9351      9354      9357      9354      9357      9360      9361
      9354      9357      9360      9362      9354      9357      9360      9363
      9355      9354      9357      9358      9355      9354      9357      9359
      9355      9354      9357      9360      9356      9354      9357      9358
      9356      9354      9357      9359      9356      9354      9357      9360
      9357      9360      9363      9364      9357      9360      9363      9365
      9357      9360      9363      9366      9358      9357      9360      9361
      9358      9357      9360      9362      9358      9357      9360      9363
      9359      9357      9360      9361      9359      9357      9360      9362
      9359      9357      9360      9363      9361      9360      9363      9364
      9361      9360      9363      9365      9361      9360      9363      9366
      9362      9360      9363      9364      9362      9360      9363      9365
      9362      9360      9363      9366      9367      9370      9373      9374
      9367      9370      9373      9375      9367      9370      9373      9376
      9368      9367      9370      9371      9368      9367      9370      9372
      9368      9367      9370      9373      9369      9367      9370      9371
      9369      9367      9370      9372      9369      9367      9370      9373
      9370      9373      9376      9377      9370      9373      9376      9378
      9370      9373      9376      9379      9371      9370      9373      9374
      9371      9370      9373      9375      9371      9370      9373      9376
      9372      9370      9373      9374      9372      9370      9373      9375
      9372      9370      9373      9376      9373      9376      9379      9380
      9373      9376      9379      9381      9373      9376      9379      9382
      9374      9373      9376      9377      9374      9373      9376      9378
      9374      9373      9376      9379      9375      9373      9376      9377
      9375      9373      9376      9378      9375      9373      9376      9379
      9376      9379      9382      9383      9376      9379      9382      9384
      9376      9379      9382      9385      9377      9376      9379      9380
      9377      9376      9379      9381      9377      9376      9379      9382
      9378      9376      9379      9380      9378      9376      9379      9381
      9378      9376      9379      9382      9379      9382      9385      9386
      9379      9382      9385      9387      9379      9382      9385      9388
      9380      9379      9382      9383      9380      9379      9382      9384
      9380      9379      9382      9385      9381      9379      9382      9383
      9381      9379      9382      9384      9381      9379      9382      9385
      9382      9385      9388      9389      9382      9385      9388      9390
      9382      9385      9388      9391      9383      9382      9385      9386
      9383      9382      9385      9387      9383      9382      9385      9388
      9384      9382      9385      9386      9384      9382      9385      9387
      9384      9382      9385      9388      9385      9388      9391      9392
      9385      9388      9391      9393      9385      9388      9391      9394
      9386      9385      9388      9389      9386      9385      9388      9390
      9386      9385      9388      9391      9387      9385      9388      9389
      9387      9385      9388      9390      9387      9385      9388      9391
      9388      9391      9394      9395      9388      9391      9394      9396
      9388      9391      9394      9397      9389      9388      9391      9392
      9389      9388      9391      9393      9389      9388      9391      9394
      9390      9388      9391      9392      9390      9388      9391      9393
      9390      9388      9391      9394      9391      9394      9397      9398
      9391      9394      9397      9399      9391      9394      9397      9400
      9392      9391      9394      9395      9392      9391      9394      9396
      9392      9391      9394      9397      9393      9391      9394      9395
      9393      9391      9394      9396      9393      9391      9394      9397
      9394      9397      9400      9401      9394      9397      9400      9402
      9394      9397      9400      9403      9395      9394      9397      9398
      9395      9394      9397      9399      9395      9394      9397      9400
      9396      9394      9397      9398      9396      9394      9397      9399
      9396      9394      9397      9400      9397      9400      9403      9404
      9397      9400      9403      9405      9397      9400      9403      9406
      9398      9397      9400      9401      9398      9397      9400      9402
      9398      9397      9400      9403      9399      9397      9400      9401
      9399      9397      9400      9402      9399      9397      9400      9403
      9400      9403      9406      9407      9400      9403      9406      9408
      9400      9403      9406      9409      9401      9400      9403      9404
      9401      9400      9403      9405      9401      9400      9403      9406
      9402      9400      9403      9404      9402      9400      9403      9405
      9402      9400      9403      9406      9404      9403      9406      9407
      9404      9403      9406      9408      9404      9403      9406      9409
      9405      9403      9406      9407      9405      9403      9406      9408
      9405      9403      9406      9409      9410      9411      9426      9427
      9410      9411      9426      9428      9410      9411      9426      9432
      9411      9410      9414      9415      9411      9410      9414      9416
      9411      9410      9414      9417      9411      9410      9418      9419
      9411      9410      9418      9420      9411      9410      9418      9421
      9411      9410      9422      9423      9411      9410      9422      9424
      9411      9410      9422      9425      9411      9426      9432      9429
      9412      9411      9410      9414      9412      9411      9410      9418
      9412      9411      9410      9422      9412      9411      9426      9427
      9412      9411      9426      9428      9412      9411      9426      9432
      9413      9411      9410      9414      9413      9411      9410      9418
      9413      9411      9410      9422      9413      9411      9426      9427
      9413      9411      9426      9428      9413      9411      9426      9432
      9414      9410      9411      9426      9414      9410      9418      9419
      9414      9410      9418      9420      9414      9410      9418      9421
      9414      9410      9422      9423      9414      9410      9422      9424
      9414      9410      9422      9425      9415      9414      9410      9418
      9415      9414      9410      9422      9416      9414      9410      9418
      9416      9414      9410      9422      9417      9414      9410      9418
      9417      9414      9410      9422      9418      9410      9411      9426
      9418      9410      9422      9423      9418      9410      9422      9424
      9418      9410      9422      9425      9419      9418      9410      9422
      9420      9418      9410      9422      9421      9418      9410      9422
      9422      9410      9411      9426      9426      9432      9429      9430
      9426      9432      9429      9431      9426      9432      9429      9433
      9427      9426      9432      9429      9428      9426      9432      9429
      9429      9433      9434      9435      9429      9433      9434      9436
      9429      9433      9434      9437      9430      9429      9433      9434
      9431      9429      9433      9434      9432      9429      9433      9434
      9433      9434      9437      9438      9433      9434      9437      9439
      9433      9434      9437      9445      9434      9437      9439      9440
      9434      9437      9445      9446      9434      9437      9445      9447
      9434      9437      9445      9448      9435      9434      9437      9438
      9435      9434      9437      9439      9435      9434      9437      9445
      9436      9434      9437      9438      9436      9434      9437      9439
      9436      9434      9437      9445      9437      9439      9440      9441
      9437      9439      9440      9442      9437      9445      9448      9449
      9438      9437      9439      9440      9438      9437      9445      9446
      9438      9437      9445      9447      9438      9437      9445      9448
      9439      9437      9445      9446      9439      9437      9445      9447
      9439      9437      9445      9448      9439      9440      9442      9443
      9439      9440      9442      9444      9439      9440      9442      9454
      9440      9439      9437      9445      9440      9442      9454      9455
      9440      9442      9454      9456      9440      9442      9454      9457
      9441      9440      9442      9443      9441      9440      9442      9444
      9441      9440      9442      9454      9442      9454      9457      9458
      9442      9454      9457      9459      9442      9454      9457      9460
      9443      9442      9454      9455      9443      9442      9454      9456
      9443      9442      9454      9457      9444      9442      9454      9455
      9444      9442      9454      9456      9444      9442      9454      9457
      9445      9448      9449      9450      9445      9448      9449      9451
      9446      9445      9448      9449      9447      9445      9448      9449
      9448      9449      9451      9452      9448      9449      9451      9453
      9448      9449      9451      9501      9449      9451      9501      9502
      9449      9451      9501      9503      9449      9451      9501      9504
      9450      9449      9451      9452      9450      9449      9451      9453
      9450      9449      9451      9501      9451      9501      9504      9505
      9451      9501      9504      9506      9451      9501      9504      9507
      9452      9451      9501      9502      9452      9451      9501      9503
      9452      9451      9501      9504      9453      9451      9501      9502
      9453      9451      9501      9503      9453      9451      9501      9504
      9454      9457      9460      9461      9454      9457      9460      9462
      9454      9457      9460      9463      9455      9454      9457      9458
      9455      9454      9457      9459      9455      9454      9457      9460
      9456      9454      9457      9458      9456      9454      9457      9459
      9456      9454      9457      9460      9457      9460      9463      9464
      9457      9460      9463      9465      9457      9460      9463      9466
      9458      9457      9460      9461      9458      9457      9460      9462
      9458      9457      9460      9463      9459      9457      9460      9461
      9459      9457      9460      9462      9459      9457      9460      9463
      9460      9463      9466      9467      9460      9463      9466      9468
      9460      9463      9466      9469      9461      9460      9463      9464
      9461      9460      9463      9465      9461      9460      9463      9466
      9462      9460      9463      9464      9462      9460      9463      9465
      9462      9460      9463      9466      9463      9466      9469      9470
      9463      9466      9469      9471      9463      9466      9469      9472
      9464      9463      9466      9467      9464      9463      9466      9468
      9464      9463      9466      9469      9465      9463      9466      9467
      9465      9463      9466      9468      9465      9463      9466      9469
      9466      9469      9472      9473      9466      9469      9472      9474
      9467      9466      9469      9470      9467      9466      9469      9471
      9467      9466      9469      9472      9468      9466      9469      9470
      9468      9466      9469      9471      9468      9466      9469      9472
      9469      9472      9474      9475      9469      9472      9474      9476
      9470      9469      9472      9473      9470      9469      9472      9474
      9471      9469      9472      9473      9471      9469      9472      9474
      9472      9474      9476      9477      9472      9474      9476      9478
      9472      9474      9476      9479      9473      9472      9474      9475
      9473      9472      9474      9476      9474      9476      9479      9480
      9474      9476      9479      9481      9474      9476      9479      9482
      9475      9474      9476      9477      9475      9474      9476      9478
      9475      9474      9476      9479      9476      9479      9482      9483
      9476      9479      9482      9484      9476      9479      9482      9485
      9477      9476      9479      9480      9477      9476      9479      9481
      9477      9476      9479      9482      9478      9476      9479      9480
      9478      9476      9479      9481      9478      9476      9479      9482
      9479      9482      9485      9486      9479      9482      9485      9487
      9479      9482      9485      9488      9480      9479      9482      9483
      9480      9479      9482      9484      9480      9479      9482      9485
      9481      9479      9482      9483      9481      9479      9482      9484
      9481      9479      9482      9485      9482      9485      9488      9489
      9482      9485      9488      9490      9482      9485      9488      9491
      9483      9482      9485      9486      9483      9482      9485      9487
      9483      9482      9485      9488      9484      9482      9485      9486
      9484      9482      9485      9487      9484      9482      9485      9488
      9485      9488      9491      9492      9485      9488      9491      9493
      9485      9488      9491      9494      9486      9485      9488      9489
      9486      9485      9488      9490      9486      9485      9488      9491
      9487      9485      9488      9489      9487      9485      9488      9490
      9487      9485      9488      9491      9488      9491      9494      9495
      9488      9491      9494      9496      9488      9491      9494      9497
      9489      9488      9491      9492      9489      9488      9491      9493
      9489      9488      9491      9494      9490      9488      9491      9492
      9490      9488      9491      9493      9490      9488      9491      9494
      9491      9494      9497      9498      9491      9494      9497      9499
      9491      9494      9497      9500      9492      9491      9494      9495
      9492      9491      9494      9496      9492      9491      9494      9497
      9493      9491      9494      9495      9493      9491      9494      9496
      9493      9491      9494      9497      9495      9494      9497      9498
      9495      9494      9497      9499      9495      9494      9497      9500
      9496      9494      9497      9498      9496      9494      9497      9499
      9496      9494      9497      9500      9501      9504      9507      9508
      9501      9504      9507      9509      9501      9504      9507      9510
      9502      9501      9504      9505      9502      9501      9504      9506
      9502      9501      9504      9507      9503      9501      9504      9505
      9503      9501      9504      9506      9503      9501      9504      9507
      9504      9507      9510      9511      9504      9507      9510      9512
      9504      9507      9510      9513      9505      9504      9507      9508
      9505      9504      9507      9509      9505      9504      9507      9510
      9506      9504      9507      9508      9506      9504      9507      9509
      9506      9504      9507      9510      9507      9510      9513      9514
      9507      9510      9513      9515      9507      9510      9513      9516
      9508      9507      9510      9511      9508      9507      9510      9512
      9508      9507      9510      9513      9509      9507      9510      9511
      9509      9507      9510      9512      9509      9507      9510      9513
      9510      9513      9516      9517      9510      9513      9516      9518
      9510      9513      9516      9519      9511      9510      9513      9514
      9511      9510      9513      9515      9511      9510      9513      9516
      9512      9510      9513      9514      9512      9510      9513      9515
      9512      9510      9513      9516      9513      9516      9519      9520
      9513      9516      9519      9521      9513      9516      9519      9522
      9514      9513      9516      9517      9514      9513      9516      9518
      9514      9513      9516      9519      9515      9513      9516      9517
      9515      9513      9516      9518      9515      9513      9516      9519
      9516      9519      9522      9523      9516      9519      9522      9524
      9516      9519      9522      9525      9517      9516      9519      9520
      9517      9516      9519      9521      9517      9516      9519      9522
      9518      9516      9519      9520      9518      9516      9519      9521
      9518      9516      9519      9522      9519      9522      9525      9526
      9519      9522      9525      9527      9519      9522      9525      9528
      9520      9519      9522      9523      9520      9519      9522      9524
      9520      9519      9522      9525      9521      9519      9522      9523
      9521      9519      9522      9524      9521      9519      9522      9525
      9522      9525      9528      9529      9522      9525      9528      9530
      9522      9525      9528      9531      9523      9522      9525      9526
      9523      9522      9525      9527      9523      9522      9525      9528
      9524      9522      9525      9526      9524      9522      9525      9527
      9524      9522      9525      9528      9525      9528      9531      9532
      9525      9528      9531      9533      9525      9528      9531      9534
      9526      9525      9528      9529      9526      9525      9528      9530
      9526      9525      9528      9531      9527      9525      9528      9529
      9527      9525      9528      9530      9527      9525      9528      9531
      9528      9531      9534      9535      9528      9531      9534      9536
      9528      9531      9534      9537      9529      9528      9531      9532
      9529      9528      9531      9533      9529      9528      9531      9534
      9530      9528      9531      9532      9530      9528      9531      9533
      9530      9528      9531      9534      9531      9534      9537      9538
      9531      9534      9537      9539      9531      9534      9537      9540
      9532      9531      9534      9535      9532      9531      9534      9536
      9532      9531      9534      9537      9533      9531      9534      9535
      9533      9531      9534      9536      9533      9531      9534      9537
      9534      9537      9540      9541      9534      9537      9540      9542
      9534      9537      9540      9543      9535      9534      9537      9538
      9535      9534      9537      9539      9535      9534      9537      9540
      9536      9534      9537      9538      9536      9534      9537      9539
      9536      9534      9537      9540      9538      9537      9540      9541
      9538      9537      9540      9542      9538      9537      9540      9543
      9539      9537      9540      9541      9539      9537      9540      9542
      9539      9537      9540      9543      9544      9545      9560      9561
      9544      9545      9560      9562      9544      9545      9560      9566
      9545      9544      9548      9549      9545      9544      9548      9550
      9545      9544      9548      9551      9545      9544      9552      9553
      9545      9544      9552      9554      9545      9544      9552      9555
      9545      9544      9556      9557      9545      9544      9556      9558
      9545      9544      9556      9559      9545      9560      9566      9563
      9546      9545      9544      9548      9546      9545      9544      9552
      9546      9545      9544      9556      9546      9545      9560      9561
      9546      9545      9560      9562      9546      9545      9560      9566
      9547      9545      9544      9548      9547      9545      9544      9552
      9547      9545      9544      9556      9547      9545      9560      9561
      9547      9545      9560      9562      9547      9545      9560      9566
      9548      9544      9545      9560      9548      9544      9552      9553
      9548      9544      9552      9554      9548      9544      9552      9555
      9548      9544      9556      9557      9548      9544      9556      9558
      9548      9544      9556      9559      9549      9548      9544      9552
      9549      9548      9544      9556      9550      9548      9544      9552
      9550      9548      9544      9556      9551      9548      9544      9552
      9551      9548      9544      9556      9552      9544      9545      9560
      9552      9544      9556      9557      9552      9544      9556      9558
      9552      9544      9556      9559      9553      9552      9544      9556
      9554      9552      9544      9556      9555      9552      9544      9556
      9556      9544      9545      9560      9560      9566      9563      9564
      9560      9566      9563      9565      9560      9566      9563      9567
      9561      9560      9566      9563      9562      9560      9566      9563
      9563      9567      9568      9569      9563      9567      9568      9570
      9563      9567      9568      9571      9564      9563      9567      9568
      9565      9563      9567      9568      9566      9563      9567      9568
      9567      9568      9571      9572      9567      9568      9571      9573
      9567      9568      9571      9579      9568      9571      9573      9574
      9568      9571      9579      9580      9568      9571      9579      9581
      9568      9571      9579      9582      9569      9568      9571      9572
      9569      9568      9571      9573      9569      9568      9571      9579
      9570      9568      9571      9572      9570      9568      9571      9573
      9570      9568      9571      9579      9571      9573      9574      9575
      9571      9573      9574      9576      9571      9579      9582      9583
      9572      9571      9573      9574      9572      9571      9579      9580
      9572      9571      9579      9581      9572      9571      9579      9582
      9573      9571      9579      9580      9573      9571      9579      9581
      9573      9571      9579      9582      9573      9574      9576      9577
      9573      9574      9576      9578      9573      9574      9576      9588
      9574      9573      9571      9579      9574      9576      9588      9589
      9574      9576      9588      9590      9574      9576      9588      9591
      9575      9574      9576      9577      9575      9574      9576      9578
      9575      9574      9576      9588      9576      9588      9591      9592
      9576      9588      9591      9593      9576      9588      9591      9594
      9577      9576      9588      9589      9577      9576      9588      9590
      9577      9576      9588      9591      9578      9576      9588      9589
      9578      9576      9588      9590      9578      9576      9588      9591
      9579      9582      9583      9584      9579      9582      9583      9585
      9580      9579      9582      9583      9581      9579      9582      9583
      9582      9583      9585      9586      9582      9583      9585      9587
      9582      9583      9585      9635      9583      9585      9635      9636
      9583      9585      9635      9637      9583      9585      9635      9638
      9584      9583      9585      9586      9584      9583      9585      9587
      9584      9583      9585      9635      9585      9635      9638      9639
      9585      9635      9638      9640      9585      9635      9638      9641
      9586      9585      9635      9636      9586      9585      9635      9637
      9586      9585      9635      9638      9587      9585      9635      9636
      9587      9585      9635      9637      9587      9585      9635      9638
      9588      9591      9594      9595      9588      9591      9594      9596
      9588      9591      9594      9597      9589      9588      9591      9592
      9589      9588      9591      9593      9589      9588      9591      9594
      9590      9588      9591      9592      9590      9588      9591      9593
      9590      9588      9591      9594      9591      9594      9597      9598
      9591      9594      9597      9599      9591      9594      9597      9600
      9592      9591      9594      9595      9592      9591      9594      9596
      9592      9591      9594      9597      9593      9591      9594      9595
      9593      9591      9594      9596      9593      9591      9594      9597
      9594      9597      9600      9601      9594      9597      9600      9602
      9594      9597      9600      9603      9595      9594      9597      9598
      9595      9594      9597      9599      9595      9594      9597      9600
      9596      9594      9597      9598      9596      9594      9597      9599
      9596      9594      9597      9600      9597      9600      9603      9604
      9597      9600      9603      9605      9597      9600      9603      9606
      9598      9597      9600      9601      9598      9597      9600      9602
      9598      9597      9600      9603      9599      9597      9600      9601
      9599      9597      9600      9602      9599      9597      9600      9603
      9600      9603      9606      9607      9600      9603      9606      9608
      9601      9600      9603      9604      9601      9600      9603      9605
      9601      9600      9603      9606      9602      9600      9603      9604
      9602      9600      9603      9605      9602      9600      9603      9606
      9603      9606      9608      9609      9603      9606      9608      9610
      9604      9603      9606      9607      9604      9603      9606      9608
      9605      9603      9606      9607      9605      9603      9606      9608
      9606      9608      9610      9611      9606      9608      9610      9612
      9606      9608      9610      9613      9607      9606      9608      9609
      9607      9606      9608      9610      9608      9610      9613      9614
      9608      9610      9613      9615      9608      9610      9613      9616
      9609      9608      9610      9611      9609      9608      9610      9612
      9609      9608      9610      9613      9610      9613      9616      9617
      9610      9613      9616      9618      9610      9613      9616      9619
      9611      9610      9613      9614      9611      9610      9613      9615
      9611      9610      9613      9616      9612      9610      9613      9614
      9612      9610      9613      9615      9612      9610      9613      9616
      9613      9616      9619      9620      9613      9616      9619      9621
      9613      9616      9619      9622      9614      9613      9616      9617
      9614      9613      9616      9618      9614      9613      9616      9619
      9615      9613      9616      9617      9615      9613      9616      9618
      9615      9613      9616      9619      9616      9619      9622      9623
      9616      9619      9622      9624      9616      9619      9622      9625
      9617      9616      9619      9620      9617      9616      9619      9621
      9617      9616      9619      9622      9618      9616      9619      9620
      9618      9616      9619      9621      9618      9616      9619      9622
      9619      9622      9625      9626      9619      9622      9625      9627
      9619      9622      9625      9628      9620      9619      9622      9623
      9620      9619      9622      9624      9620      9619      9622      9625
      9621      9619      9622      9623      9621      9619      9622      9624
      9621      9619      9622      9625      9622      9625      9628      9629
      9622      9625      9628      9630      9622      9625      9628      9631
      9623      9622      9625      9626      9623      9622      9625      9627
      9623      9622      9625      9628      9624      9622      9625      9626
      9624      9622      9625      9627      9624      9622      9625      9628
      9625      9628      9631      9632      9625      9628      9631      9633
      9625      9628      9631      9634      9626      9625      9628      9629
      9626      9625      9628      9630      9626      9625      9628      9631
      9627      9625      9628      9629      9627      9625      9628      9630
      9627      9625      9628      9631      9629      9628      9631      9632
      9629      9628      9631      9633      9629      9628      9631      9634
      9630      9628      9631      9632      9630      9628      9631      9633
      9630      9628      9631      9634      9635      9638      9641      9642
      9635      9638      9641      9643      9635      9638      9641      9644
      9636      9635      9638      9639      9636      9635      9638      9640
      9636      9635      9638      9641      9637      9635      9638      9639
      9637      9635      9638      9640      9637      9635      9638      9641
      9638      9641      9644      9645      9638      9641      9644      9646
      9638      9641      9644      9647      9639      9638      9641      9642
      9639      9638      9641      9643      9639      9638      9641      9644
      9640      9638      9641      9642      9640      9638      9641      9643
      9640      9638      9641      9644      9641      9644      9647      9648
      9641      9644      9647      9649      9641      9644      9647      9650
      9642      9641      9644      9645      9642      9641      9644      9646
      9642      9641      9644      9647      9643      9641      9644      9645
      9643      9641      9644      9646      9643      9641      9644      9647
      9644      9647      9650      9651      9644      9647      9650      9652
      9644      9647      9650      9653      9645      9644      9647      9648
      9645      9644      9647      9649      9645      9644      9647      9650
      9646      9644      9647      9648      9646      9644      9647      9649
      9646      9644      9647      9650      9647      9650      9653      9654
      9647      9650      9653      9655      9647      9650      9653      9656
      9648      9647      9650      9651      9648      9647      9650      9652
      9648      9647      9650      9653      9649      9647      9650      9651
      9649      9647      9650      9652      9649      9647      9650      9653
      9650      9653      9656      9657      9650      9653      9656      9658
      9650      9653      9656      9659      9651      9650      9653      9654
      9651      9650      9653      9655      9651      9650      9653      9656
      9652      9650      9653      9654      9652      9650      9653      9655
      9652      9650      9653      9656      9653      9656      9659      9660
      9653      9656      9659      9661      9653      9656      9659      9662
      9654      9653      9656      9657      9654      9653      9656      9658
      9654      9653      9656      9659      9655      9653      9656      9657
      9655      9653      9656      9658      9655      9653      9656      9659
      9656      9659      9662      9663      9656      9659      9662      9664
      9656      9659      9662      9665      9657      9656      9659      9660
      9657      9656      9659      9661      9657      9656      9659      9662
      9658      9656      9659      9660      9658      9656      9659      9661
      9658      9656      9659      9662      9659      9662      9665      9666
      9659      9662      9665      9667      9659      9662      9665      9668
      9660      9659      9662      9663      9660      9659      9662      9664
      9660      9659      9662      9665      9661      9659      9662      9663
      9661      9659      9662      9664      9661      9659      9662      9665
      9662      9665      9668      9669      9662      9665      9668      9670
      9662      9665      9668      9671      9663      9662      9665      9666
      9663      9662      9665      9667      9663      9662      9665      9668
      9664      9662      9665      9666      9664      9662      9665      9667
      9664      9662      9665      9668      9665      9668      9671      9672
      9665      9668      9671      9673      9665      9668      9671      9674
      9666      9665      9668      9669      9666      9665      9668      9670
      9666      9665      9668      9671      9667      9665      9668      9669
      9667      9665      9668      9670      9667      9665      9668      9671
      9668      9671      9674      9675      9668      9671      9674      9676
      9668      9671      9674      9677      9669      9668      9671      9672
      9669      9668      9671      9673      9669      9668      9671      9674
      9670      9668      9671      9672      9670      9668      9671      9673
      9670      9668      9671      9674      9672      9671      9674      9675
      9672      9671      9674      9676      9672      9671      9674      9677
      9673      9671      9674      9675      9673      9671      9674      9676
      9673      9671      9674      9677      9678      9679      9694      9695
      9678      9679      9694      9696      9678      9679      9694      9700
      9679      9678      9682      9683      9679      9678      9682      9684
      9679      9678      9682      9685      9679      9678      9686      9687
      9679      9678      9686      9688      9679      9678      9686      9689
      9679      9678      9690      9691      9679      9678      9690      9692
      9679      9678      9690      9693      9679      9694      9700      9697
      9680      9679      9678      9682      9680      9679      9678      9686
      9680      9679      9678      9690      9680      9679      9694      9695
      9680      9679      9694      9696      9680      9679      9694      9700
      9681      9679      9678      9682      9681      9679      9678      9686
      9681      9679      9678      9690      9681      9679      9694      9695
      9681      9679      9694      9696      9681      9679      9694      9700
      9682      9678      9679      9694      9682      9678      9686      9687
      9682      9678      9686      9688      9682      9678      9686      9689
      9682      9678      9690      9691      9682      9678      9690      9692
      9682      9678      9690      9693      9683      9682      9678      9686
      9683      9682      9678      9690      9684      9682      9678      9686
      9684      9682      9678      9690      9685      9682      9678      9686
      9685      9682      9678      9690      9686      9678      9679      9694
      9686      9678      9690      9691      9686      9678      9690      9692
      9686      9678      9690      9693      9687      9686      9678      9690
      9688      9686      9678      9690      9689      9686      9678      9690
      9690      9678      9679      9694      9694      9700      9697      9698
      9694      9700      9697      9699      9694      9700      9697      9701
      9695      9694      9700      9697      9696      9694      9700      9697
      9697      9701      9702      9703      9697      9701      9702      9704
      9697      9701      9702      9705      9698      9697      9701      9702
      9699      9697      9701      9702      9700      9697      9701      9702
      9701      9702      9705      9706      9701      9702      9705      9707
      9701      9702      9705      9713      9702      9705      9707      9708
      9702      9705      9713      9714      9702      9705      9713      9715
      9702      9705      9713      9716      9703      9702      9705      9706
      9703      9702      9705      9707      9703      9702      9705      9713
      9704      9702      9705      9706      9704      9702      9705      9707
      9704      9702      9705      9713      9705      9707      9708      9709
      9705      9707      9708      9710      9705      9713      9716      9717
      9706      9705      9707      9708      9706      9705      9713      9714
      9706      9705      9713      9715      9706      9705      9713      9716
      9707      9705      9713      9714      9707      9705      9713      9715
      9707      9705      9713      9716      9707      9708      9710      9711
      9707      9708      9710      9712      9707      9708      9710      9722
      9708      9707      9705      9713      9708      9710      9722      9723
      9708      9710      9722      9724      9708      9710      9722      9725
      9709      9708      9710      9711      9709      9708      9710      9712
      9709      9708      9710      9722      9710      9722      9725      9726
      9710      9722      9725      9727      9710      9722      9725      9728
      9711      9710      9722      9723      9711      9710      9722      9724
      9711      9710      9722      9725      9712      9710      9722      9723
      9712      9710      9722      9724      9712      9710      9722      9725
      9713      9716      9717      9718      9713      9716      9717      9719
      9714      9713      9716      9717      9715      9713      9716      9717
      9716      9717      9719      9720      9716      9717      9719      9721
      9716      9717      9719      9769      9717      9719      9769      9770
      9717      9719      9769      9771      9717      9719      9769      9772
      9718      9717      9719      9720      9718      9717      9719      9721
      9718      9717      9719      9769      9719      9769      9772      9773
      9719      9769      9772      9774      9719      9769      9772      9775
      9720      9719      9769      9770      9720      9719      9769      9771
      9720      9719      9769      9772      9721      9719      9769      9770
      9721      9719      9769      9771      9721      9719      9769      9772
      9722      9725      9728      9729      9722      9725      9728      9730
      9722      9725      9728      9731      9723      9722      9725      9726
      9723      9722      9725      9727      9723      9722      9725      9728
      9724      9722      9725      9726      9724      9722      9725      9727
      9724      9722      9725      9728      9725      9728      9731      9732
      9725      9728      9731      9733      9725      9728      9731      9734
      9726      9725      9728      9729      9726      9725      9728      9730
      9726      9725      9728      9731      9727      9725      9728      9729
      9727      9725      9728      9730      9727      9725      9728      9731
      9728      9731      9734      9735      9728      9731      9734      9736
      9728      9731      9734      9737      9729      9728      9731      9732
      9729      9728      9731      9733      9729      9728      9731      9734
      9730      9728      9731      9732      9730      9728      9731      9733
      9730      9728      9731      9734      9731      9734      9737      9738
      9731      9734      9737      9739      9731      9734      9737      9740
      9732      9731      9734      9735      9732      9731      9734      9736
      9732      9731      9734      9737      9733      9731      9734      9735
      9733      9731      9734      9736      9733      9731      9734      9737
      9734      9737      9740      9741      9734      9737      9740      9742
      9735      9734      9737      9738      9735      9734      9737      9739
      9735      9734      9737      9740      9736      9734      9737      9738
      9736      9734      9737      9739      9736      9734      9737      9740
      9737      9740      9742      9743      9737      9740      9742      9744
      9738      9737      9740      9741      9738      9737      9740      9742
      9739      9737      9740      9741      9739      9737      9740      9742
      9740      9742      9744      9745      9740      9742      9744      9746
      9740      9742      9744      9747      9741      9740      9742      9743
      9741      9740      9742      9744      9742      9744      9747      9748
      9742      9744      9747      9749      9742      9744      9747      9750
      9743      9742      9744      9745      9743      9742      9744      9746
      9743      9742      9744      9747      9744      9747      9750      9751
      9744      9747      9750      9752      9744      9747      9750      9753
      9745      9744      9747      9748      9745      9744      9747      9749
      9745      9744      9747      9750      9746      9744      9747      9748
      9746      9744      9747      9749      9746      9744      9747      9750
      9747      9750      9753      9754      9747      9750      9753      9755
      9747      9750      9753      9756      9748      9747      9750      9751
      9748      9747      9750      9752      9748      9747      9750      9753
      9749      9747      9750      9751      9749      9747      9750      9752
      9749      9747      9750      9753      9750      9753      9756      9757
      9750      9753      9756      9758      9750      9753      9756      9759
      9751      9750      9753      9754      9751      9750      9753      9755
      9751      9750      9753      9756      9752      9750      9753      9754
      9752      9750      9753      9755      9752      9750      9753      9756
      9753      9756      9759      9760      9753      9756      9759      9761
      9753      9756      9759      9762      9754      9753      9756      9757
      9754      9753      9756      9758      9754      9753      9756      9759
      9755      9753      9756      9757      9755      9753      9756      9758
      9755      9753      9756      9759      9756      9759      9762      9763
      9756      9759      9762      9764      9756      9759      9762      9765
      9757      9756      9759      9760      9757      9756      9759      9761
      9757      9756      9759      9762      9758      9756      9759      9760
      9758      9756      9759      9761      9758      9756      9759      9762
      9759      9762      9765      9766      9759      9762      9765      9767
      9759      9762      9765      9768      9760      9759      9762      9763
      9760      9759      9762      9764      9760      9759      9762      9765
      9761      9759      9762      9763      9761      9759      9762      9764
      9761      9759      9762      9765      9763      9762      9765      9766
      9763      9762      9765      9767      9763      9762      9765      9768
      9764      9762      9765      9766      9764      9762      9765      9767
      9764      9762      9765      9768      9769      9772      9775      9776
      9769      9772      9775      9777      9769      9772      9775      9778
      9770      9769      9772      9773      9770      9769      9772      9774
      9770      9769      9772      9775      9771      9769      9772      9773
      9771      9769      9772      9774      9771      9769      9772      9775
      9772      9775      9778      9779      9772      9775      9778      9780
      9772      9775      9778      9781      9773      9772      9775      9776
      9773      9772      9775      9777      9773      9772      9775      9778
      9774      9772      9775      9776      9774      9772      9775      9777
      9774      9772      9775      9778      9775      9778      9781      9782
      9775      9778      9781      9783      9775      9778      9781      9784
      9776      9775      9778      9779      9776      9775      9778      9780
      9776      9775      9778      9781      9777      9775      9778      9779
      9777      9775      9778      9780      9777      9775      9778      9781
      9778      9781      9784      9785      9778      9781      9784      9786
      9778      9781      9784      9787      9779      9778      9781      9782
      9779      9778      9781      9783      9779      9778      9781      9784
      9780      9778      9781      9782      9780      9778      9781      9783
      9780      9778      9781      9784      9781      9784      9787      9788
      9781      9784      9787      9789      9781      9784      9787      9790
      9782      9781      9784      9785      9782      9781      9784      9786
      9782      9781      9784      9787      9783      9781      9784      9785
      9783      9781      9784      9786      9783      9781      9784      9787
      9784      9787      9790      9791      9784      9787      9790      9792
      9784      9787      9790      9793      9785      9784      9787      9788
      9785      9784      9787      9789      9785      9784      9787      9790
      9786      9784      9787      9788      9786      9784      9787      9789
      9786      9784      9787      9790      9787      9790      9793      9794
      9787      9790      9793      9795      9787      9790      9793      9796
      9788      9787      9790      9791      9788      9787      9790      9792
      9788      9787      9790      9793      9789      9787      9790      9791
      9789      9787      9790      9792      9789      9787      9790      9793
      9790      9793      9796      9797      9790      9793      9796      9798
      9790      9793      9796      9799      9791      9790      9793      9794
      9791      9790      9793      9795      9791      9790      9793      9796
      9792      9790      9793      9794      9792      9790      9793      9795
      9792      9790      9793      9796      9793      9796      9799      9800
      9793      9796      9799      9801      9793      9796      9799      9802
      9794      9793      9796      9797      9794      9793      9796      9798
      9794      9793      9796      9799      9795      9793      9796      9797
      9795      9793      9796      9798      9795      9793      9796      9799
      9796      9799      9802      9803      9796      9799      9802      9804
      9796      9799      9802      9805      9797      9796      9799      9800
      9797      9796      9799      9801      9797      9796      9799      9802
      9798      9796      9799      9800      9798      9796      9799      9801
      9798      9796      9799      9802      9799      9802      9805      9806
      9799      9802      9805      9807      9799      9802      9805      9808
      9800      9799      9802      9803      9800      9799      9802      9804
      9800      9799      9802      9805      9801      9799      9802      9803
      9801      9799      9802      9804      9801      9799      9802      9805
      9802      9805      9808      9809      9802      9805      9808      9810
      9802      9805      9808      9811      9803      9802      9805      9806
      9803      9802      9805      9807      9803      9802      9805      9808
      9804      9802      9805      9806      9804      9802      9805      9807
      9804      9802      9805      9808      9806      9805      9808      9809
      9806      9805      9808      9810      9806      9805      9808      9811
      9807      9805      9808      9809      9807      9805      9808      9810
      9807      9805      9808      9811      9812      9816      9818      9819
      9812      9816      9818      9820      9812      9816      9821      9822
      9812      9816      9821      9823      9812      9816      9821      9827
      9813      9812      9816      9817      9813      9812      9816      9818
      9813      9812      9816      9821      9814      9812      9816      9817
      9814      9812      9816      9818      9814      9812      9816      9821
      9815      9812      9816      9817      9815      9812      9816      9818
      9815      9812      9816      9821      9816      9821      9827      9824
      9817      9816      9818      9819      9817      9816      9818      9820
      9817      9816      9821      9822      9817      9816      9821      9823
      9817      9816      9821      9827      9818      9816      9821      9822
      9818      9816      9821      9823      9818      9816      9821      9827
      9819      9818      9816      9821      9820      9818      9816      9821
      9821      9827      9824      9825      9821      9827      9824      9826
      9821      9827      9824      9828      9822      9821      9827      9824
      9823      9821      9827      9824      9824      9828      9829      9830
      9824      9828      9829      9831      9824      9828      9829      9832
      9825      9824      9828      9829      9826      9824      9828      9829
      9827      9824      9828      9829      9828      9829      9832      9833
      9828      9829      9832      9834      9828      9829      9832      9840
      9829      9832      9834      9835      9829      9832      9840      9841
      9829      9832      9840      9842      9829      9832      9840      9843
      9830      9829      9832      9833      9830      9829      9832      9834
      9830      9829      9832      9840      9831      9829      9832      9833
      9831      9829      9832      9834      9831      9829      9832      9840
      9832      9834      9835      9836      9832      9834      9835      9837
      9832      9840      9843      9844      9833      9832      9834      9835
      9833      9832      9840      9841      9833      9832      9840      9842
      9833      9832      9840      9843      9834      9832      9840      9841
      9834      9832      9840      9842      9834      9832      9840      9843
      9834      9835      9837      9838      9834      9835      9837      9839
      9834      9835      9837      9849      9835      9834      9832      9840
      9835      9837      9849      9850      9835      9837      9849      9851
      9835      9837      9849      9852      9836      9835      9837      9838
      9836      9835      9837      9839      9836      9835      9837      9849
      9837      9849      9852      9853      9837      9849      9852      9854
      9837      9849      9852      9855      9838      9837      9849      9850
      9838      9837      9849      9851      9838      9837      9849      9852
      9839      9837      9849      9850      9839      9837      9849      9851
      9839      9837      9849      9852      9840      9843      9844      9845
      9840      9843      9844      9846      9841      9840      9843      9844
      9842      9840      9843      9844      9843      9844      9846      9847
      9843      9844      9846      9848      9843      9844      9846      9896
      9844      9846      9896      9897      9844      9846      9896      9898
      9844      9846      9896      9899      9845      9844      9846      9847
      9845      9844      9846      9848      9845      9844      9846      9896
      9846      9896      9899      9900      9846      9896      9899      9901
      9846      9896      9899      9902      9847      9846      9896      9897
      9847      9846      9896      9898      9847      9846      9896      9899
      9848      9846      9896      9897      9848      9846      9896      9898
      9848      9846      9896      9899      9849      9852      9855      9856
      9849      9852      9855      9857      9849      9852      9855      9858
      9850      9849      9852      9853      9850      9849      9852      9854
      9850      9849      9852      9855      9851      9849      9852      9853
      9851      9849      9852      9854      9851      9849      9852      9855
      9852      9855      9858      9859      9852      9855      9858      9860
      9852      9855      9858      9861      9853      9852      9855      9856
      9853      9852      9855      9857      9853      9852      9855      9858
      9854      9852      9855      9856      9854      9852      9855      9857
      9854      9852      9855      9858      9855      9858      9861      9862
      9855      9858      9861      9863      9855      9858      9861      9864
      9856      9855      9858      9859      9856      9855      9858      9860
      9856      9855      9858      9861      9857      9855      9858      9859
      9857      9855      9858      9860      9857      9855      9858      9861
      9858      9861      9864      9865      9858      9861      9864      9866
      9858      9861      9864      9867      9859      9858      9861      9862
      9859      9858      9861      9863      9859      9858      9861      9864
      9860      9858      9861      9862      9860      9858      9861      9863
      9860      9858      9861      9864      9861      9864      9867      9868
      9861      9864      9867      9869      9862      9861      9864      9865
      9862      9861      9864      9866      9862      9861      9864      9867
      9863      9861      9864      9865      9863      9861      9864      9866
      9863      9861      9864      9867      9864      9867      9869      9870
      9864      9867      9869      9871      9865      9864      9867      9868
      9865      9864      9867      9869      9866      9864      9867      9868
      9866      9864      9867      9869      9867      9869      9871      9872
      9867      9869      9871      9873      9867      9869      9871      9874
      9868      9867      9869      9870      9868      9867      9869      9871
      9869      9871      9874      9875      9869      9871      9874      9876
      9869      9871      9874      9877      9870      9869      9871      9872
      9870      9869      9871      9873      9870      9869      9871      9874
      9871      9874      9877      9878      9871      9874      9877      9879
      9871      9874      9877      9880      9872      9871      9874      9875
      9872      9871      9874      9876      9872      9871      9874      9877
      9873      9871      9874      9875      9873      9871      9874      9876
      9873      9871      9874      9877      9874      9877      9880      9881
      9874      9877      9880      9882      9874      9877      9880      9883
      9875      9874      9877      9878      9875      9874      9877      9879
      9875      9874      9877      9880      9876      9874      9877      9878
      9876      9874      9877      9879      9876      9874      9877      9880
      9877      9880      9883      9884      9877      9880      9883      9885
      9877      9880      9883      9886      9878      9877      9880      9881
      9878      9877      9880      9882      9878      9877      9880      9883
      9879      9877      9880      9881      9879      9877      9880      9882
      9879      9877      9880      9883      9880      9883      9886      9887
      9880      9883      9886      9888      9880      9883      9886      9889
      9881      9880      9883      9884      9881      9880      9883      9885
      9881      9880      9883      9886      9882      9880      9883      9884
      9882      9880      9883      9885      9882      9880      9883      9886
      9883      9886      9889      9890      9883      9886      9889      9891
      9883      9886      9889      9892      9884      9883      9886      9887
      9884      9883      9886      9888      9884      9883      9886      9889
      9885      9883      9886      9887      9885      9883      9886      9888
      9885      9883      9886      9889      9886      9889      9892      9893
      9886      9889      9892      9894      9886      9889      9892      9895
      9887      9886      9889      9890      9887      9886      9889      9891
      9887      9886      9889      9892      9888      9886      9889      9890
      9888      9886      9889      9891      9888      9886      9889      9892
      9890      9889      9892      9893      9890      9889      9892      9894
      9890      9889      9892      9895      9891      9889      9892      9893
      9891      9889      9892      9894      9891      9889      9892      9895
      9896      9899      9902      9903      9896      9899      9902      9904
      9896      9899      9902      9905      9897      9896      9899      9900
      9897      9896      9899      9901      9897      9896      9899      9902
      9898      9896      9899      9900      9898      9896      9899      9901
      9898      9896      9899      9902      9899      9902      9905      9906
      9899      9902      9905      9907      9899      9902      9905      9908
      9900      9899      9902      9903      9900      9899      9902      9904
      9900      9899      9902      9905      9901      9899      9902      9903
      9901      9899      9902      9904      9901      9899      9902      9905
      9902      9905      9908      9909      9902      9905      9908      9910
      9902      9905      9908      9911      9903      9902      9905      9906
      9903      9902      9905      9907      9903      9902      9905      9908
      9904      9902      9905      9906      9904      9902      9905      9907
      9904      9902      9905      9908      9905      9908      9911      9912
      9905      9908      9911      9913      9905      9908      9911      9914
      9906      9905      9908      9909      9906      9905      9908      9910
      9906      9905      9908      9911      9907      9905      9908      9909
      9907      9905      9908      9910      9907      9905      9908      9911
      9908      9911      9914      9915      9908      9911      9914      9916
      9908      9911      9914      9917      9909      9908      9911      9912
      9909      9908      9911      9913      9909      9908      9911      9914
      9910      9908      9911      9912      9910      9908      9911      9913
      9910      9908      9911      9914      9911      9914      9917      9918
      9911      9914      9917      9919      9911      9914      9917      9920
      9912      9911      9914      9915      9912      9911      9914      9916
      9912      9911      9914      9917      9913      9911      9914      9915
      9913      9911      9914      9916      9913      9911      9914      9917
      9914      9917      9920      9921      9914      9917      9920      9922
      9914      9917      9920      9923      9915      9914      9917      9918
      9915      9914      9917      9919      9915      9914      9917      9920
      9916      9914      9917      9918      9916      9914      9917      9919
      9916      9914      9917      9920      9917      9920      9923      9924
      9917      9920      9923      9925      9917      9920      9923      9926
      9918      9917      9920      9921      9918      9917      9920      9922
      9918      9917      9920      9923      9919      9917      9920      9921
      9919      9917      9920      9922      9919      9917      9920      9923
      9920      9923      9926      9927      9920      9923      9926      9928
      9920      9923      9926      9929      9921      9920      9923      9924
      9921      9920      9923      9925      9921      9920      9923      9926
      9922      9920      9923      9924      9922      9920      9923      9925
      9922      9920      9923      9926      9923      9926      9929      9930
      9923      9926      9929      9931      9923      9926      9929      9932
      9924      9923      9926      9927      9924      9923      9926      9928
      9924      9923      9926      9929      9925      9923      9926      9927
      9925      9923      9926      9928      9925      9923      9926      9929
      9926      9929      9932      9933      9926      9929      9932      9934
      9926      9929      9932      9935      9927      9926      9929      9930
      9927      9926      9929      9931      9927      9926      9929      9932
      9928      9926      9929      9930      9928      9926      9929      9931
      9928      9926      9929      9932      9929      9932      9935      9936
      9929      9932      9935      9937      9929      9932      9935      9938
      9930      9929      9932      9933      9930      9929      9932      9934
      9930      9929      9932      9935      9931      9929      9932      9933
      9931      9929      9932      9934      9931      9929      9932      9935
      9933      9932      9935      9936      9933      9932      9935      9937
      9933      9932      9935      9938      9934      9932      9935      9936
      9934      9932      9935      9937      9934      9932      9935      9938
      9939      9940      9955      9956      9939      9940      9955      9957
      9939      9940      9955      9961      9940      9939      9943      9944
      9940      9939      9943      9945      9940      9939      9943      9946
      9940      9939      9947      9948      9940      9939      9947      9949
      9940      9939      9947      9950      9940      9939      9951      9952
      9940      9939      9951      9953      9940      9939      9951      9954
      9940      9955      9961      9958      9941      9940      9939      9943
      9941      9940      9939      9947      9941      9940      9939      9951
      9941      9940      9955      9956      9941      9940      9955      9957
      9941      9940      9955      9961      9942      9940      9939      9943
      9942      9940      9939      9947      9942      9940      9939      9951
      9942      9940      9955      9956      9942      9940      9955      9957
      9942      9940      9955      9961      9943      9939      9940      9955
      9943      9939      9947      9948      9943      9939      9947      9949
      9943      9939      9947      9950      9943      9939      9951      9952
      9943      9939      9951      9953      9943      9939      9951      9954
      9944      9943      9939      9947      9944      9943      9939      9951
      9945      9943      9939      9947      9945      9943      9939      9951
      9946      9943      9939      9947      9946      9943      9939      9951
      9947      9939      9940      9955      9947      9939      9951      9952
      9947      9939      9951      9953      9947      9939      9951      9954
      9948      9947      9939      9951      9949      9947      9939      9951
      9950      9947      9939      9951      9951      9939      9940      9955
      9955      9961      9958      9959      9955      9961      9958      9960
      9955      9961      9958      9962      9956      9955      9961      9958
      9957      9955      9961      9958      9958      9962      9963      9964
      9958      9962      9963      9965      9958      9962      9963      9966
      9959      9958      9962      9963      9960      9958      9962      9963
      9961      9958      9962      9963      9962      9963      9966      9967
      9962      9963      9966      9968      9962      9963      9966      9974
      9963      9966      9968      9969      9963      9966      9974      9975
      9963      9966      9974      9976      9963      9966      9974      9977
      9964      9963      9966      9967      9964      9963      9966      9968
      9964      9963      9966      9974      9965      9963      9966      9967
      9965      9963      9966      9968      9965      9963      9966      9974
      9966      9968      9969      9970      9966      9968      9969      9971
      9966      9974      9977      9978      9967      9966      9968      9969
      9967      9966      9974      9975      9967      9966      9974      9976
      9967      9966      9974      9977      9968      9966      9974      9975
      9968      9966      9974      9976      9968      9966      9974      9977
      9968      9969      9971      9972      9968      9969      9971      9973
      9968      9969      9971      9983      9969      9968      9966      9974
      9969      9971      9983      9984      9969      9971      9983      9985
      9969      9971      9983      9986      9970      9969      9971      9972
      9970      9969      9971      9973      9970      9969      9971      9983
      9971      9983      9986      9987      9971      9983      9986      9988
      9971      9983      9986      9989      9972      9971      9983      9984
      9972      9971      9983      9985      9972      9971      9983      9986
      9973      9971      9983      9984      9973      9971      9983      9985
      9973      9971      9983      9986      9974      9977      9978      9979
      9974      9977      9978      9980      9975      9974      9977      9978
      9976      9974      9977      9978      9977      9978      9980      9981
      9977      9978      9980      9982      9977      9978      9980     10030
      9978      9980     10030     10031      9978      9980     10030     10032
      9978      9980     10030     10033      9979      9978      9980      9981
      9979      9978      9980      9982      9979      9978      9980     10030
      9980     10030     10033     10034      9980     10030     10033     10035
      9980     10030     10033     10036      9981      9980     10030     10031
      9981      9980     10030     10032      9981      9980     10030     10033
      9982      9980     10030     10031      9982      9980     10030     10032
      9982      9980     10030     10033      9983      9986      9989      9990
      9983      9986      9989      9991      9983      9986      9989      9992
      9984      9983      9986      9987      9984      9983      9986      9988
      9984      9983      9986      9989      9985      9983      9986      9987
      9985      9983      9986      9988      9985      9983      9986      9989
      9986      9989      9992      9993      9986      9989      9992      9994
      9986      9989      9992      9995      9987      9986      9989      9990
      9987      9986      9989      9991      9987      9986      9989      9992
      9988      9986      9989      9990      9988      9986      9989      9991
      9988      9986      9989      9992      9989      9992      9995      9996
      9989      9992      9995      9997      9989      9992      9995      9998
      9990      9989      9992      9993      9990      9989      9992      9994
      9990      9989      9992      9995      9991      9989      9992      9993
      9991      9989      9992      9994      9991      9989      9992      9995
      9992      9995      9998      9999      9992      9995      9998     10000
      9992      9995      9998     10001      9993      9992      9995      9996
      9993      9992      9995      9997      9993      9992      9995      9998
      9994      9992      9995      9996      9994      9992      9995      9997
      9994      9992      9995      9998      9995      9998     10001     10002
      9995      9998     10001     10003      9996      9995      9998      9999
      9996      9995      9998     10000      9996      9995      9998     10001
      9997      9995      9998      9999      9997      9995      9998     10000
      9997      9995      9998     10001      9998     10001     10003     10004
      9998     10001     10003     10005      9999      9998     10001     10002
      9999      9998     10001     10003     10000      9998     10001     10002
     10000      9998     10001     10003     10001     10003     10005     10006
     10001     10003     10005     10007     10001     10003     10005     10008
     10002     10001     10003     10004     10002     10001     10003     10005
     10003     10005     10008     10009     10003     10005     10008     10010
     10003     10005     10008     10011     10004     10003     10005     10006
     10004     10003     10005     10007     10004     10003     10005     10008
     10005     10008     10011     10012     10005     10008     10011     10013
     10005     10008     10011     10014     10006     10005     10008     10009
     10006     10005     10008     10010     10006     10005     10008     10011
     10007     10005     10008     10009     10007     10005     10008     10010
     10007     10005     10008     10011     10008     10011     10014     10015
     10008     10011     10014     10016     10008     10011     10014     10017
     10009     10008     10011     10012     10009     10008     10011     10013
     10009     10008     10011     10014     10010     10008     10011     10012
     10010     10008     10011     10013     10010     10008     10011     10014
     10011     10014     10017     10018     10011     10014     10017     10019
     10011     10014     10017     10020     10012     10011     10014     10015
     10012     10011     10014     10016     10012     10011     10014     10017
     10013     10011     10014     10015     10013     10011     10014     10016
     10013     10011     10014     10017     10014     10017     10020     10021
     10014     10017     10020     10022     10014     10017     10020     10023
     10015     10014     10017     10018     10015     10014     10017     10019
     10015     10014     10017     10020     10016     10014     10017     10018
     10016     10014     10017     10019     10016     10014     10017     10020
     10017     10020     10023     10024     10017     10020     10023     10025
     10017     10020     10023     10026     10018     10017     10020     10021
     10018     10017     10020     10022     10018     10017     10020     10023
     10019     10017     10020     10021     10019     10017     10020     10022
     10019     10017     10020     10023     10020     10023     10026     10027
     10020     10023     10026     10028     10020     10023     10026     10029
     10021     10020     10023     10024     10021     10020     10023     10025
     10021     10020     10023     10026     10022     10020     10023     10024
     10022     10020     10023     10025     10022     10020     10023     10026
     10024     10023     10026     10027     10024     10023     10026     10028
     10024     10023     10026     10029     10025     10023     10026     10027
     10025     10023     10026     10028     10025     10023     10026     10029
     10030     10033     10036     10037     10030     10033     10036     10038
     10030     10033     10036     10039     10031     10030     10033     10034
     10031     10030     10033     10035     10031     10030     10033     10036
     10032     10030     10033     10034     10032     10030     10033     10035
     10032     10030     10033     10036     10033     10036     10039     10040
     10033     10036     10039     10041     10033     10036     10039     10042
     10034     10033     10036     10037     10034     10033     10036     10038
     10034     10033     10036     10039     10035     10033     10036     10037
     10035     10033     10036     10038     10035     10033     10036     10039
     10036     10039     10042     10043     10036     10039     10042     10044
     10036     10039     10042     10045     10037     10036     10039     10040
     10037     10036     10039     10041     10037     10036     10039     10042
     10038     10036     10039     10040     10038     10036     10039     10041
     10038     10036     10039     10042     10039     10042     10045     10046
     10039     10042     10045     10047     10039     10042     10045     10048
     10040     10039     10042     10043     10040     10039     10042     10044
     10040     10039     10042     10045     10041     10039     10042     10043
     10041     10039     10042     10044     10041     10039     10042     10045
     10042     10045     10048     10049     10042     10045     10048     10050
     10042     10045     10048     10051     10043     10042     10045     10046
     10043     10042     10045     10047     10043     10042     10045     10048
     10044     10042     10045     10046     10044     10042     10045     10047
     10044     10042     10045     10048     10045     10048     10051     10052
     10045     10048     10051     10053     10045     10048     10051     10054
     10046     10045     10048     10049     10046     10045     10048     10050
     10046     10045     10048     10051     10047     10045     10048     10049
     10047     10045     10048     10050     10047     10045     10048     10051
     10048     10051     10054     10055     10048     10051     10054     10056
     10048     10051     10054     10057     10049     10048     10051     10052
     10049     10048     10051     10053     10049     10048     10051     10054
     10050     10048     10051     10052     10050     10048     10051     10053
     10050     10048     10051     10054     10051     10054     10057     10058
     10051     10054     10057     10059     10051     10054     10057     10060
     10052     10051     10054     10055     10052     10051     10054     10056
     10052     10051     10054     10057     10053     10051     10054     10055
     10053     10051     10054     10056     10053     10051     10054     10057
     10054     10057     10060     10061     10054     10057     10060     10062
     10054     10057     10060     10063     10055     10054     10057     10058
     10055     10054     10057     10059     10055     10054     10057     10060
     10056     10054     10057     10058     10056     10054     10057     10059
     10056     10054     10057     10060     10057     10060     10063     10064
     10057     10060     10063     10065     10057     10060     10063     10066
     10058     10057     10060     10061     10058     10057     10060     10062
     10058     10057     10060     10063     10059     10057     10060     10061
     10059     10057     10060     10062     10059     10057     10060     10063
     10060     10063     10066     10067     10060     10063     10066     10068
     10060     10063     10066     10069     10061     10060     10063     10064
     10061     10060     10063     10065     10061     10060     10063     10066
     10062     10060     10063     10064     10062     10060     10063     10065
     10062     10060     10063     10066     10063     10066     10069     10070
     10063     10066     10069     10071     10063     10066     10069     10072
     10064     10063     10066     10067     10064     10063     10066     10068
     10064     10063     10066     10069     10065     10063     10066     10067
     10065     10063     10066     10068     10065     10063     10066     10069
     10067     10066     10069     10070     10067     10066     10069     10071
     10067     10066     10069     10072     10068     10066     10069     10070
     10068     10066     10069     10071     10068     10066     10069     10072
     10073     10074     10089     10090     10073     10074     10089     10091
     10073     10074     10089     10095     10074     10073     10077     10078
     10074     10073     10077     10079     10074     10073     10077     10080
     10074     10073     10081     10082     10074     10073     10081     10083
     10074     10073     10081     10084     10074     10073     10085     10086
     10074     10073     10085     10087     10074     10073     10085     10088
     10074     10089     10095     10092     10075     10074     10073     10077
     10075     10074     10073     10081     10075     10074     10073     10085
     10075     10074     10089     10090     10075     10074     10089     10091
     10075     10074     10089     10095     10076     10074     10073     10077
     10076     10074     10073     10081     10076     10074     10073     10085
     10076     10074     10089     10090     10076     10074     10089     10091
     10076     10074     10089     10095     10077     10073     10074     10089
     10077     10073     10081     10082     10077     10073     10081     10083
     10077     10073     10081     10084     10077     10073     10085     10086
     10077     10073     10085     10087     10077     10073     10085     10088
     10078     10077     10073     10081     10078     10077     10073     10085
     10079     10077     10073     10081     10079     10077     10073     10085
     10080     10077     10073     10081     10080     10077     10073     10085
     10081     10073     10074     10089     10081     10073     10085     10086
     10081     10073     10085     10087     10081     10073     10085     10088
     10082     10081     10073     10085     10083     10081     10073     10085
     10084     10081     10073     10085     10085     10073     10074     10089
     10089     10095     10092     10093     10089     10095     10092     10094
     10089     10095     10092     10096     10090     10089     10095     10092
     10091     10089     10095     10092     10092     10096     10097     10098
     10092     10096     10097     10099     10092     10096     10097     10100
     10093     10092     10096     10097     10094     10092     10096     10097
     10095     10092     10096     10097     10096     10097     10100     10101
     10096     10097     10100     10102     10096     10097     10100     10108
     10097     10100     10102     10103     10097     10100     10108     10109
     10097     10100     10108     10110     10097     10100     10108     10111
     10098     10097     10100     10101     10098     10097     10100     10102
     10098     10097     10100     10108     10099     10097     10100     10101
     10099     10097     10100     10102     10099     10097     10100     10108
     10100     10102     10103     10104     10100     10102     10103     10105
     10100     10108     10111     10112     10101     10100     10102     10103
     10101     10100     10108     10109     10101     10100     10108     10110
     10101     10100     10108     10111     10102     10100     10108     10109
     10102     10100     10108     10110     10102     10100     10108     10111
     10102     10103     10105     10106     10102     10103     10105     10107
     10102     10103     10105     10117     10103     10102     10100     10108
     10103     10105     10117     10118     10103     10105     10117     10119
     10103     10105     10117     10120     10104     10103     10105     10106
     10104     10103     10105     10107     10104     10103     10105     10117
     10105     10117     10120     10121     10105     10117     10120     10122
     10105     10117     10120     10123     10106     10105     10117     10118
     10106     10105     10117     10119     10106     10105     10117     10120
     10107     10105     10117     10118     10107     10105     10117     10119
     10107     10105     10117     10120     10108     10111     10112     10113
     10108     10111     10112     10114     10109     10108     10111     10112
     10110     10108     10111     10112     10111     10112     10114     10115
     10111     10112     10114     10116     10111     10112     10114     10164
     10112     10114     10164     10165     10112     10114     10164     10166
     10112     10114     10164     10167     10113     10112     10114     10115
     10113     10112     10114     10116     10113     10112     10114     10164
     10114     10164     10167     10168     10114     10164     10167     10169
     10114     10164     10167     10170     10115     10114     10164     10165
     10115     10114     10164     10166     10115     10114     10164     10167
     10116     10114     10164     10165     10116     10114     10164     10166
     10116     10114     10164     10167     10117     10120     10123     10124
     10117     10120     10123     10125     10117     10120     10123     10126
     10118     10117     10120     10121     10118     10117     10120     10122
     10118     10117     10120     10123     10119     10117     10120     10121
     10119     10117     10120     10122     10119     10117     10120     10123
     10120     10123     10126     10127     10120     10123     10126     10128
     10120     10123     10126     10129     10121     10120     10123     10124
     10121     10120     10123     10125     10121     10120     10123     10126
     10122     10120     10123     10124     10122     10120     10123     10125
     10122     10120     10123     10126     10123     10126     10129     10130
     10123     10126     10129     10131     10123     10126     10129     10132
     10124     10123     10126     10127     10124     10123     10126     10128
     10124     10123     10126     10129     10125     10123     10126     10127
     10125     10123     10126     10128     10125     10123     10126     10129
     10126     10129     10132     10133     10126     10129     10132     10134
     10126     10129     10132     10135     10127     10126     10129     10130
     10127     10126     10129     10131     10127     10126     10129     10132
     10128     10126     10129     10130     10128     10126     10129     10131
     10128     10126     10129     10132     10129     10132     10135     10136
     10129     10132     10135     10137     10130     10129     10132     10133
     10130     10129     10132     10134     10130     10129     10132     10135
     10131     10129     10132     10133     10131     10129     10132     10134
     10131     10129     10132     10135     10132     10135     10137     10138
     10132     10135     10137     10139     10133     10132     10135     10136
     10133     10132     10135     10137     10134     10132     10135     10136
     10134     10132     10135     10137     10135     10137     10139     10140
     10135     10137     10139     10141     10135     10137     10139     10142
     10136     10135     10137     10138     10136     10135     10137     10139
     10137     10139     10142     10143     10137     10139     10142     10144
     10137     10139     10142     10145     10138     10137     10139     10140
     10138     10137     10139     10141     10138     10137     10139     10142
     10139     10142     10145     10146     10139     10142     10145     10147
     10139     10142     10145     10148     10140     10139     10142     10143
     10140     10139     10142     10144     10140     10139     10142     10145
     10141     10139     10142     10143     10141     10139     10142     10144
     10141     10139     10142     10145     10142     10145     10148     10149
     10142     10145     10148     10150     10142     10145     10148     10151
     10143     10142     10145     10146     10143     10142     10145     10147
     10143     10142     10145     10148     10144     10142     10145     10146
     10144     10142     10145     10147     10144     10142     10145     10148
     10145     10148     10151     10152     10145     10148     10151     10153
     10145     10148     10151     10154     10146     10145     10148     10149
     10146     10145     10148     10150     10146     10145     10148     10151
     10147     10145     10148     10149     10147     10145     10148     10150
     10147     10145     10148     10151     10148     10151     10154     10155
     10148     10151     10154     10156     10148     10151     10154     10157
     10149     10148     10151     10152     10149     10148     10151     10153
     10149     10148     10151     10154     10150     10148     10151     10152
     10150     10148     10151     10153     10150     10148     10151     10154
     10151     10154     10157     10158     10151     10154     10157     10159
     10151     10154     10157     10160     10152     10151     10154     10155
     10152     10151     10154     10156     10152     10151     10154     10157
     10153     10151     10154     10155     10153     10151     10154     10156
     10153     10151     10154     10157     10154     10157     10160     10161
     10154     10157     10160     10162     10154     10157     10160     10163
     10155     10154     10157     10158     10155     10154     10157     10159
     10155     10154     10157     10160     10156     10154     10157     10158
     10156     10154     10157     10159     10156     10154     10157     10160
     10158     10157     10160     10161     10158     10157     10160     10162
     10158     10157     10160     10163     10159     10157     10160     10161
     10159     10157     10160     10162     10159     10157     10160     10163
     10164     10167     10170     10171     10164     10167     10170     10172
     10164     10167     10170     10173     10165     10164     10167     10168
     10165     10164     10167     10169     10165     10164     10167     10170
     10166     10164     10167     10168     10166     10164     10167     10169
     10166     10164     10167     10170     10167     10170     10173     10174
     10167     10170     10173     10175     10167     10170     10173     10176
     10168     10167     10170     10171     10168     10167     10170     10172
     10168     10167     10170     10173     10169     10167     10170     10171
     10169     10167     10170     10172     10169     10167     10170     10173
     10170     10173     10176     10177     10170     10173     10176     10178
     10170     10173     10176     10179     10171     10170     10173     10174
     10171     10170     10173     10175     10171     10170     10173     10176
     10172     10170     10173     10174     10172     10170     10173     10175
     10172     10170     10173     10176     10173     10176     10179     10180
     10173     10176     10179     10181     10173     10176     10179     10182
     10174     10173     10176     10177     10174     10173     10176     10178
     10174     10173     10176     10179     10175     10173     10176     10177
     10175     10173     10176     10178     10175     10173     10176     10179
     10176     10179     10182     10183     10176     10179     10182     10184
     10176     10179     10182     10185     10177     10176     10179     10180
     10177     10176     10179     10181     10177     10176     10179     10182
     10178     10176     10179     10180     10178     10176     10179     10181
     10178     10176     10179     10182     10179     10182     10185     10186
     10179     10182     10185     10187     10179     10182     10185     10188
     10180     10179     10182     10183     10180     10179     10182     10184
     10180     10179     10182     10185     10181     10179     10182     10183
     10181     10179     10182     10184     10181     10179     10182     10185
     10182     10185     10188     10189     10182     10185     10188     10190
     10182     10185     10188     10191     10183     10182     10185     10186
     10183     10182     10185     10187     10183     10182     10185     10188
     10184     10182     10185     10186     10184     10182     10185     10187
     10184     10182     10185     10188     10185     10188     10191     10192
     10185     10188     10191     10193     10185     10188     10191     10194
     10186     10185     10188     10189     10186     10185     10188     10190
     10186     10185     10188     10191     10187     10185     10188     10189
     10187     10185     10188     10190     10187     10185     10188     10191
     10188     10191     10194     10195     10188     10191     10194     10196
     10188     10191     10194     10197     10189     10188     10191     10192
     10189     10188     10191     10193     10189     10188     10191     10194
     10190     10188     10191     10192     10190     10188     10191     10193
     10190     10188     10191     10194     10191     10194     10197     10198
     10191     10194     10197     10199     10191     10194     10197     10200
     10192     10191     10194     10195     10192     10191     10194     10196
     10192     10191     10194     10197     10193     10191     10194     10195
     10193     10191     10194     10196     10193     10191     10194     10197
     10194     10197     10200     10201     10194     10197     10200     10202
     10194     10197     10200     10203     10195     10194     10197     10198
     10195     10194     10197     10199     10195     10194     10197     10200
     10196     10194     10197     10198     10196     10194     10197     10199
     10196     10194     10197     10200     10197     10200     10203     10204
     10197     10200     10203     10205     10197     10200     10203     10206
     10198     10197     10200     10201     10198     10197     10200     10202
     10198     10197     10200     10203     10199     10197     10200     10201
     10199     10197     10200     10202     10199     10197     10200     10203
     10201     10200     10203     10204     10201     10200     10203     10205
     10201     10200     10203     10206     10202     10200     10203     10204
     10202     10200     10203     10205     10202     10200     10203     10206
     10207     10208     10223     10224     10207     10208     10223     10225
     10207     10208     10223     10229     10208     10207     10211     10212
     10208     10207     10211     10213     10208     10207     10211     10214
     10208     10207     10215     10216     10208     10207     10215     10217
     10208     10207     10215     10218     10208     10207     10219     10220
     10208     10207     10219     10221     10208     10207     10219     10222
     10208     10223     10229     10226     10209     10208     10207     10211
     10209     10208     10207     10215     10209     10208     10207     10219
     10209     10208     10223     10224     10209     10208     10223     10225
     10209     10208     10223     10229     10210     10208     10207     10211
     10210     10208     10207     10215     10210     10208     10207     10219
     10210     10208     10223     10224     10210     10208     10223     10225
     10210     10208     10223     10229     10211     10207     10208     10223
     10211     10207     10215     10216     10211     10207     10215     10217
     10211     10207     10215     10218     10211     10207     10219     10220
     10211     10207     10219     10221     10211     10207     10219     10222
     10212     10211     10207     10215     10212     10211     10207     10219
     10213     10211     10207     10215     10213     10211     10207     10219
     10214     10211     10207     10215     10214     10211     10207     10219
     10215     10207     10208     10223     10215     10207     10219     10220
     10215     10207     10219     10221     10215     10207     10219     10222
     10216     10215     10207     10219     10217     10215     10207     10219
     10218     10215     10207     10219     10219     10207     10208     10223
     10223     10229     10226     10227     10223     10229     10226     10228
     10223     10229     10226     10230     10224     10223     10229     10226
     10225     10223     10229     10226     10226     10230     10231     10232
     10226     10230     10231     10233     10226     10230     10231     10234
     10227     10226     10230     10231     10228     10226     10230     10231
     10229     10226     10230     10231     10230     10231     10234     10235
     10230     10231     10234     10236     10230     10231     10234     10242
     10231     10234     10236     10237     10231     10234     10242     10243
     10231     10234     10242     10244     10231     10234     10242     10245
     10232     10231     10234     10235     10232     10231     10234     10236
     10232     10231     10234     10242     10233     10231     10234     10235
     10233     10231     10234     10236     10233     10231     10234     10242
     10234     10236     10237     10238     10234     10236     10237     10239
     10234     10242     10245     10246     10235     10234     10236     10237
     10235     10234     10242     10243     10235     10234     10242     10244
     10235     10234     10242     10245     10236     10234     10242     10243
     10236     10234     10242     10244     10236     10234     10242     10245
     10236     10237     10239     10240     10236     10237     10239     10241
     10236     10237     10239     10251     10237     10236     10234     10242
     10237     10239     10251     10252     10237     10239     10251     10253
     10237     10239     10251     10254     10238     10237     10239     10240
     10238     10237     10239     10241     10238     10237     10239     10251
     10239     10251     10254     10255     10239     10251     10254     10256
     10239     10251     10254     10257     10240     10239     10251     10252
     10240     10239     10251     10253     10240     10239     10251     10254
     10241     10239     10251     10252     10241     10239     10251     10253
     10241     10239     10251     10254     10242     10245     10246     10247
     10242     10245     10246     10248     10243     10242     10245     10246
     10244     10242     10245     10246     10245     10246     10248     10249
     10245     10246     10248     10250     10245     10246     10248     10298
     10246     10248     10298     10299     10246     10248     10298     10300
     10246     10248     10298     10301     10247     10246     10248     10249
     10247     10246     10248     10250     10247     10246     10248     10298
     10248     10298     10301     10302     10248     10298     10301     10303
     10248     10298     10301     10304     10249     10248     10298     10299
     10249     10248     10298     10300     10249     10248     10298     10301
     10250     10248     10298     10299     10250     10248     10298     10300
     10250     10248     10298     10301     10251     10254     10257     10258
     10251     10254     10257     10259     10251     10254     10257     10260
     10252     10251     10254     10255     10252     10251     10254     10256
     10252     10251     10254     10257     10253     10251     10254     10255
     10253     10251     10254     10256     10253     10251     10254     10257
     10254     10257     10260     10261     10254     10257     10260     10262
     10254     10257     10260     10263     10255     10254     10257     10258
     10255     10254     10257     10259     10255     10254     10257     10260
     10256     10254     10257     10258     10256     10254     10257     10259
     10256     10254     10257     10260     10257     10260     10263     10264
     10257     10260     10263     10265     10257     10260     10263     10266
     10258     10257     10260     10261     10258     10257     10260     10262
     10258     10257     10260     10263     10259     10257     10260     10261
     10259     10257     10260     10262     10259     10257     10260     10263
     10260     10263     10266     10267     10260     10263     10266     10268
     10260     10263     10266     10269     10261     10260     10263     10264
     10261     10260     10263     10265     10261     10260     10263     10266
     10262     10260     10263     10264     10262     10260     10263     10265
     10262     10260     10263     10266     10263     10266     10269     10270
     10263     10266     10269     10271     10264     10263     10266     10267
     10264     10263     10266     10268     10264     10263     10266     10269
     10265     10263     10266     10267     10265     10263     10266     10268
     10265     10263     10266     10269     10266     10269     10271     10272
     10266     10269     10271     10273     10267     10266     10269     10270
     10267     10266     10269     10271     10268     10266     10269     10270
     10268     10266     10269     10271     10269     10271     10273     10274
     10269     10271     10273     10275     10269     10271     10273     10276
     10270     10269     10271     10272     10270     10269     10271     10273
     10271     10273     10276     10277     10271     10273     10276     10278
     10271     10273     10276     10279     10272     10271     10273     10274
     10272     10271     10273     10275     10272     10271     10273     10276
     10273     10276     10279     10280     10273     10276     10279     10281
     10273     10276     10279     10282     10274     10273     10276     10277
     10274     10273     10276     10278     10274     10273     10276     10279
     10275     10273     10276     10277     10275     10273     10276     10278
     10275     10273     10276     10279     10276     10279     10282     10283
     10276     10279     10282     10284     10276     10279     10282     10285
     10277     10276     10279     10280     10277     10276     10279     10281
     10277     10276     10279     10282     10278     10276     10279     10280
     10278     10276     10279     10281     10278     10276     10279     10282
     10279     10282     10285     10286     10279     10282     10285     10287
     10279     10282     10285     10288     10280     10279     10282     10283
     10280     10279     10282     10284     10280     10279     10282     10285
     10281     10279     10282     10283     10281     10279     10282     10284
     10281     10279     10282     10285     10282     10285     10288     10289
     10282     10285     10288     10290     10282     10285     10288     10291
     10283     10282     10285     10286     10283     10282     10285     10287
     10283     10282     10285     10288     10284     10282     10285     10286
     10284     10282     10285     10287     10284     10282     10285     10288
     10285     10288     10291     10292     10285     10288     10291     10293
     10285     10288     10291     10294     10286     10285     10288     10289
     10286     10285     10288     10290     10286     10285     10288     10291
     10287     10285     10288     10289     10287     10285     10288     10290
     10287     10285     10288     10291     10288     10291     10294     10295
     10288     10291     10294     10296     10288     10291     10294     10297
     10289     10288     10291     10292     10289     10288     10291     10293
     10289     10288     10291     10294     10290     10288     10291     10292
     10290     10288     10291     10293     10290     10288     10291     10294
     10292     10291     10294     10295     10292     10291     10294     10296
     10292     10291     10294     10297     10293     10291     10294     10295
     10293     10291     10294     10296     10293     10291     10294     10297
     10298     10301     10304     10305     10298     10301     10304     10306
     10298     10301     10304     10307     10299     10298     10301     10302
     10299     10298     10301     10303     10299     10298     10301     10304
     10300     10298     10301     10302     10300     10298     10301     10303
     10300     10298     10301     10304     10301     10304     10307     10308
     10301     10304     10307     10309     10301     10304     10307     10310
     10302     10301     10304     10305     10302     10301     10304     10306
     10302     10301     10304     10307     10303     10301     10304     10305
     10303     10301     10304     10306     10303     10301     10304     10307
     10304     10307     10310     10311     10304     10307     10310     10312
     10304     10307     10310     10313     10305     10304     10307     10308
     10305     10304     10307     10309     10305     10304     10307     10310
     10306     10304     10307     10308     10306     10304     10307     10309
     10306     10304     10307     10310     10307     10310     10313     10314
     10307     10310     10313     10315     10307     10310     10313     10316
     10308     10307     10310     10311     10308     10307     10310     10312
     10308     10307     10310     10313     10309     10307     10310     10311
     10309     10307     10310     10312     10309     10307     10310     10313
     10310     10313     10316     10317     10310     10313     10316     10318
     10310     10313     10316     10319     10311     10310     10313     10314
     10311     10310     10313     10315     10311     10310     10313     10316
     10312     10310     10313     10314     10312     10310     10313     10315
     10312     10310     10313     10316     10313     10316     10319     10320
     10313     10316     10319     10321     10313     10316     10319     10322
     10314     10313     10316     10317     10314     10313     10316     10318
     10314     10313     10316     10319     10315     10313     10316     10317
     10315     10313     10316     10318     10315     10313     10316     10319
     10316     10319     10322     10323     10316     10319     10322     10324
     10316     10319     10322     10325     10317     10316     10319     10320
     10317     10316     10319     10321     10317     10316     10319     10322
     10318     10316     10319     10320     10318     10316     10319     10321
     10318     10316     10319     10322     10319     10322     10325     10326
     10319     10322     10325     10327     10319     10322     10325     10328
     10320     10319     10322     10323     10320     10319     10322     10324
     10320     10319     10322     10325     10321     10319     10322     10323
     10321     10319     10322     10324     10321     10319     10322     10325
     10322     10325     10328     10329     10322     10325     10328     10330
     10322     10325     10328     10331     10323     10322     10325     10326
     10323     10322     10325     10327     10323     10322     10325     10328
     10324     10322     10325     10326     10324     10322     10325     10327
     10324     10322     10325     10328     10325     10328     10331     10332
     10325     10328     10331     10333     10325     10328     10331     10334
     10326     10325     10328     10329     10326     10325     10328     10330
     10326     10325     10328     10331     10327     10325     10328     10329
     10327     10325     10328     10330     10327     10325     10328     10331
     10328     10331     10334     10335     10328     10331     10334     10336
     10328     10331     10334     10337     10329     10328     10331     10332
     10329     10328     10331     10333     10329     10328     10331     10334
     10330     10328     10331     10332     10330     10328     10331     10333
     10330     10328     10331     10334     10331     10334     10337     10338
     10331     10334     10337     10339     10331     10334     10337     10340
     10332     10331     10334     10335     10332     10331     10334     10336
     10332     10331     10334     10337     10333     10331     10334     10335
     10333     10331     10334     10336     10333     10331     10334     10337
     10335     10334     10337     10338     10335     10334     10337     10339
     10335     10334     10337     10340     10336     10334     10337     10338
     10336     10334     10337     10339     10336     10334     10337     10340
     10341     10342     10357     10358     10341     10342     10357     10359
     10341     10342     10357     10363     10342     10341     10345     10346
     10342     10341     10345     10347     10342     10341     10345     10348
     10342     10341     10349     10350     10342     10341     10349     10351
     10342     10341     10349     10352     10342     10341     10353     10354
     10342     10341     10353     10355     10342     10341     10353     10356
     10342     10357     10363     10360     10343     10342     10341     10345
     10343     10342     10341     10349     10343     10342     10341     10353
     10343     10342     10357     10358     10343     10342     10357     10359
     10343     10342     10357     10363     10344     10342     10341     10345
     10344     10342     10341     10349     10344     10342     10341     10353
     10344     10342     10357     10358     10344     10342     10357     10359
     10344     10342     10357     10363     10345     10341     10342     10357
     10345     10341     10349     10350     10345     10341     10349     10351
     10345     10341     10349     10352     10345     10341     10353     10354
     10345     10341     10353     10355     10345     10341     10353     10356
     10346     10345     10341     10349     10346     10345     10341     10353
     10347     10345     10341     10349     10347     10345     10341     10353
     10348     10345     10341     10349     10348     10345     10341     10353
     10349     10341     10342     10357     10349     10341     10353     10354
     10349     10341     10353     10355     10349     10341     10353     10356
     10350     10349     10341     10353     10351     10349     10341     10353
     10352     10349     10341     10353     10353     10341     10342     10357
     10357     10363     10360     10361     10357     10363     10360     10362
     10357     10363     10360     10364     10358     10357     10363     10360
     10359     10357     10363     10360     10360     10364     10365     10366
     10360     10364     10365     10367     10360     10364     10365     10368
     10361     10360     10364     10365     10362     10360     10364     10365
     10363     10360     10364     10365     10364     10365     10368     10369
     10364     10365     10368     10370     10364     10365     10368     10376
     10365     10368     10370     10371     10365     10368     10376     10377
     10365     10368     10376     10378     10365     10368     10376     10379
     10366     10365     10368     10369     10366     10365     10368     10370
     10366     10365     10368     10376     10367     10365     10368     10369
     10367     10365     10368     10370     10367     10365     10368     10376
     10368     10370     10371     10372     10368     10370     10371     10373
     10368     10376     10379     10380     10369     10368     10370     10371
     10369     10368     10376     10377     10369     10368     10376     10378
     10369     10368     10376     10379     10370     10368     10376     10377
     10370     10368     10376     10378     10370     10368     10376     10379
     10370     10371     10373     10374     10370     10371     10373     10375
     10370     10371     10373     10385     10371     10370     10368     10376
     10371     10373     10385     10386     10371     10373     10385     10387
     10371     10373     10385     10388     10372     10371     10373     10374
     10372     10371     10373     10375     10372     10371     10373     10385
     10373     10385     10388     10389     10373     10385     10388     10390
     10373     10385     10388     10391     10374     10373     10385     10386
     10374     10373     10385     10387     10374     10373     10385     10388
     10375     10373     10385     10386     10375     10373     10385     10387
     10375     10373     10385     10388     10376     10379     10380     10381
     10376     10379     10380     10382     10377     10376     10379     10380
     10378     10376     10379     10380     10379     10380     10382     10383
     10379     10380     10382     10384     10379     10380     10382     10432
     10380     10382     10432     10433     10380     10382     10432     10434
     10380     10382     10432     10435     10381     10380     10382     10383
     10381     10380     10382     10384     10381     10380     10382     10432
     10382     10432     10435     10436     10382     10432     10435     10437
     10382     10432     10435     10438     10383     10382     10432     10433
     10383     10382     10432     10434     10383     10382     10432     10435
     10384     10382     10432     10433     10384     10382     10432     10434
     10384     10382     10432     10435     10385     10388     10391     10392
     10385     10388     10391     10393     10385     10388     10391     10394
     10386     10385     10388     10389     10386     10385     10388     10390
     10386     10385     10388     10391     10387     10385     10388     10389
     10387     10385     10388     10390     10387     10385     10388     10391
     10388     10391     10394     10395     10388     10391     10394     10396
     10388     10391     10394     10397     10389     10388     10391     10392
     10389     10388     10391     10393     10389     10388     10391     10394
     10390     10388     10391     10392     10390     10388     10391     10393
     10390     10388     10391     10394     10391     10394     10397     10398
     10391     10394     10397     10399     10391     10394     10397     10400
     10392     10391     10394     10395     10392     10391     10394     10396
     10392     10391     10394     10397     10393     10391     10394     10395
     10393     10391     10394     10396     10393     10391     10394     10397
     10394     10397     10400     10401     10394     10397     10400     10402
     10394     10397     10400     10403     10395     10394     10397     10398
     10395     10394     10397     10399     10395     10394     10397     10400
     10396     10394     10397     10398     10396     10394     10397     10399
     10396     10394     10397     10400     10397     10400     10403     10404
     10397     10400     10403     10405     10398     10397     10400     10401
     10398     10397     10400     10402     10398     10397     10400     10403
     10399     10397     10400     10401     10399     10397     10400     10402
     10399     10397     10400     10403     10400     10403     10405     10406
     10400     10403     10405     10407     10401     10400     10403     10404
     10401     10400     10403     10405     10402     10400     10403     10404
     10402     10400     10403     10405     10403     10405     10407     10408
     10403     10405     10407     10409     10403     10405     10407     10410
     10404     10403     10405     10406     10404     10403     10405     10407
     10405     10407     10410     10411     10405     10407     10410     10412
     10405     10407     10410     10413     10406     10405     10407     10408
     10406     10405     10407     10409     10406     10405     10407     10410
     10407     10410     10413     10414     10407     10410     10413     10415
     10407     10410     10413     10416     10408     10407     10410     10411
     10408     10407     10410     10412     10408     10407     10410     10413
     10409     10407     10410     10411     10409     10407     10410     10412
     10409     10407     10410     10413     10410     10413     10416     10417
     10410     10413     10416     10418     10410     10413     10416     10419
     10411     10410     10413     10414     10411     10410     10413     10415
     10411     10410     10413     10416     10412     10410     10413     10414
     10412     10410     10413     10415     10412     10410     10413     10416
     10413     10416     10419     10420     10413     10416     10419     10421
     10413     10416     10419     10422     10414     10413     10416     10417
     10414     10413     10416     10418     10414     10413     10416     10419
     10415     10413     10416     10417     10415     10413     10416     10418
     10415     10413     10416     10419     10416     10419     10422     10423
     10416     10419     10422     10424     10416     10419     10422     10425
     10417     10416     10419     10420     10417     10416     10419     10421
     10417     10416     10419     10422     10418     10416     10419     10420
     10418     10416     10419     10421     10418     10416     10419     10422
     10419     10422     10425     10426     10419     10422     10425     10427
     10419     10422     10425     10428     10420     10419     10422     10423
     10420     10419     10422     10424     10420     10419     10422     10425
     10421     10419     10422     10423     10421     10419     10422     10424
     10421     10419     10422     10425     10422     10425     10428     10429
     10422     10425     10428     10430     10422     10425     10428     10431
     10423     10422     10425     10426     10423     10422     10425     10427
     10423     10422     10425     10428     10424     10422     10425     10426
     10424     10422     10425     10427     10424     10422     10425     10428
     10426     10425     10428     10429     10426     10425     10428     10430
     10426     10425     10428     10431     10427     10425     10428     10429
     10427     10425     10428     10430     10427     10425     10428     10431
     10432     10435     10438     10439     10432     10435     10438     10440
     10432     10435     10438     10441     10433     10432     10435     10436
     10433     10432     10435     10437     10433     10432     10435     10438
     10434     10432     10435     10436     10434     10432     10435     10437
     10434     10432     10435     10438     10435     10438     10441     10442
     10435     10438     10441     10443     10435     10438     10441     10444
     10436     10435     10438     10439     10436     10435     10438     10440
     10436     10435     10438     10441     10437     10435     10438     10439
     10437     10435     10438     10440     10437     10435     10438     10441
     10438     10441     10444     10445     10438     10441     10444     10446
     10438     10441     10444     10447     10439     10438     10441     10442
     10439     10438     10441     10443     10439     10438     10441     10444
     10440     10438     10441     10442     10440     10438     10441     10443
     10440     10438     10441     10444     10441     10444     10447     10448
     10441     10444     10447     10449     10441     10444     10447     10450
     10442     10441     10444     10445     10442     10441     10444     10446
     10442     10441     10444     10447     10443     10441     10444     10445
     10443     10441     10444     10446     10443     10441     10444     10447
     10444     10447     10450     10451     10444     10447     10450     10452
     10444     10447     10450     10453     10445     10444     10447     10448
     10445     10444     10447     10449     10445     10444     10447     10450
     10446     10444     10447     10448     10446     10444     10447     10449
     10446     10444     10447     10450     10447     10450     10453     10454
     10447     10450     10453     10455     10447     10450     10453     10456
     10448     10447     10450     10451     10448     10447     10450     10452
     10448     10447     10450     10453     10449     10447     10450     10451
     10449     10447     10450     10452     10449     10447     10450     10453
     10450     10453     10456     10457     10450     10453     10456     10458
     10450     10453     10456     10459     10451     10450     10453     10454
     10451     10450     10453     10455     10451     10450     10453     10456
     10452     10450     10453     10454     10452     10450     10453     10455
     10452     10450     10453     10456     10453     10456     10459     10460
     10453     10456     10459     10461     10453     10456     10459     10462
     10454     10453     10456     10457     10454     10453     10456     10458
     10454     10453     10456     10459     10455     10453     10456     10457
     10455     10453     10456     10458     10455     10453     10456     10459
     10456     10459     10462     10463     10456     10459     10462     10464
     10456     10459     10462     10465     10457     10456     10459     10460
     10457     10456     10459     10461     10457     10456     10459     10462
     10458     10456     10459     10460     10458     10456     10459     10461
     10458     10456     10459     10462     10459     10462     10465     10466
     10459     10462     10465     10467     10459     10462     10465     10468
     10460     10459     10462     10463     10460     10459     10462     10464
     10460     10459     10462     10465     10461     10459     10462     10463
     10461     10459     10462     10464     10461     10459     10462     10465
     10462     10465     10468     10469     10462     10465     10468     10470
     10462     10465     10468     10471     10463     10462     10465     10466
     10463     10462     10465     10467     10463     10462     10465     10468
     10464     10462     10465     10466     10464     10462     10465     10467
     10464     10462     10465     10468     10465     10468     10471     10472
     10465     10468     10471     10473     10465     10468     10471     10474
     10466     10465     10468     10469     10466     10465     10468     10470
     10466     10465     10468     10471     10467     10465     10468     10469
     10467     10465     10468     10470     10467     10465     10468     10471
     10469     10468     10471     10472     10469     10468     10471     10473
     10469     10468     10471     10474     10470     10468     10471     10472
     10470     10468     10471     10473     10470     10468     10471     10474
     10475     10479     10481     10482     10475     10479     10481     10483
     10475     10479     10484     10485     10475     10479     10484     10486
     10475     10479     10484     10490     10476     10475     10479     10480
     10476     10475     10479     10481     10476     10475     10479     10484
     10477     10475     10479     10480     10477     10475     10479     10481
     10477     10475     10479     10484     10478     10475     10479     10480
     10478     10475     10479     10481     10478     10475     10479     10484
     10479     10484     10490     10487     10480     10479     10481     10482
     10480     10479     10481     10483     10480     10479     10484     10485
     10480     10479     10484     10486     10480     10479     10484     10490
     10481     10479     10484     10485     10481     10479     10484     10486
     10481     10479     10484     10490     10482     10481     10479     10484
     10483     10481     10479     10484     10484     10490     10487     10488
     10484     10490     10487     10489     10484     10490     10487     10491
     10485     10484     10490     10487     10486     10484     10490     10487
     10487     10491     10492     10493     10487     10491     10492     10494
     10487     10491     10492     10495     10488     10487     10491     10492
     10489     10487     10491     10492     10490     10487     10491     10492
     10491     10492     10495     10496     10491     10492     10495     10497
     10491     10492     10495     10503     10492     10495     10497     10498
     10492     10495     10503     10504     10492     10495     10503     10505
     10492     10495     10503     10506     10493     10492     10495     10496
     10493     10492     10495     10497     10493     10492     10495     10503
     10494     10492     10495     10496     10494     10492     10495     10497
     10494     10492     10495     10503     10495     10497     10498     10499
     10495     10497     10498     10500     10495     10503     10506     10507
     10496     10495     10497     10498     10496     10495     10503     10504
     10496     10495     10503     10505     10496     10495     10503     10506
     10497     10495     10503     10504     10497     10495     10503     10505
     10497     10495     10503     10506     10497     10498     10500     10501
     10497     10498     10500     10502     10497     10498     10500     10512
     10498     10497     10495     10503     10498     10500     10512     10513
     10498     10500     10512     10514     10498     10500     10512     10515
     10499     10498     10500     10501     10499     10498     10500     10502
     10499     10498     10500     10512     10500     10512     10515     10516
     10500     10512     10515     10517     10500     10512     10515     10518
     10501     10500     10512     10513     10501     10500     10512     10514
     10501     10500     10512     10515     10502     10500     10512     10513
     10502     10500     10512     10514     10502     10500     10512     10515
     10503     10506     10507     10508     10503     10506     10507     10509
     10504     10503     10506     10507     10505     10503     10506     10507
     10506     10507     10509     10510     10506     10507     10509     10511
     10506     10507     10509     10559     10507     10509     10559     10560
     10507     10509     10559     10561     10507     10509     10559     10562
     10508     10507     10509     10510     10508     10507     10509     10511
     10508     10507     10509     10559     10509     10559     10562     10563
     10509     10559     10562     10564     10509     10559     10562     10565
     10510     10509     10559     10560     10510     10509     10559     10561
     10510     10509     10559     10562     10511     10509     10559     10560
     10511     10509     10559     10561     10511     10509     10559     10562
     10512     10515     10518     10519     10512     10515     10518     10520
     10512     10515     10518     10521     10513     10512     10515     10516
     10513     10512     10515     10517     10513     10512     10515     10518
     10514     10512     10515     10516     10514     10512     10515     10517
     10514     10512     10515     10518     10515     10518     10521     10522
     10515     10518     10521     10523     10515     10518     10521     10524
     10516     10515     10518     10519     10516     10515     10518     10520
     10516     10515     10518     10521     10517     10515     10518     10519
     10517     10515     10518     10520     10517     10515     10518     10521
     10518     10521     10524     10525     10518     10521     10524     10526
     10518     10521     10524     10527     10519     10518     10521     10522
     10519     10518     10521     10523     10519     10518     10521     10524
     10520     10518     10521     10522     10520     10518     10521     10523
     10520     10518     10521     10524     10521     10524     10527     10528
     10521     10524     10527     10529     10521     10524     10527     10530
     10522     10521     10524     10525     10522     10521     10524     10526
     10522     10521     10524     10527     10523     10521     10524     10525
     10523     10521     10524     10526     10523     10521     10524     10527
     10524     10527     10530     10531     10524     10527     10530     10532
     10525     10524     10527     10528     10525     10524     10527     10529
     10525     10524     10527     10530     10526     10524     10527     10528
     10526     10524     10527     10529     10526     10524     10527     10530
     10527     10530     10532     10533     10527     10530     10532     10534
     10528     10527     10530     10531     10528     10527     10530     10532
     10529     10527     10530     10531     10529     10527     10530     10532
     10530     10532     10534     10535     10530     10532     10534     10536
     10530     10532     10534     10537     10531     10530     10532     10533
     10531     10530     10532     10534     10532     10534     10537     10538
     10532     10534     10537     10539     10532     10534     10537     10540
     10533     10532     10534     10535     10533     10532     10534     10536
     10533     10532     10534     10537     10534     10537     10540     10541
     10534     10537     10540     10542     10534     10537     10540     10543
     10535     10534     10537     10538     10535     10534     10537     10539
     10535     10534     10537     10540     10536     10534     10537     10538
     10536     10534     10537     10539     10536     10534     10537     10540
     10537     10540     10543     10544     10537     10540     10543     10545
     10537     10540     10543     10546     10538     10537     10540     10541
     10538     10537     10540     10542     10538     10537     10540     10543
     10539     10537     10540     10541     10539     10537     10540     10542
     10539     10537     10540     10543     10540     10543     10546     10547
     10540     10543     10546     10548     10540     10543     10546     10549
     10541     10540     10543     10544     10541     10540     10543     10545
     10541     10540     10543     10546     10542     10540     10543     10544
     10542     10540     10543     10545     10542     10540     10543     10546
     10543     10546     10549     10550     10543     10546     10549     10551
     10543     10546     10549     10552     10544     10543     10546     10547
     10544     10543     10546     10548     10544     10543     10546     10549
     10545     10543     10546     10547     10545     10543     10546     10548
     10545     10543     10546     10549     10546     10549     10552     10553
     10546     10549     10552     10554     10546     10549     10552     10555
     10547     10546     10549     10550     10547     10546     10549     10551
     10547     10546     10549     10552     10548     10546     10549     10550
     10548     10546     10549     10551     10548     10546     10549     10552
     10549     10552     10555     10556     10549     10552     10555     10557
     10549     10552     10555     10558     10550     10549     10552     10553
     10550     10549     10552     10554     10550     10549     10552     10555
     10551     10549     10552     10553     10551     10549     10552     10554
     10551     10549     10552     10555     10553     10552     10555     10556
     10553     10552     10555     10557     10553     10552     10555     10558
     10554     10552     10555     10556     10554     10552     10555     10557
     10554     10552     10555     10558     10559     10562     10565     10566
     10559     10562     10565     10567     10559     10562     10565     10568
     10560     10559     10562     10563     10560     10559     10562     10564
     10560     10559     10562     10565     10561     10559     10562     10563
     10561     10559     10562     10564     10561     10559     10562     10565
     10562     10565     10568     10569     10562     10565     10568     10570
     10562     10565     10568     10571     10563     10562     10565     10566
     10563     10562     10565     10567     10563     10562     10565     10568
     10564     10562     10565     10566     10564     10562     10565     10567
     10564     10562     10565     10568     10565     10568     10571     10572
     10565     10568     10571     10573     10565     10568     10571     10574
     10566     10565     10568     10569     10566     10565     10568     10570
     10566     10565     10568     10571     10567     10565     10568     10569
     10567     10565     10568     10570     10567     10565     10568     10571
     10568     10571     10574     10575     10568     10571     10574     10576
     10568     10571     10574     10577     10569     10568     10571     10572
     10569     10568     10571     10573     10569     10568     10571     10574
     10570     10568     10571     10572     10570     10568     10571     10573
     10570     10568     10571     10574     10571     10574     10577     10578
     10571     10574     10577     10579     10571     10574     10577     10580
     10572     10571     10574     10575     10572     10571     10574     10576
     10572     10571     10574     10577     10573     10571     10574     10575
     10573     10571     10574     10576     10573     10571     10574     10577
     10574     10577     10580     10581     10574     10577     10580     10582
     10574     10577     10580     10583     10575     10574     10577     10578
     10575     10574     10577     10579     10575     10574     10577     10580
     10576     10574     10577     10578     10576     10574     10577     10579
     10576     10574     10577     10580     10577     10580     10583     10584
     10577     10580     10583     10585     10577     10580     10583     10586
     10578     10577     10580     10581     10578     10577     10580     10582
     10578     10577     10580     10583     10579     10577     10580     10581
     10579     10577     10580     10582     10579     10577     10580     10583
     10580     10583     10586     10587     10580     10583     10586     10588
     10580     10583     10586     10589     10581     10580     10583     10584
     10581     10580     10583     10585     10581     10580     10583     10586
     10582     10580     10583     10584     10582     10580     10583     10585
     10582     10580     10583     10586     10583     10586     10589     10590
     10583     10586     10589     10591     10583     10586     10589     10592
     10584     10583     10586     10587     10584     10583     10586     10588
     10584     10583     10586     10589     10585     10583     10586     10587
     10585     10583     10586     10588     10585     10583     10586     10589
     10586     10589     10592     10593     10586     10589     10592     10594
     10586     10589     10592     10595     10587     10586     10589     10590
     10587     10586     10589     10591     10587     10586     10589     10592
     10588     10586     10589     10590     10588     10586     10589     10591
     10588     10586     10589     10592     10589     10592     10595     10596
     10589     10592     10595     10597     10589     10592     10595     10598
     10590     10589     10592     10593     10590     10589     10592     10594
     10590     10589     10592     10595     10591     10589     10592     10593
     10591     10589     10592     10594     10591     10589     10592     10595
     10592     10595     10598     10599     10592     10595     10598     10600
     10592     10595     10598     10601     10593     10592     10595     10596
     10593     10592     10595     10597     10593     10592     10595     10598
     10594     10592     10595     10596     10594     10592     10595     10597
     10594     10592     10595     10598     10596     10595     10598     10599
     10596     10595     10598     10600     10596     10595     10598     10601
     10597     10595     10598     10599     10597     10595     10598     10600
     10597     10595     10598     10601     10602     10606     10608     10609
     10602     10606     10608     10610     10602     10606     10611     10612
     10602     10606     10611     10613     10602     10606     10611     10617
     10603     10602     10606     10607     10603     10602     10606     10608
     10603     10602     10606     10611     10604     10602     10606     10607
     10604     10602     10606     10608     10604     10602     10606     10611
     10605     10602     10606     10607     10605     10602     10606     10608
     10605     10602     10606     10611     10606     10611     10617     10614
     10607     10606     10608     10609     10607     10606     10608     10610
     10607     10606     10611     10612     10607     10606     10611     10613
     10607     10606     10611     10617     10608     10606     10611     10612
     10608     10606     10611     10613     10608     10606     10611     10617
     10609     10608     10606     10611     10610     10608     10606     10611
     10611     10617     10614     10615     10611     10617     10614     10616
     10611     10617     10614     10618     10612     10611     10617     10614
     10613     10611     10617     10614     10614     10618     10619     10620
     10614     10618     10619     10621     10614     10618     10619     10622
     10615     10614     10618     10619     10616     10614     10618     10619
     10617     10614     10618     10619     10618     10619     10622     10623
     10618     10619     10622     10624     10618     10619     10622     10630
     10619     10622     10624     10625     10619     10622     10630     10631
     10619     10622     10630     10632     10619     10622     10630     10633
     10620     10619     10622     10623     10620     10619     10622     10624
     10620     10619     10622     10630     10621     10619     10622     10623
     10621     10619     10622     10624     10621     10619     10622     10630
     10622     10624     10625     10626     10622     10624     10625     10627
     10622     10630     10633     10634     10623     10622     10624     10625
     10623     10622     10630     10631     10623     10622     10630     10632
     10623     10622     10630     10633     10624     10622     10630     10631
     10624     10622     10630     10632     10624     10622     10630     10633
     10624     10625     10627     10628     10624     10625     10627     10629
     10624     10625     10627     10639     10625     10624     10622     10630
     10625     10627     10639     10640     10625     10627     10639     10641
     10625     10627     10639     10642     10626     10625     10627     10628
     10626     10625     10627     10629     10626     10625     10627     10639
     10627     10639     10642     10643     10627     10639     10642     10644
     10627     10639     10642     10645     10628     10627     10639     10640
     10628     10627     10639     10641     10628     10627     10639     10642
     10629     10627     10639     10640     10629     10627     10639     10641
     10629     10627     10639     10642     10630     10633     10634     10635
     10630     10633     10634     10636     10631     10630     10633     10634
     10632     10630     10633     10634     10633     10634     10636     10637
     10633     10634     10636     10638     10633     10634     10636     10686
     10634     10636     10686     10687     10634     10636     10686     10688
     10634     10636     10686     10689     10635     10634     10636     10637
     10635     10634     10636     10638     10635     10634     10636     10686
     10636     10686     10689     10690     10636     10686     10689     10691
     10636     10686     10689     10692     10637     10636     10686     10687
     10637     10636     10686     10688     10637     10636     10686     10689
     10638     10636     10686     10687     10638     10636     10686     10688
     10638     10636     10686     10689     10639     10642     10645     10646
     10639     10642     10645     10647     10639     10642     10645     10648
     10640     10639     10642     10643     10640     10639     10642     10644
     10640     10639     10642     10645     10641     10639     10642     10643
     10641     10639     10642     10644     10641     10639     10642     10645
     10642     10645     10648     10649     10642     10645     10648     10650
     10642     10645     10648     10651     10643     10642     10645     10646
     10643     10642     10645     10647     10643     10642     10645     10648
     10644     10642     10645     10646     10644     10642     10645     10647
     10644     10642     10645     10648     10645     10648     10651     10652
     10645     10648     10651     10653     10645     10648     10651     10654
     10646     10645     10648     10649     10646     10645     10648     10650
     10646     10645     10648     10651     10647     10645     10648     10649
     10647     10645     10648     10650     10647     10645     10648     10651
     10648     10651     10654     10655     10648     10651     10654     10656
     10648     10651     10654     10657     10649     10648     10651     10652
     10649     10648     10651     10653     10649     10648     10651     10654
     10650     10648     10651     10652     10650     10648     10651     10653
     10650     10648     10651     10654     10651     10654     10657     10658
     10651     10654     10657     10659     10652     10651     10654     10655
     10652     10651     10654     10656     10652     10651     10654     10657
     10653     10651     10654     10655     10653     10651     10654     10656
     10653     10651     10654     10657     10654     10657     10659     10660
     10654     10657     10659     10661     10655     10654     10657     10658
     10655     10654     10657     10659     10656     10654     10657     10658
     10656     10654     10657     10659     10657     10659     10661     10662
     10657     10659     10661     10663     10657     10659     10661     10664
     10658     10657     10659     10660     10658     10657     10659     10661
     10659     10661     10664     10665     10659     10661     10664     10666
     10659     10661     10664     10667     10660     10659     10661     10662
     10660     10659     10661     10663     10660     10659     10661     10664
     10661     10664     10667     10668     10661     10664     10667     10669
     10661     10664     10667     10670     10662     10661     10664     10665
     10662     10661     10664     10666     10662     10661     10664     10667
     10663     10661     10664     10665     10663     10661     10664     10666
     10663     10661     10664     10667     10664     10667     10670     10671
     10664     10667     10670     10672     10664     10667     10670     10673
     10665     10664     10667     10668     10665     10664     10667     10669
     10665     10664     10667     10670     10666     10664     10667     10668
     10666     10664     10667     10669     10666     10664     10667     10670
     10667     10670     10673     10674     10667     10670     10673     10675
     10667     10670     10673     10676     10668     10667     10670     10671
     10668     10667     10670     10672     10668     10667     10670     10673
     10669     10667     10670     10671     10669     10667     10670     10672
     10669     10667     10670     10673     10670     10673     10676     10677
     10670     10673     10676     10678     10670     10673     10676     10679
     10671     10670     10673     10674     10671     10670     10673     10675
     10671     10670     10673     10676     10672     10670     10673     10674
     10672     10670     10673     10675     10672     10670     10673     10676
     10673     10676     10679     10680     10673     10676     10679     10681
     10673     10676     10679     10682     10674     10673     10676     10677
     10674     10673     10676     10678     10674     10673     10676     10679
     10675     10673     10676     10677     10675     10673     10676     10678
     10675     10673     10676     10679     10676     10679     10682     10683
     10676     10679     10682     10684     10676     10679     10682     10685
     10677     10676     10679     10680     10677     10676     10679     10681
     10677     10676     10679     10682     10678     10676     10679     10680
     10678     10676     10679     10681     10678     10676     10679     10682
     10680     10679     10682     10683     10680     10679     10682     10684
     10680     10679     10682     10685     10681     10679     10682     10683
     10681     10679     10682     10684     10681     10679     10682     10685
     10686     10689     10692     10693     10686     10689     10692     10694
     10686     10689     10692     10695     10687     10686     10689     10690
     10687     10686     10689     10691     10687     10686     10689     10692
     10688     10686     10689     10690     10688     10686     10689     10691
     10688     10686     10689     10692     10689     10692     10695     10696
     10689     10692     10695     10697     10689     10692     10695     10698
     10690     10689     10692     10693     10690     10689     10692     10694
     10690     10689     10692     10695     10691     10689     10692     10693
     10691     10689     10692     10694     10691     10689     10692     10695
     10692     10695     10698     10699     10692     10695     10698     10700
     10692     10695     10698     10701     10693     10692     10695     10696
     10693     10692     10695     10697     10693     10692     10695     10698
     10694     10692     10695     10696     10694     10692     10695     10697
     10694     10692     10695     10698     10695     10698     10701     10702
     10695     10698     10701     10703     10695     10698     10701     10704
     10696     10695     10698     10699     10696     10695     10698     10700
     10696     10695     10698     10701     10697     10695     10698     10699
     10697     10695     10698     10700     10697     10695     10698     10701
     10698     10701     10704     10705     10698     10701     10704     10706
     10698     10701     10704     10707     10699     10698     10701     10702
     10699     10698     10701     10703     10699     10698     10701     10704
     10700     10698     10701     10702     10700     10698     10701     10703
     10700     10698     10701     10704     10701     10704     10707     10708
     10701     10704     10707     10709     10701     10704     10707     10710
     10702     10701     10704     10705     10702     10701     10704     10706
     10702     10701     10704     10707     10703     10701     10704     10705
     10703     10701     10704     10706     10703     10701     10704     10707
     10704     10707     10710     10711     10704     10707     10710     10712
     10704     10707     10710     10713     10705     10704     10707     10708
     10705     10704     10707     10709     10705     10704     10707     10710
     10706     10704     10707     10708     10706     10704     10707     10709
     10706     10704     10707     10710     10707     10710     10713     10714
     10707     10710     10713     10715     10707     10710     10713     10716
     10708     10707     10710     10711     10708     10707     10710     10712
     10708     10707     10710     10713     10709     10707     10710     10711
     10709     10707     10710     10712     10709     10707     10710     10713
     10710     10713     10716     10717     10710     10713     10716     10718
     10710     10713     10716     10719     10711     10710     10713     10714
     10711     10710     10713     10715     10711     10710     10713     10716
     10712     10710     10713     10714     10712     10710     10713     10715
     10712     10710     10713     10716     10713     10716     10719     10720
     10713     10716     10719     10721     10713     10716     10719     10722
     10714     10713     10716     10717     10714     10713     10716     10718
     10714     10713     10716     10719     10715     10713     10716     10717
     10715     10713     10716     10718     10715     10713     10716     10719
     10716     10719     10722     10723     10716     10719     10722     10724
     10716     10719     10722     10725     10717     10716     10719     10720
     10717     10716     10719     10721     10717     10716     10719     10722
     10718     10716     10719     10720     10718     10716     10719     10721
     10718     10716     10719     10722     10719     10722     10725     10726
     10719     10722     10725     10727     10719     10722     10725     10728
     10720     10719     10722     10723     10720     10719     10722     10724
     10720     10719     10722     10725     10721     10719     10722     10723
     10721     10719     10722     10724     10721     10719     10722     10725
     10723     10722     10725     10726     10723     10722     10725     10727
     10723     10722     10725     10728     10724     10722     10725     10726
     10724     10722     10725     10727     10724     10722     10725     10728
     10729     10733     10735     10736     10729     10733     10735     10737
     10729     10733     10738     10739     10729     10733     10738     10740
     10729     10733     10738     10744     10730     10729     10733     10734
     10730     10729     10733     10735     10730     10729     10733     10738
     10731     10729     10733     10734     10731     10729     10733     10735
     10731     10729     10733     10738     10732     10729     10733     10734
     10732     10729     10733     10735     10732     10729     10733     10738
     10733     10738     10744     10741     10734     10733     10735     10736
     10734     10733     10735     10737     10734     10733     10738     10739
     10734     10733     10738     10740     10734     10733     10738     10744
     10735     10733     10738     10739     10735     10733     10738     10740
     10735     10733     10738     10744     10736     10735     10733     10738
     10737     10735     10733     10738     10738     10744     10741     10742
     10738     10744     10741     10743     10738     10744     10741     10745
     10739     10738     10744     10741     10740     10738     10744     10741
     10741     10745     10746     10747     10741     10745     10746     10748
     10741     10745     10746     10749     10742     10741     10745     10746
     10743     10741     10745     10746     10744     10741     10745     10746
     10745     10746     10749     10750     10745     10746     10749     10751
     10745     10746     10749     10757     10746     10749     10751     10752
     10746     10749     10757     10758     10746     10749     10757     10759
     10746     10749     10757     10760     10747     10746     10749     10750
     10747     10746     10749     10751     10747     10746     10749     10757
     10748     10746     10749     10750     10748     10746     10749     10751
     10748     10746     10749     10757     10749     10751     10752     10753
     10749     10751     10752     10754     10749     10757     10760     10761
     10750     10749     10751     10752     10750     10749     10757     10758
     10750     10749     10757     10759     10750     10749     10757     10760
     10751     10749     10757     10758     10751     10749     10757     10759
     10751     10749     10757     10760     10751     10752     10754     10755
     10751     10752     10754     10756     10751     10752     10754     10766
     10752     10751     10749     10757     10752     10754     10766     10767
     10752     10754     10766     10768     10752     10754     10766     10769
     10753     10752     10754     10755     10753     10752     10754     10756
     10753     10752     10754     10766     10754     10766     10769     10770
     10754     10766     10769     10771     10754     10766     10769     10772
     10755     10754     10766     10767     10755     10754     10766     10768
     10755     10754     10766     10769     10756     10754     10766     10767
     10756     10754     10766     10768     10756     10754     10766     10769
     10757     10760     10761     10762     10757     10760     10761     10763
     10758     10757     10760     10761     10759     10757     10760     10761
     10760     10761     10763     10764     10760     10761     10763     10765
     10760     10761     10763     10813     10761     10763     10813     10814
     10761     10763     10813     10815     10761     10763     10813     10816
     10762     10761     10763     10764     10762     10761     10763     10765
     10762     10761     10763     10813     10763     10813     10816     10817
     10763     10813     10816     10818     10763     10813     10816     10819
     10764     10763     10813     10814     10764     10763     10813     10815
     10764     10763     10813     10816     10765     10763     10813     10814
     10765     10763     10813     10815     10765     10763     10813     10816
     10766     10769     10772     10773     10766     10769     10772     10774
     10766     10769     10772     10775     10767     10766     10769     10770
     10767     10766     10769     10771     10767     10766     10769     10772
     10768     10766     10769     10770     10768     10766     10769     10771
     10768     10766     10769     10772     10769     10772     10775     10776
     10769     10772     10775     10777     10769     10772     10775     10778
     10770     10769     10772     10773     10770     10769     10772     10774
     10770     10769     10772     10775     10771     10769     10772     10773
     10771     10769     10772     10774     10771     10769     10772     10775
     10772     10775     10778     10779     10772     10775     10778     10780
     10772     10775     10778     10781     10773     10772     10775     10776
     10773     10772     10775     10777     10773     10772     10775     10778
     10774     10772     10775     10776     10774     10772     10775     10777
     10774     10772     10775     10778     10775     10778     10781     10782
     10775     10778     10781     10783     10775     10778     10781     10784
     10776     10775     10778     10779     10776     10775     10778     10780
     10776     10775     10778     10781     10777     10775     10778     10779
     10777     10775     10778     10780     10777     10775     10778     10781
     10778     10781     10784     10785     10778     10781     10784     10786
     10779     10778     10781     10782     10779     10778     10781     10783
     10779     10778     10781     10784     10780     10778     10781     10782
     10780     10778     10781     10783     10780     10778     10781     10784
     10781     10784     10786     10787     10781     10784     10786     10788
     10782     10781     10784     10785     10782     10781     10784     10786
     10783     10781     10784     10785     10783     10781     10784     10786
     10784     10786     10788     10789     10784     10786     10788     10790
     10784     10786     10788     10791     10785     10784     10786     10787
     10785     10784     10786     10788     10786     10788     10791     10792
     10786     10788     10791     10793     10786     10788     10791     10794
     10787     10786     10788     10789     10787     10786     10788     10790
     10787     10786     10788     10791     10788     10791     10794     10795
     10788     10791     10794     10796     10788     10791     10794     10797
     10789     10788     10791     10792     10789     10788     10791     10793
     10789     10788     10791     10794     10790     10788     10791     10792
     10790     10788     10791     10793     10790     10788     10791     10794
     10791     10794     10797     10798     10791     10794     10797     10799
     10791     10794     10797     10800     10792     10791     10794     10795
     10792     10791     10794     10796     10792     10791     10794     10797
     10793     10791     10794     10795     10793     10791     10794     10796
     10793     10791     10794     10797     10794     10797     10800     10801
     10794     10797     10800     10802     10794     10797     10800     10803
     10795     10794     10797     10798     10795     10794     10797     10799
     10795     10794     10797     10800     10796     10794     10797     10798
     10796     10794     10797     10799     10796     10794     10797     10800
     10797     10800     10803     10804     10797     10800     10803     10805
     10797     10800     10803     10806     10798     10797     10800     10801
     10798     10797     10800     10802     10798     10797     10800     10803
     10799     10797     10800     10801     10799     10797     10800     10802
     10799     10797     10800     10803     10800     10803     10806     10807
     10800     10803     10806     10808     10800     10803     10806     10809
     10801     10800     10803     10804     10801     10800     10803     10805
     10801     10800     10803     10806     10802     10800     10803     10804
     10802     10800     10803     10805     10802     10800     10803     10806
     10803     10806     10809     10810     10803     10806     10809     10811
     10803     10806     10809     10812     10804     10803     10806     10807
     10804     10803     10806     10808     10804     10803     10806     10809
     10805     10803     10806     10807     10805     10803     10806     10808
     10805     10803     10806     10809     10807     10806     10809     10810
     10807     10806     10809     10811     10807     10806     10809     10812
     10808     10806     10809     10810     10808     10806     10809     10811
     10808     10806     10809     10812     10813     10816     10819     10820
     10813     10816     10819     10821     10813     10816     10819     10822
     10814     10813     10816     10817     10814     10813     10816     10818
     10814     10813     10816     10819     10815     10813     10816     10817
     10815     10813     10816     10818     10815     10813     10816     10819
     10816     10819     10822     10823     10816     10819     10822     10824
     10816     10819     10822     10825     10817     10816     10819     10820
     10817     10816     10819     10821     10817     10816     10819     10822
     10818     10816     10819     10820     10818     10816     10819     10821
     10818     10816     10819     10822     10819     10822     10825     10826
     10819     10822     10825     10827     10819     10822     10825     10828
     10820     10819     10822     10823     10820     10819     10822     10824
     10820     10819     10822     10825     10821     10819     10822     10823
     10821     10819     10822     10824     10821     10819     10822     10825
     10822     10825     10828     10829     10822     10825     10828     10830
     10822     10825     10828     10831     10823     10822     10825     10826
     10823     10822     10825     10827     10823     10822     10825     10828
     10824     10822     10825     10826     10824     10822     10825     10827
     10824     10822     10825     10828     10825     10828     10831     10832
     10825     10828     10831     10833     10825     10828     10831     10834
     10826     10825     10828     10829     10826     10825     10828     10830
     10826     10825     10828     10831     10827     10825     10828     10829
     10827     10825     10828     10830     10827     10825     10828     10831
     10828     10831     10834     10835     10828     10831     10834     10836
     10828     10831     10834     10837     10829     10828     10831     10832
     10829     10828     10831     10833     10829     10828     10831     10834
     10830     10828     10831     10832     10830     10828     10831     10833
     10830     10828     10831     10834     10831     10834     10837     10838
     10831     10834     10837     10839     10831     10834     10837     10840
     10832     10831     10834     10835     10832     10831     10834     10836
     10832     10831     10834     10837     10833     10831     10834     10835
     10833     10831     10834     10836     10833     10831     10834     10837
     10834     10837     10840     10841     10834     10837     10840     10842
     10834     10837     10840     10843     10835     10834     10837     10838
     10835     10834     10837     10839     10835     10834     10837     10840
     10836     10834     10837     10838     10836     10834     10837     10839
     10836     10834     10837     10840     10837     10840     10843     10844
     10837     10840     10843     10845     10837     10840     10843     10846
     10838     10837     10840     10841     10838     10837     10840     10842
     10838     10837     10840     10843     10839     10837     10840     10841
     10839     10837     10840     10842     10839     10837     10840     10843
     10840     10843     10846     10847     10840     10843     10846     10848
     10840     10843     10846     10849     10841     10840     10843     10844
     10841     10840     10843     10845     10841     10840     10843     10846
     10842     10840     10843     10844     10842     10840     10843     10845
     10842     10840     10843     10846     10843     10846     10849     10850
     10843     10846     10849     10851     10843     10846     10849     10852
     10844     10843     10846     10847     10844     10843     10846     10848
     10844     10843     10846     10849     10845     10843     10846     10847
     10845     10843     10846     10848     10845     10843     10846     10849
     10846     10849     10852     10853     10846     10849     10852     10854
     10846     10849     10852     10855     10847     10846     10849     10850
     10847     10846     10849     10851     10847     10846     10849     10852
     10848     10846     10849     10850     10848     10846     10849     10851
     10848     10846     10849     10852     10850     10849     10852     10853
     10850     10849     10852     10854     10850     10849     10852     10855
     10851     10849     10852     10853     10851     10849     10852     10854
     10851     10849     10852     10855     10856     10857     10872     10873
     10856     10857     10872     10874     10856     10857     10872     10878
     10857     10856     10860     10861     10857     10856     10860     10862
     10857     10856     10860     10863     10857     10856     10864     10865
     10857     10856     10864     10866     10857     10856     10864     10867
     10857     10856     10868     10869     10857     10856     10868     10870
     10857     10856     10868     10871     10857     10872     10878     10875
     10858     10857     10856     10860     10858     10857     10856     10864
     10858     10857     10856     10868     10858     10857     10872     10873
     10858     10857     10872     10874     10858     10857     10872     10878
     10859     10857     10856     10860     10859     10857     10856     10864
     10859     10857     10856     10868     10859     10857     10872     10873
     10859     10857     10872     10874     10859     10857     10872     10878
     10860     10856     10857     10872     10860     10856     10864     10865
     10860     10856     10864     10866     10860     10856     10864     10867
     10860     10856     10868     10869     10860     10856     10868     10870
     10860     10856     10868     10871     10861     10860     10856     10864
     10861     10860     10856     10868     10862     10860     10856     10864
     10862     10860     10856     10868     10863     10860     10856     10864
     10863     10860     10856     10868     10864     10856     10857     10872
     10864     10856     10868     10869     10864     10856     10868     10870
     10864     10856     10868     10871     10865     10864     10856     10868
     10866     10864     10856     10868     10867     10864     10856     10868
     10868     10856     10857     10872     10872     10878     10875     10876
     10872     10878     10875     10877     10872     10878     10875     10879
     10873     10872     10878     10875     10874     10872     10878     10875
     10875     10879     10880     10881     10875     10879     10880     10882
     10875     10879     10880     10883     10876     10875     10879     10880
     10877     10875     10879     10880     10878     10875     10879     10880
     10879     10880     10883     10884     10879     10880     10883     10885
     10879     10880     10883     10891     10880     10883     10885     10886
     10880     10883     10891     10892     10880     10883     10891     10893
     10880     10883     10891     10894     10881     10880     10883     10884
     10881     10880     10883     10885     10881     10880     10883     10891
     10882     10880     10883     10884     10882     10880     10883     10885
     10882     10880     10883     10891     10883     10885     10886     10887
     10883     10885     10886     10888     10883     10891     10894     10895
     10884     10883     10885     10886     10884     10883     10891     10892
     10884     10883     10891     10893     10884     10883     10891     10894
     10885     10883     10891     10892     10885     10883     10891     10893
     10885     10883     10891     10894     10885     10886     10888     10889
     10885     10886     10888     10890     10885     10886     10888     10900
     10886     10885     10883     10891     10886     10888     10900     10901
     10886     10888     10900     10902     10886     10888     10900     10903
     10887     10886     10888     10889     10887     10886     10888     10890
     10887     10886     10888     10900     10888     10900     10903     10904
     10888     10900     10903     10905     10888     10900     10903     10906
     10889     10888     10900     10901     10889     10888     10900     10902
     10889     10888     10900     10903     10890     10888     10900     10901
     10890     10888     10900     10902     10890     10888     10900     10903
     10891     10894     10895     10896     10891     10894     10895     10897
     10892     10891     10894     10895     10893     10891     10894     10895
     10894     10895     10897     10898     10894     10895     10897     10899
     10894     10895     10897     10947     10895     10897     10947     10948
     10895     10897     10947     10949     10895     10897     10947     10950
     10896     10895     10897     10898     10896     10895     10897     10899
     10896     10895     10897     10947     10897     10947     10950     10951
     10897     10947     10950     10952     10897     10947     10950     10953
     10898     10897     10947     10948     10898     10897     10947     10949
     10898     10897     10947     10950     10899     10897     10947     10948
     10899     10897     10947     10949     10899     10897     10947     10950
     10900     10903     10906     10907     10900     10903     10906     10908
     10900     10903     10906     10909     10901     10900     10903     10904
     10901     10900     10903     10905     10901     10900     10903     10906
     10902     10900     10903     10904     10902     10900     10903     10905
     10902     10900     10903     10906     10903     10906     10909     10910
     10903     10906     10909     10911     10903     10906     10909     10912
     10904     10903     10906     10907     10904     10903     10906     10908
     10904     10903     10906     10909     10905     10903     10906     10907
     10905     10903     10906     10908     10905     10903     10906     10909
     10906     10909     10912     10913     10906     10909     10912     10914
     10906     10909     10912     10915     10907     10906     10909     10910
     10907     10906     10909     10911     10907     10906     10909     10912
     10908     10906     10909     10910     10908     10906     10909     10911
     10908     10906     10909     10912     10909     10912     10915     10916
     10909     10912     10915     10917     10909     10912     10915     10918
     10910     10909     10912     10913     10910     10909     10912     10914
     10910     10909     10912     10915     10911     10909     10912     10913
     10911     10909     10912     10914     10911     10909     10912     10915
     10912     10915     10918     10919     10912     10915     10918     10920
     10913     10912     10915     10916     10913     10912     10915     10917
     10913     10912     10915     10918     10914     10912     10915     10916
     10914     10912     10915     10917     10914     10912     10915     10918
     10915     10918     10920     10921     10915     10918     10920     10922
     10916     10915     10918     10919     10916     10915     10918     10920
     10917     10915     10918     10919     10917     10915     10918     10920
     10918     10920     10922     10923     10918     10920     10922     10924
     10918     10920     10922     10925     10919     10918     10920     10921
     10919     10918     10920     10922     10920     10922     10925     10926
     10920     10922     10925     10927     10920     10922     10925     10928
     10921     10920     10922     10923     10921     10920     10922     10924
     10921     10920     10922     10925     10922     10925     10928     10929
     10922     10925     10928     10930     10922     10925     10928     10931
     10923     10922     10925     10926     10923     10922     10925     10927
     10923     10922     10925     10928     10924     10922     10925     10926
     10924     10922     10925     10927     10924     10922     10925     10928
     10925     10928     10931     10932     10925     10928     10931     10933
     10925     10928     10931     10934     10926     10925     10928     10929
     10926     10925     10928     10930     10926     10925     10928     10931
     10927     10925     10928     10929     10927     10925     10928     10930
     10927     10925     10928     10931     10928     10931     10934     10935
     10928     10931     10934     10936     10928     10931     10934     10937
     10929     10928     10931     10932     10929     10928     10931     10933
     10929     10928     10931     10934     10930     10928     10931     10932
     10930     10928     10931     10933     10930     10928     10931     10934
     10931     10934     10937     10938     10931     10934     10937     10939
     10931     10934     10937     10940     10932     10931     10934     10935
     10932     10931     10934     10936     10932     10931     10934     10937
     10933     10931     10934     10935     10933     10931     10934     10936
     10933     10931     10934     10937     10934     10937     10940     10941
     10934     10937     10940     10942     10934     10937     10940     10943
     10935     10934     10937     10938     10935     10934     10937     10939
     10935     10934     10937     10940     10936     10934     10937     10938
     10936     10934     10937     10939     10936     10934     10937     10940
     10937     10940     10943     10944     10937     10940     10943     10945
     10937     10940     10943     10946     10938     10937     10940     10941
     10938     10937     10940     10942     10938     10937     10940     10943
     10939     10937     10940     10941     10939     10937     10940     10942
     10939     10937     10940     10943     10941     10940     10943     10944
     10941     10940     10943     10945     10941     10940     10943     10946
     10942     10940     10943     10944     10942     10940     10943     10945
     10942     10940     10943     10946     10947     10950     10953     10954
     10947     10950     10953     10955     10947     10950     10953     10956
     10948     10947     10950     10951     10948     10947     10950     10952
     10948     10947     10950     10953     10949     10947     10950     10951
     10949     10947     10950     10952     10949     10947     10950     10953
     10950     10953     10956     10957     10950     10953     10956     10958
     10950     10953     10956     10959     10951     10950     10953     10954
     10951     10950     10953     10955     10951     10950     10953     10956
     10952     10950     10953     10954     10952     10950     10953     10955
     10952     10950     10953     10956     10953     10956     10959     10960
     10953     10956     10959     10961     10953     10956     10959     10962
     10954     10953     10956     10957     10954     10953     10956     10958
     10954     10953     10956     10959     10955     10953     10956     10957
     10955     10953     10956     10958     10955     10953     10956     10959
     10956     10959     10962     10963     10956     10959     10962     10964
     10956     10959     10962     10965     10957     10956     10959     10960
     10957     10956     10959     10961     10957     10956     10959     10962
     10958     10956     10959     10960     10958     10956     10959     10961
     10958     10956     10959     10962     10959     10962     10965     10966
     10959     10962     10965     10967     10959     10962     10965     10968
     10960     10959     10962     10963     10960     10959     10962     10964
     10960     10959     10962     10965     10961     10959     10962     10963
     10961     10959     10962     10964     10961     10959     10962     10965
     10962     10965     10968     10969     10962     10965     10968     10970
     10962     10965     10968     10971     10963     10962     10965     10966
     10963     10962     10965     10967     10963     10962     10965     10968
     10964     10962     10965     10966     10964     10962     10965     10967
     10964     10962     10965     10968     10965     10968     10971     10972
     10965     10968     10971     10973     10965     10968     10971     10974
     10966     10965     10968     10969     10966     10965     10968     10970
     10966     10965     10968     10971     10967     10965     10968     10969
     10967     10965     10968     10970     10967     10965     10968     10971
     10968     10971     10974     10975     10968     10971     10974     10976
     10968     10971     10974     10977     10969     10968     10971     10972
     10969     10968     10971     10973     10969     10968     10971     10974
     10970     10968     10971     10972     10970     10968     10971     10973
     10970     10968     10971     10974     10971     10974     10977     10978
     10971     10974     10977     10979     10971     10974     10977     10980
     10972     10971     10974     10975     10972     10971     10974     10976
     10972     10971     10974     10977     10973     10971     10974     10975
     10973     10971     10974     10976     10973     10971     10974     10977
     10974     10977     10980     10981     10974     10977     10980     10982
     10974     10977     10980     10983     10975     10974     10977     10978
     10975     10974     10977     10979     10975     10974     10977     10980
     10976     10974     10977     10978     10976     10974     10977     10979
     10976     10974     10977     10980     10977     10980     10983     10984
     10977     10980     10983     10985     10977     10980     10983     10986
     10978     10977     10980     10981     10978     10977     10980     10982
     10978     10977     10980     10983     10979     10977     10980     10981
     10979     10977     10980     10982     10979     10977     10980     10983
     10980     10983     10986     10987     10980     10983     10986     10988
     10980     10983     10986     10989     10981     10980     10983     10984
     10981     10980     10983     10985     10981     10980     10983     10986
     10982     10980     10983     10984     10982     10980     10983     10985
     10982     10980     10983     10986     10984     10983     10986     10987
     10984     10983     10986     10988     10984     10983     10986     10989
     10985     10983     10986     10987     10985     10983     10986     10988
     10985     10983     10986     10989     10990     10991     11006     11007
     10990     10991     11006     11008     10990     10991     11006     11012
     10991     10990     10994     10995     10991     10990     10994     10996
     10991     10990     10994     10997     10991     10990     10998     10999
     10991     10990     10998     11000     10991     10990     10998     11001
     10991     10990     11002     11003     10991     10990     11002     11004
     10991     10990     11002     11005     10991     11006     11012     11009
     10992     10991     10990     10994     10992     10991     10990     10998
     10992     10991     10990     11002     10992     10991     11006     11007
     10992     10991     11006     11008     10992     10991     11006     11012
     10993     10991     10990     10994     10993     10991     10990     10998
     10993     10991     10990     11002     10993     10991     11006     11007
     10993     10991     11006     11008     10993     10991     11006     11012
     10994     10990     10991     11006     10994     10990     10998     10999
     10994     10990     10998     11000     10994     10990     10998     11001
     10994     10990     11002     11003     10994     10990     11002     11004
     10994     10990     11002     11005     10995     10994     10990     10998
     10995     10994     10990     11002     10996     10994     10990     10998
     10996     10994     10990     11002     10997     10994     10990     10998
     10997     10994     10990     11002     10998     10990     10991     11006
     10998     10990     11002     11003     10998     10990     11002     11004
     10998     10990     11002     11005     10999     10998     10990     11002
     11000     10998     10990     11002     11001     10998     10990     11002
     11002     10990     10991     11006     11006     11012     11009     11010
     11006     11012     11009     11011     11006     11012     11009     11013
     11007     11006     11012     11009     11008     11006     11012     11009
     11009     11013     11014     11015     11009     11013     11014     11016
     11009     11013     11014     11017     11010     11009     11013     11014
     11011     11009     11013     11014     11012     11009     11013     11014
     11013     11014     11017     11018     11013     11014     11017     11019
     11013     11014     11017     11025     11014     11017     11019     11020
     11014     11017     11025     11026     11014     11017     11025     11027
     11014     11017     11025     11028     11015     11014     11017     11018
     11015     11014     11017     11019     11015     11014     11017     11025
     11016     11014     11017     11018     11016     11014     11017     11019
     11016     11014     11017     11025     11017     11019     11020     11021
     11017     11019     11020     11022     11017     11025     11028     11029
     11018     11017     11019     11020     11018     11017     11025     11026
     11018     11017     11025     11027     11018     11017     11025     11028
     11019     11017     11025     11026     11019     11017     11025     11027
     11019     11017     11025     11028     11019     11020     11022     11023
     11019     11020     11022     11024     11019     11020     11022     11034
     11020     11019     11017     11025     11020     11022     11034     11035
     11020     11022     11034     11036     11020     11022     11034     11037
     11021     11020     11022     11023     11021     11020     11022     11024
     11021     11020     11022     11034     11022     11034     11037     11038
     11022     11034     11037     11039     11022     11034     11037     11040
     11023     11022     11034     11035     11023     11022     11034     11036
     11023     11022     11034     11037     11024     11022     11034     11035
     11024     11022     11034     11036     11024     11022     11034     11037
     11025     11028     11029     11030     11025     11028     11029     11031
     11026     11025     11028     11029     11027     11025     11028     11029
     11028     11029     11031     11032     11028     11029     11031     11033
     11028     11029     11031     11081     11029     11031     11081     11082
     11029     11031     11081     11083     11029     11031     11081     11084
     11030     11029     11031     11032     11030     11029     11031     11033
     11030     11029     11031     11081     11031     11081     11084     11085
     11031     11081     11084     11086     11031     11081     11084     11087
     11032     11031     11081     11082     11032     11031     11081     11083
     11032     11031     11081     11084     11033     11031     11081     11082
     11033     11031     11081     11083     11033     11031     11081     11084
     11034     11037     11040     11041     11034     11037     11040     11042
     11034     11037     11040     11043     11035     11034     11037     11038
     11035     11034     11037     11039     11035     11034     11037     11040
     11036     11034     11037     11038     11036     11034     11037     11039
     11036     11034     11037     11040     11037     11040     11043     11044
     11037     11040     11043     11045     11037     11040     11043     11046
     11038     11037     11040     11041     11038     11037     11040     11042
     11038     11037     11040     11043     11039     11037     11040     11041
     11039     11037     11040     11042     11039     11037     11040     11043
     11040     11043     11046     11047     11040     11043     11046     11048
     11040     11043     11046     11049     11041     11040     11043     11044
     11041     11040     11043     11045     11041     11040     11043     11046
     11042     11040     11043     11044     11042     11040     11043     11045
     11042     11040     11043     11046     11043     11046     11049     11050
     11043     11046     11049     11051     11043     11046     11049     11052
     11044     11043     11046     11047     11044     11043     11046     11048
     11044     11043     11046     11049     11045     11043     11046     11047
     11045     11043     11046     11048     11045     11043     11046     11049
     11046     11049     11052     11053     11046     11049     11052     11054
     11047     11046     11049     11050     11047     11046     11049     11051
     11047     11046     11049     11052     11048     11046     11049     11050
     11048     11046     11049     11051     11048     11046     11049     11052
     11049     11052     11054     11055     11049     11052     11054     11056
     11050     11049     11052     11053     11050     11049     11052     11054
     11051     11049     11052     11053     11051     11049     11052     11054
     11052     11054     11056     11057     11052     11054     11056     11058
     11052     11054     11056     11059     11053     11052     11054     11055
     11053     11052     11054     11056     11054     11056     11059     11060
     11054     11056     11059     11061     11054     11056     11059     11062
     11055     11054     11056     11057     11055     11054     11056     11058
     11055     11054     11056     11059     11056     11059     11062     11063
     11056     11059     11062     11064     11056     11059     11062     11065
     11057     11056     11059     11060     11057     11056     11059     11061
     11057     11056     11059     11062     11058     11056     11059     11060
     11058     11056     11059     11061     11058     11056     11059     11062
     11059     11062     11065     11066     11059     11062     11065     11067
     11059     11062     11065     11068     11060     11059     11062     11063
     11060     11059     11062     11064     11060     11059     11062     11065
     11061     11059     11062     11063     11061     11059     11062     11064
     11061     11059     11062     11065     11062     11065     11068     11069
     11062     11065     11068     11070     11062     11065     11068     11071
     11063     11062     11065     11066     11063     11062     11065     11067
     11063     11062     11065     11068     11064     11062     11065     11066
     11064     11062     11065     11067     11064     11062     11065     11068
     11065     11068     11071     11072     11065     11068     11071     11073
     11065     11068     11071     11074     11066     11065     11068     11069
     11066     11065     11068     11070     11066     11065     11068     11071
     11067     11065     11068     11069     11067     11065     11068     11070
     11067     11065     11068     11071     11068     11071     11074     11075
     11068     11071     11074     11076     11068     11071     11074     11077
     11069     11068     11071     11072     11069     11068     11071     11073
     11069     11068     11071     11074     11070     11068     11071     11072
     11070     11068     11071     11073     11070     11068     11071     11074
     11071     11074     11077     11078     11071     11074     11077     11079
     11071     11074     11077     11080     11072     11071     11074     11075
     11072     11071     11074     11076     11072     11071     11074     11077
     11073     11071     11074     11075     11073     11071     11074     11076
     11073     11071     11074     11077     11075     11074     11077     11078
     11075     11074     11077     11079     11075     11074     11077     11080
     11076     11074     11077     11078     11076     11074     11077     11079
     11076     11074     11077     11080     11081     11084     11087     11088
     11081     11084     11087     11089     11081     11084     11087     11090
     11082     11081     11084     11085     11082     11081     11084     11086
     11082     11081     11084     11087     11083     11081     11084     11085
     11083     11081     11084     11086     11083     11081     11084     11087
     11084     11087     11090     11091     11084     11087     11090     11092
     11084     11087     11090     11093     11085     11084     11087     11088
     11085     11084     11087     11089     11085     11084     11087     11090
     11086     11084     11087     11088     11086     11084     11087     11089
     11086     11084     11087     11090     11087     11090     11093     11094
     11087     11090     11093     11095     11087     11090     11093     11096
     11088     11087     11090     11091     11088     11087     11090     11092
     11088     11087     11090     11093     11089     11087     11090     11091
     11089     11087     11090     11092     11089     11087     11090     11093
     11090     11093     11096     11097     11090     11093     11096     11098
     11090     11093     11096     11099     11091     11090     11093     11094
     11091     11090     11093     11095     11091     11090     11093     11096
     11092     11090     11093     11094     11092     11090     11093     11095
     11092     11090     11093     11096     11093     11096     11099     11100
     11093     11096     11099     11101     11093     11096     11099     11102
     11094     11093     11096     11097     11094     11093     11096     11098
     11094     11093     11096     11099     11095     11093     11096     11097
     11095     11093     11096     11098     11095     11093     11096     11099
     11096     11099     11102     11103     11096     11099     11102     11104
     11096     11099     11102     11105     11097     11096     11099     11100
     11097     11096     11099     11101     11097     11096     11099     11102
     11098     11096     11099     11100     11098     11096     11099     11101
     11098     11096     11099     11102     11099     11102     11105     11106
     11099     11102     11105     11107     11099     11102     11105     11108
     11100     11099     11102     11103     11100     11099     11102     11104
     11100     11099     11102     11105     11101     11099     11102     11103
     11101     11099     11102     11104     11101     11099     11102     11105
     11102     11105     11108     11109     11102     11105     11108     11110
     11102     11105     11108     11111     11103     11102     11105     11106
     11103     11102     11105     11107     11103     11102     11105     11108
     11104     11102     11105     11106     11104     11102     11105     11107
     11104     11102     11105     11108     11105     11108     11111     11112
     11105     11108     11111     11113     11105     11108     11111     11114
     11106     11105     11108     11109     11106     11105     11108     11110
     11106     11105     11108     11111     11107     11105     11108     11109
     11107     11105     11108     11110     11107     11105     11108     11111
     11108     11111     11114     11115     11108     11111     11114     11116
     11108     11111     11114     11117     11109     11108     11111     11112
     11109     11108     11111     11113     11109     11108     11111     11114
     11110     11108     11111     11112     11110     11108     11111     11113
     11110     11108     11111     11114     11111     11114     11117     11118
     11111     11114     11117     11119     11111     11114     11117     11120
     11112     11111     11114     11115     11112     11111     11114     11116
     11112     11111     11114     11117     11113     11111     11114     11115
     11113     11111     11114     11116     11113     11111     11114     11117
     11114     11117     11120     11121     11114     11117     11120     11122
     11114     11117     11120     11123     11115     11114     11117     11118
     11115     11114     11117     11119     11115     11114     11117     11120
     11116     11114     11117     11118     11116     11114     11117     11119
     11116     11114     11117     11120     11118     11117     11120     11121
     11118     11117     11120     11122     11118     11117     11120     11123
     11119     11117     11120     11121     11119     11117     11120     11122
     11119     11117     11120     11123     11124     11125     11140     11141
     11124     11125     11140     11142     11124     11125     11140     11146
     11125     11124     11128     11129     11125     11124     11128     11130
     11125     11124     11128     11131     11125     11124     11132     11133
     11125     11124     11132     11134     11125     11124     11132     11135
     11125     11124     11136     11137     11125     11124     11136     11138
     11125     11124     11136     11139     11125     11140     11146     11143
     11126     11125     11124     11128     11126     11125     11124     11132
     11126     11125     11124     11136     11126     11125     11140     11141
     11126     11125     11140     11142     11126     11125     11140     11146
     11127     11125     11124     11128     11127     11125     11124     11132
     11127     11125     11124     11136     11127     11125     11140     11141
     11127     11125     11140     11142     11127     11125     11140     11146
     11128     11124     11125     11140     11128     11124     11132     11133
     11128     11124     11132     11134     11128     11124     11132     11135
     11128     11124     11136     11137     11128     11124     11136     11138
     11128     11124     11136     11139     11129     11128     11124     11132
     11129     11128     11124     11136     11130     11128     11124     11132
     11130     11128     11124     11136     11131     11128     11124     11132
     11131     11128     11124     11136     11132     11124     11125     11140
     11132     11124     11136     11137     11132     11124     11136     11138
     11132     11124     11136     11139     11133     11132     11124     11136
     11134     11132     11124     11136     11135     11132     11124     11136
     11136     11124     11125     11140     11140     11146     11143     11144
     11140     11146     11143     11145     11140     11146     11143     11147
     11141     11140     11146     11143     11142     11140     11146     11143
     11143     11147     11148     11149     11143     11147     11148     11150
     11143     11147     11148     11151     11144     11143     11147     11148
     11145     11143     11147     11148     11146     11143     11147     11148
     11147     11148     11151     11152     11147     11148     11151     11153
     11147     11148     11151     11159     11148     11151     11153     11154
     11148     11151     11159     11160     11148     11151     11159     11161
     11148     11151     11159     11162     11149     11148     11151     11152
     11149     11148     11151     11153     11149     11148     11151     11159
     11150     11148     11151     11152     11150     11148     11151     11153
     11150     11148     11151     11159     11151     11153     11154     11155
     11151     11153     11154     11156     11151     11159     11162     11163
     11152     11151     11153     11154     11152     11151     11159     11160
     11152     11151     11159     11161     11152     11151     11159     11162
     11153     11151     11159     11160     11153     11151     11159     11161
     11153     11151     11159     11162     11153     11154     11156     11157
     11153     11154     11156     11158     11153     11154     11156     11168
     11154     11153     11151     11159     11154     11156     11168     11169
     11154     11156     11168     11170     11154     11156     11168     11171
     11155     11154     11156     11157     11155     11154     11156     11158
     11155     11154     11156     11168     11156     11168     11171     11172
     11156     11168     11171     11173     11156     11168     11171     11174
     11157     11156     11168     11169     11157     11156     11168     11170
     11157     11156     11168     11171     11158     11156     11168     11169
     11158     11156     11168     11170     11158     11156     11168     11171
     11159     11162     11163     11164     11159     11162     11163     11165
     11160     11159     11162     11163     11161     11159     11162     11163
     11162     11163     11165     11166     11162     11163     11165     11167
     11162     11163     11165     11215     11163     11165     11215     11216
     11163     11165     11215     11217     11163     11165     11215     11218
     11164     11163     11165     11166     11164     11163     11165     11167
     11164     11163     11165     11215     11165     11215     11218     11219
     11165     11215     11218     11220     11165     11215     11218     11221
     11166     11165     11215     11216     11166     11165     11215     11217
     11166     11165     11215     11218     11167     11165     11215     11216
     11167     11165     11215     11217     11167     11165     11215     11218
     11168     11171     11174     11175     11168     11171     11174     11176
     11168     11171     11174     11177     11169     11168     11171     11172
     11169     11168     11171     11173     11169     11168     11171     11174
     11170     11168     11171     11172     11170     11168     11171     11173
     11170     11168     11171     11174     11171     11174     11177     11178
     11171     11174     11177     11179     11171     11174     11177     11180
     11172     11171     11174     11175     11172     11171     11174     11176
     11172     11171     11174     11177     11173     11171     11174     11175
     11173     11171     11174     11176     11173     11171     11174     11177
     11174     11177     11180     11181     11174     11177     11180     11182
     11174     11177     11180     11183     11175     11174     11177     11178
     11175     11174     11177     11179     11175     11174     11177     11180
     11176     11174     11177     11178     11176     11174     11177     11179
     11176     11174     11177     11180     11177     11180     11183     11184
     11177     11180     11183     11185     11177     11180     11183     11186
     11178     11177     11180     11181     11178     11177     11180     11182
     11178     11177     11180     11183     11179     11177     11180     11181
     11179     11177     11180     11182     11179     11177     11180     11183
     11180     11183     11186     11187     11180     11183     11186     11188
     11181     11180     11183     11184     11181     11180     11183     11185
     11181     11180     11183     11186     11182     11180     11183     11184
     11182     11180     11183     11185     11182     11180     11183     11186
     11183     11186     11188     11189     11183     11186     11188     11190
     11184     11183     11186     11187     11184     11183     11186     11188
     11185     11183     11186     11187     11185     11183     11186     11188
     11186     11188     11190     11191     11186     11188     11190     11192
     11186     11188     11190     11193     11187     11186     11188     11189
     11187     11186     11188     11190     11188     11190     11193     11194
     11188     11190     11193     11195     11188     11190     11193     11196
     11189     11188     11190     11191     11189     11188     11190     11192
     11189     11188     11190     11193     11190     11193     11196     11197
     11190     11193     11196     11198     11190     11193     11196     11199
     11191     11190     11193     11194     11191     11190     11193     11195
     11191     11190     11193     11196     11192     11190     11193     11194
     11192     11190     11193     11195     11192     11190     11193     11196
     11193     11196     11199     11200     11193     11196     11199     11201
     11193     11196     11199     11202     11194     11193     11196     11197
     11194     11193     11196     11198     11194     11193     11196     11199
     11195     11193     11196     11197     11195     11193     11196     11198
     11195     11193     11196     11199     11196     11199     11202     11203
     11196     11199     11202     11204     11196     11199     11202     11205
     11197     11196     11199     11200     11197     11196     11199     11201
     11197     11196     11199     11202     11198     11196     11199     11200
     11198     11196     11199     11201     11198     11196     11199     11202
     11199     11202     11205     11206     11199     11202     11205     11207
     11199     11202     11205     11208     11200     11199     11202     11203
     11200     11199     11202     11204     11200     11199     11202     11205
     11201     11199     11202     11203     11201     11199     11202     11204
     11201     11199     11202     11205     11202     11205     11208     11209
     11202     11205     11208     11210     11202     11205     11208     11211
     11203     11202     11205     11206     11203     11202     11205     11207
     11203     11202     11205     11208     11204     11202     11205     11206
     11204     11202     11205     11207     11204     11202     11205     11208
     11205     11208     11211     11212     11205     11208     11211     11213
     11205     11208     11211     11214     11206     11205     11208     11209
     11206     11205     11208     11210     11206     11205     11208     11211
     11207     11205     11208     11209     11207     11205     11208     11210
     11207     11205     11208     11211     11209     11208     11211     11212
     11209     11208     11211     11213     11209     11208     11211     11214
     11210     11208     11211     11212     11210     11208     11211     11213
     11210     11208     11211     11214     11215     11218     11221     11222
     11215     11218     11221     11223     11215     11218     11221     11224
     11216     11215     11218     11219     11216     11215     11218     11220
     11216     11215     11218     11221     11217     11215     11218     11219
     11217     11215     11218     11220     11217     11215     11218     11221
     11218     11221     11224     11225     11218     11221     11224     11226
     11218     11221     11224     11227     11219     11218     11221     11222
     11219     11218     11221     11223     11219     11218     11221     11224
     11220     11218     11221     11222     11220     11218     11221     11223
     11220     11218     11221     11224     11221     11224     11227     11228
     11221     11224     11227     11229     11221     11224     11227     11230
     11222     11221     11224     11225     11222     11221     11224     11226
     11222     11221     11224     11227     11223     11221     11224     11225
     11223     11221     11224     11226     11223     11221     11224     11227
     11224     11227     11230     11231     11224     11227     11230     11232
     11224     11227     11230     11233     11225     11224     11227     11228
     11225     11224     11227     11229     11225     11224     11227     11230
     11226     11224     11227     11228     11226     11224     11227     11229
     11226     11224     11227     11230     11227     11230     11233     11234
     11227     11230     11233     11235     11227     11230     11233     11236
     11228     11227     11230     11231     11228     11227     11230     11232
     11228     11227     11230     11233     11229     11227     11230     11231
     11229     11227     11230     11232     11229     11227     11230     11233
     11230     11233     11236     11237     11230     11233     11236     11238
     11230     11233     11236     11239     11231     11230     11233     11234
     11231     11230     11233     11235     11231     11230     11233     11236
     11232     11230     11233     11234     11232     11230     11233     11235
     11232     11230     11233     11236     11233     11236     11239     11240
     11233     11236     11239     11241     11233     11236     11239     11242
     11234     11233     11236     11237     11234     11233     11236     11238
     11234     11233     11236     11239     11235     11233     11236     11237
     11235     11233     11236     11238     11235     11233     11236     11239
     11236     11239     11242     11243     11236     11239     11242     11244
     11236     11239     11242     11245     11237     11236     11239     11240
     11237     11236     11239     11241     11237     11236     11239     11242
     11238     11236     11239     11240     11238     11236     11239     11241
     11238     11236     11239     11242     11239     11242     11245     11246
     11239     11242     11245     11247     11239     11242     11245     11248
     11240     11239     11242     11243     11240     11239     11242     11244
     11240     11239     11242     11245     11241     11239     11242     11243
     11241     11239     11242     11244     11241     11239     11242     11245
     11242     11245     11248     11249     11242     11245     11248     11250
     11242     11245     11248     11251     11243     11242     11245     11246
     11243     11242     11245     11247     11243     11242     11245     11248
     11244     11242     11245     11246     11244     11242     11245     11247
     11244     11242     11245     11248     11245     11248     11251     11252
     11245     11248     11251     11253     11245     11248     11251     11254
     11246     11245     11248     11249     11246     11245     11248     11250
     11246     11245     11248     11251     11247     11245     11248     11249
     11247     11245     11248     11250     11247     11245     11248     11251
     11248     11251     11254     11255     11248     11251     11254     11256
     11248     11251     11254     11257     11249     11248     11251     11252
     11249     11248     11251     11253     11249     11248     11251     11254
     11250     11248     11251     11252     11250     11248     11251     11253
     11250     11248     11251     11254     11252     11251     11254     11255
     11252     11251     11254     11256     11252     11251     11254     11257
     11253     11251     11254     11255     11253     11251     11254     11256
     11253     11251     11254     11257     11258     11259     11274     11275
     11258     11259     11274     11276     11258     11259     11274     11280
     11259     11258     11262     11263     11259     11258     11262     11264
     11259     11258     11262     11265     11259     11258     11266     11267
     11259     11258     11266     11268     11259     11258     11266     11269
     11259     11258     11270     11271     11259     11258     11270     11272
     11259     11258     11270     11273     11259     11274     11280     11277
     11260     11259     11258     11262     11260     11259     11258     11266
     11260     11259     11258     11270     11260     11259     11274     11275
     11260     11259     11274     11276     11260     11259     11274     11280
     11261     11259     11258     11262     11261     11259     11258     11266
     11261     11259     11258     11270     11261     11259     11274     11275
     11261     11259     11274     11276     11261     11259     11274     11280
     11262     11258     11259     11274     11262     11258     11266     11267
     11262     11258     11266     11268     11262     11258     11266     11269
     11262     11258     11270     11271     11262     11258     11270     11272
     11262     11258     11270     11273     11263     11262     11258     11266
     11263     11262     11258     11270     11264     11262     11258     11266
     11264     11262     11258     11270     11265     11262     11258     11266
     11265     11262     11258     11270     11266     11258     11259     11274
     11266     11258     11270     11271     11266     11258     11270     11272
     11266     11258     11270     11273     11267     11266     11258     11270
     11268     11266     11258     11270     11269     11266     11258     11270
     11270     11258     11259     11274     11274     11280     11277     11278
     11274     11280     11277     11279     11274     11280     11277     11281
     11275     11274     11280     11277     11276     11274     11280     11277
     11277     11281     11282     11283     11277     11281     11282     11284
     11277     11281     11282     11285     11278     11277     11281     11282
     11279     11277     11281     11282     11280     11277     11281     11282
     11281     11282     11285     11286     11281     11282     11285     11287
     11281     11282     11285     11293     11282     11285     11287     11288
     11282     11285     11293     11294     11282     11285     11293     11295
     11282     11285     11293     11296     11283     11282     11285     11286
     11283     11282     11285     11287     11283     11282     11285     11293
     11284     11282     11285     11286     11284     11282     11285     11287
     11284     11282     11285     11293     11285     11287     11288     11289
     11285     11287     11288     11290     11285     11293     11296     11297
     11286     11285     11287     11288     11286     11285     11293     11294
     11286     11285     11293     11295     11286     11285     11293     11296
     11287     11285     11293     11294     11287     11285     11293     11295
     11287     11285     11293     11296     11287     11288     11290     11291
     11287     11288     11290     11292     11287     11288     11290     11302
     11288     11287     11285     11293     11288     11290     11302     11303
     11288     11290     11302     11304     11288     11290     11302     11305
     11289     11288     11290     11291     11289     11288     11290     11292
     11289     11288     11290     11302     11290     11302     11305     11306
     11290     11302     11305     11307     11290     11302     11305     11308
     11291     11290     11302     11303     11291     11290     11302     11304
     11291     11290     11302     11305     11292     11290     11302     11303
     11292     11290     11302     11304     11292     11290     11302     11305
     11293     11296     11297     11298     11293     11296     11297     11299
     11294     11293     11296     11297     11295     11293     11296     11297
     11296     11297     11299     11300     11296     11297     11299     11301
     11296     11297     11299     11349     11297     11299     11349     11350
     11297     11299     11349     11351     11297     11299     11349     11352
     11298     11297     11299     11300     11298     11297     11299     11301
     11298     11297     11299     11349     11299     11349     11352     11353
     11299     11349     11352     11354     11299     11349     11352     11355
     11300     11299     11349     11350     11300     11299     11349     11351
     11300     11299     11349     11352     11301     11299     11349     11350
     11301     11299     11349     11351     11301     11299     11349     11352
     11302     11305     11308     11309     11302     11305     11308     11310
     11302     11305     11308     11311     11303     11302     11305     11306
     11303     11302     11305     11307     11303     11302     11305     11308
     11304     11302     11305     11306     11304     11302     11305     11307
     11304     11302     11305     11308     11305     11308     11311     11312
     11305     11308     11311     11313     11305     11308     11311     11314
     11306     11305     11308     11309     11306     11305     11308     11310
     11306     11305     11308     11311     11307     11305     11308     11309
     11307     11305     11308     11310     11307     11305     11308     11311
     11308     11311     11314     11315     11308     11311     11314     11316
     11308     11311     11314     11317     11309     11308     11311     11312
     11309     11308     11311     11313     11309     11308     11311     11314
     11310     11308     11311     11312     11310     11308     11311     11313
     11310     11308     11311     11314     11311     11314     11317     11318
     11311     11314     11317     11319     11311     11314     11317     11320
     11312     11311     11314     11315     11312     11311     11314     11316
     11312     11311     11314     11317     11313     11311     11314     11315
     11313     11311     11314     11316     11313     11311     11314     11317
     11314     11317     11320     11321     11314     11317     11320     11322
     11315     11314     11317     11318     11315     11314     11317     11319
     11315     11314     11317     11320     11316     11314     11317     11318
     11316     11314     11317     11319     11316     11314     11317     11320
     11317     11320     11322     11323     11317     11320     11322     11324
     11318     11317     11320     11321     11318     11317     11320     11322
     11319     11317     11320     11321     11319     11317     11320     11322
     11320     11322     11324     11325     11320     11322     11324     11326
     11320     11322     11324     11327     11321     11320     11322     11323
     11321     11320     11322     11324     11322     11324     11327     11328
     11322     11324     11327     11329     11322     11324     11327     11330
     11323     11322     11324     11325     11323     11322     11324     11326
     11323     11322     11324     11327     11324     11327     11330     11331
     11324     11327     11330     11332     11324     11327     11330     11333
     11325     11324     11327     11328     11325     11324     11327     11329
     11325     11324     11327     11330     11326     11324     11327     11328
     11326     11324     11327     11329     11326     11324     11327     11330
     11327     11330     11333     11334     11327     11330     11333     11335
     11327     11330     11333     11336     11328     11327     11330     11331
     11328     11327     11330     11332     11328     11327     11330     11333
     11329     11327     11330     11331     11329     11327     11330     11332
     11329     11327     11330     11333     11330     11333     11336     11337
     11330     11333     11336     11338     11330     11333     11336     11339
     11331     11330     11333     11334     11331     11330     11333     11335
     11331     11330     11333     11336     11332     11330     11333     11334
     11332     11330     11333     11335     11332     11330     11333     11336
     11333     11336     11339     11340     11333     11336     11339     11341
     11333     11336     11339     11342     11334     11333     11336     11337
     11334     11333     11336     11338     11334     11333     11336     11339
     11335     11333     11336     11337     11335     11333     11336     11338
     11335     11333     11336     11339     11336     11339     11342     11343
     11336     11339     11342     11344     11336     11339     11342     11345
     11337     11336     11339     11340     11337     11336     11339     11341
     11337     11336     11339     11342     11338     11336     11339     11340
     11338     11336     11339     11341     11338     11336     11339     11342
     11339     11342     11345     11346     11339     11342     11345     11347
     11339     11342     11345     11348     11340     11339     11342     11343
     11340     11339     11342     11344     11340     11339     11342     11345
     11341     11339     11342     11343     11341     11339     11342     11344
     11341     11339     11342     11345     11343     11342     11345     11346
     11343     11342     11345     11347     11343     11342     11345     11348
     11344     11342     11345     11346     11344     11342     11345     11347
     11344     11342     11345     11348     11349     11352     11355     11356
     11349     11352     11355     11357     11349     11352     11355     11358
     11350     11349     11352     11353     11350     11349     11352     11354
     11350     11349     11352     11355     11351     11349     11352     11353
     11351     11349     11352     11354     11351     11349     11352     11355
     11352     11355     11358     11359     11352     11355     11358     11360
     11352     11355     11358     11361     11353     11352     11355     11356
     11353     11352     11355     11357     11353     11352     11355     11358
     11354     11352     11355     11356     11354     11352     11355     11357
     11354     11352     11355     11358     11355     11358     11361     11362
     11355     11358     11361     11363     11355     11358     11361     11364
     11356     11355     11358     11359     11356     11355     11358     11360
     11356     11355     11358     11361     11357     11355     11358     11359
     11357     11355     11358     11360     11357     11355     11358     11361
     11358     11361     11364     11365     11358     11361     11364     11366
     11358     11361     11364     11367     11359     11358     11361     11362
     11359     11358     11361     11363     11359     11358     11361     11364
     11360     11358     11361     11362     11360     11358     11361     11363
     11360     11358     11361     11364     11361     11364     11367     11368
     11361     11364     11367     11369     11361     11364     11367     11370
     11362     11361     11364     11365     11362     11361     11364     11366
     11362     11361     11364     11367     11363     11361     11364     11365
     11363     11361     11364     11366     11363     11361     11364     11367
     11364     11367     11370     11371     11364     11367     11370     11372
     11364     11367     11370     11373     11365     11364     11367     11368
     11365     11364     11367     11369     11365     11364     11367     11370
     11366     11364     11367     11368     11366     11364     11367     11369
     11366     11364     11367     11370     11367     11370     11373     11374
     11367     11370     11373     11375     11367     11370     11373     11376
     11368     11367     11370     11371     11368     11367     11370     11372
     11368     11367     11370     11373     11369     11367     11370     11371
     11369     11367     11370     11372     11369     11367     11370     11373
     11370     11373     11376     11377     11370     11373     11376     11378
     11370     11373     11376     11379     11371     11370     11373     11374
     11371     11370     11373     11375     11371     11370     11373     11376
     11372     11370     11373     11374     11372     11370     11373     11375
     11372     11370     11373     11376     11373     11376     11379     11380
     11373     11376     11379     11381     11373     11376     11379     11382
     11374     11373     11376     11377     11374     11373     11376     11378
     11374     11373     11376     11379     11375     11373     11376     11377
     11375     11373     11376     11378     11375     11373     11376     11379
     11376     11379     11382     11383     11376     11379     11382     11384
     11376     11379     11382     11385     11377     11376     11379     11380
     11377     11376     11379     11381     11377     11376     11379     11382
     11378     11376     11379     11380     11378     11376     11379     11381
     11378     11376     11379     11382     11379     11382     11385     11386
     11379     11382     11385     11387     11379     11382     11385     11388
     11380     11379     11382     11383     11380     11379     11382     11384
     11380     11379     11382     11385     11381     11379     11382     11383
     11381     11379     11382     11384     11381     11379     11382     11385
     11382     11385     11388     11389     11382     11385     11388     11390
     11382     11385     11388     11391     11383     11382     11385     11386
     11383     11382     11385     11387     11383     11382     11385     11388
     11384     11382     11385     11386     11384     11382     11385     11387
     11384     11382     11385     11388     11386     11385     11388     11389
     11386     11385     11388     11390     11386     11385     11388     11391
     11387     11385     11388     11389     11387     11385     11388     11390
     11387     11385     11388     11391     11392     11393     11408     11409
     11392     11393     11408     11410     11392     11393     11408     11414
     11393     11392     11396     11397     11393     11392     11396     11398
     11393     11392     11396     11399     11393     11392     11400     11401
     11393     11392     11400     11402     11393     11392     11400     11403
     11393     11392     11404     11405     11393     11392     11404     11406
     11393     11392     11404     11407     11393     11408     11414     11411
     11394     11393     11392     11396     11394     11393     11392     11400
     11394     11393     11392     11404     11394     11393     11408     11409
     11394     11393     11408     11410     11394     11393     11408     11414
     11395     11393     11392     11396     11395     11393     11392     11400
     11395     11393     11392     11404     11395     11393     11408     11409
     11395     11393     11408     11410     11395     11393     11408     11414
     11396     11392     11393     11408     11396     11392     11400     11401
     11396     11392     11400     11402     11396     11392     11400     11403
     11396     11392     11404     11405     11396     11392     11404     11406
     11396     11392     11404     11407     11397     11396     11392     11400
     11397     11396     11392     11404     11398     11396     11392     11400
     11398     11396     11392     11404     11399     11396     11392     11400
     11399     11396     11392     11404     11400     11392     11393     11408
     11400     11392     11404     11405     11400     11392     11404     11406
     11400     11392     11404     11407     11401     11400     11392     11404
     11402     11400     11392     11404     11403     11400     11392     11404
     11404     11392     11393     11408     11408     11414     11411     11412
     11408     11414     11411     11413     11408     11414     11411     11415
     11409     11408     11414     11411     11410     11408     11414     11411
     11411     11415     11416     11417     11411     11415     11416     11418
     11411     11415     11416     11419     11412     11411     11415     11416
     11413     11411     11415     11416     11414     11411     11415     11416
     11415     11416     11419     11420     11415     11416     11419     11421
     11415     11416     11419     11427     11416     11419     11421     11422
     11416     11419     11427     11428     11416     11419     11427     11429
     11416     11419     11427     11430     11417     11416     11419     11420
     11417     11416     11419     11421     11417     11416     11419     11427
     11418     11416     11419     11420     11418     11416     11419     11421
     11418     11416     11419     11427     11419     11421     11422     11423
     11419     11421     11422     11424     11419     11427     11430     11431
     11420     11419     11421     11422     11420     11419     11427     11428
     11420     11419     11427     11429     11420     11419     11427     11430
     11421     11419     11427     11428     11421     11419     11427     11429
     11421     11419     11427     11430     11421     11422     11424     11425
     11421     11422     11424     11426     11421     11422     11424     11436
     11422     11421     11419     11427     11422     11424     11436     11437
     11422     11424     11436     11438     11422     11424     11436     11439
     11423     11422     11424     11425     11423     11422     11424     11426
     11423     11422     11424     11436     11424     11436     11439     11440
     11424     11436     11439     11441     11424     11436     11439     11442
     11425     11424     11436     11437     11425     11424     11436     11438
     11425     11424     11436     11439     11426     11424     11436     11437
     11426     11424     11436     11438     11426     11424     11436     11439
     11427     11430     11431     11432     11427     11430     11431     11433
     11428     11427     11430     11431     11429     11427     11430     11431
     11430     11431     11433     11434     11430     11431     11433     11435
     11430     11431     11433     11483     11431     11433     11483     11484
     11431     11433     11483     11485     11431     11433     11483     11486
     11432     11431     11433     11434     11432     11431     11433     11435
     11432     11431     11433     11483     11433     11483     11486     11487
     11433     11483     11486     11488     11433     11483     11486     11489
     11434     11433     11483     11484     11434     11433     11483     11485
     11434     11433     11483     11486     11435     11433     11483     11484
     11435     11433     11483     11485     11435     11433     11483     11486
     11436     11439     11442     11443     11436     11439     11442     11444
     11436     11439     11442     11445     11437     11436     11439     11440
     11437     11436     11439     11441     11437     11436     11439     11442
     11438     11436     11439     11440     11438     11436     11439     11441
     11438     11436     11439     11442     11439     11442     11445     11446
     11439     11442     11445     11447     11439     11442     11445     11448
     11440     11439     11442     11443     11440     11439     11442     11444
     11440     11439     11442     11445     11441     11439     11442     11443
     11441     11439     11442     11444     11441     11439     11442     11445
     11442     11445     11448     11449     11442     11445     11448     11450
     11442     11445     11448     11451     11443     11442     11445     11446
     11443     11442     11445     11447     11443     11442     11445     11448
     11444     11442     11445     11446     11444     11442     11445     11447
     11444     11442     11445     11448     11445     11448     11451     11452
     11445     11448     11451     11453     11445     11448     11451     11454
     11446     11445     11448     11449     11446     11445     11448     11450
     11446     11445     11448     11451     11447     11445     11448     11449
     11447     11445     11448     11450     11447     11445     11448     11451
     11448     11451     11454     11455     11448     11451     11454     11456
     11449     11448     11451     11452     11449     11448     11451     11453
     11449     11448     11451     11454     11450     11448     11451     11452
     11450     11448     11451     11453     11450     11448     11451     11454
     11451     11454     11456     11457     11451     11454     11456     11458
     11452     11451     11454     11455     11452     11451     11454     11456
     11453     11451     11454     11455     11453     11451     11454     11456
     11454     11456     11458     11459     11454     11456     11458     11460
     11454     11456     11458     11461     11455     11454     11456     11457
     11455     11454     11456     11458     11456     11458     11461     11462
     11456     11458     11461     11463     11456     11458     11461     11464
     11457     11456     11458     11459     11457     11456     11458     11460
     11457     11456     11458     11461     11458     11461     11464     11465
     11458     11461     11464     11466     11458     11461     11464     11467
     11459     11458     11461     11462     11459     11458     11461     11463
     11459     11458     11461     11464     11460     11458     11461     11462
     11460     11458     11461     11463     11460     11458     11461     11464
     11461     11464     11467     11468     11461     11464     11467     11469
     11461     11464     11467     11470     11462     11461     11464     11465
     11462     11461     11464     11466     11462     11461     11464     11467
     11463     11461     11464     11465     11463     11461     11464     11466
     11463     11461     11464     11467     11464     11467     11470     11471
     11464     11467     11470     11472     11464     11467     11470     11473
     11465     11464     11467     11468     11465     11464     11467     11469
     11465     11464     11467     11470     11466     11464     11467     11468
     11466     11464     11467     11469     11466     11464     11467     11470
     11467     11470     11473     11474     11467     11470     11473     11475
     11467     11470     11473     11476     11468     11467     11470     11471
     11468     11467     11470     11472     11468     11467     11470     11473
     11469     11467     11470     11471     11469     11467     11470     11472
     11469     11467     11470     11473     11470     11473     11476     11477
     11470     11473     11476     11478     11470     11473     11476     11479
     11471     11470     11473     11474     11471     11470     11473     11475
     11471     11470     11473     11476     11472     11470     11473     11474
     11472     11470     11473     11475     11472     11470     11473     11476
     11473     11476     11479     11480     11473     11476     11479     11481
     11473     11476     11479     11482     11474     11473     11476     11477
     11474     11473     11476     11478     11474     11473     11476     11479
     11475     11473     11476     11477     11475     11473     11476     11478
     11475     11473     11476     11479     11477     11476     11479     11480
     11477     11476     11479     11481     11477     11476     11479     11482
     11478     11476     11479     11480     11478     11476     11479     11481
     11478     11476     11479     11482     11483     11486     11489     11490
     11483     11486     11489     11491     11483     11486     11489     11492
     11484     11483     11486     11487     11484     11483     11486     11488
     11484     11483     11486     11489     11485     11483     11486     11487
     11485     11483     11486     11488     11485     11483     11486     11489
     11486     11489     11492     11493     11486     11489     11492     11494
     11486     11489     11492     11495     11487     11486     11489     11490
     11487     11486     11489     11491     11487     11486     11489     11492
     11488     11486     11489     11490     11488     11486     11489     11491
     11488     11486     11489     11492     11489     11492     11495     11496
     11489     11492     11495     11497     11489     11492     11495     11498
     11490     11489     11492     11493     11490     11489     11492     11494
     11490     11489     11492     11495     11491     11489     11492     11493
     11491     11489     11492     11494     11491     11489     11492     11495
     11492     11495     11498     11499     11492     11495     11498     11500
     11492     11495     11498     11501     11493     11492     11495     11496
     11493     11492     11495     11497     11493     11492     11495     11498
     11494     11492     11495     11496     11494     11492     11495     11497
     11494     11492     11495     11498     11495     11498     11501     11502
     11495     11498     11501     11503     11495     11498     11501     11504
     11496     11495     11498     11499     11496     11495     11498     11500
     11496     11495     11498     11501     11497     11495     11498     11499
     11497     11495     11498     11500     11497     11495     11498     11501
     11498     11501     11504     11505     11498     11501     11504     11506
     11498     11501     11504     11507     11499     11498     11501     11502
     11499     11498     11501     11503     11499     11498     11501     11504
     11500     11498     11501     11502     11500     11498     11501     11503
     11500     11498     11501     11504     11501     11504     11507     11508
     11501     11504     11507     11509     11501     11504     11507     11510
     11502     11501     11504     11505     11502     11501     11504     11506
     11502     11501     11504     11507     11503     11501     11504     11505
     11503     11501     11504     11506     11503     11501     11504     11507
     11504     11507     11510     11511     11504     11507     11510     11512
     11504     11507     11510     11513     11505     11504     11507     11508
     11505     11504     11507     11509     11505     11504     11507     11510
     11506     11504     11507     11508     11506     11504     11507     11509
     11506     11504     11507     11510     11507     11510     11513     11514
     11507     11510     11513     11515     11507     11510     11513     11516
     11508     11507     11510     11511     11508     11507     11510     11512
     11508     11507     11510     11513     11509     11507     11510     11511
     11509     11507     11510     11512     11509     11507     11510     11513
     11510     11513     11516     11517     11510     11513     11516     11518
     11510     11513     11516     11519     11511     11510     11513     11514
     11511     11510     11513     11515     11511     11510     11513     11516
     11512     11510     11513     11514     11512     11510     11513     11515
     11512     11510     11513     11516     11513     11516     11519     11520
     11513     11516     11519     11521     11513     11516     11519     11522
     11514     11513     11516     11517     11514     11513     11516     11518
     11514     11513     11516     11519     11515     11513     11516     11517
     11515     11513     11516     11518     11515     11513     11516     11519
     11516     11519     11522     11523     11516     11519     11522     11524
     11516     11519     11522     11525     11517     11516     11519     11520
     11517     11516     11519     11521     11517     11516     11519     11522
     11518     11516     11519     11520     11518     11516     11519     11521
     11518     11516     11519     11522     11520     11519     11522     11523
     11520     11519     11522     11524     11520     11519     11522     11525
     11521     11519     11522     11523     11521     11519     11522     11524
     11521     11519     11522     11525     11526     11527     11542     11543
     11526     11527     11542     11544     11526     11527     11542     11548
     11527     11526     11530     11531     11527     11526     11530     11532
     11527     11526     11530     11533     11527     11526     11534     11535
     11527     11526     11534     11536     11527     11526     11534     11537
     11527     11526     11538     11539     11527     11526     11538     11540
     11527     11526     11538     11541     11527     11542     11548     11545
     11528     11527     11526     11530     11528     11527     11526     11534
     11528     11527     11526     11538     11528     11527     11542     11543
     11528     11527     11542     11544     11528     11527     11542     11548
     11529     11527     11526     11530     11529     11527     11526     11534
     11529     11527     11526     11538     11529     11527     11542     11543
     11529     11527     11542     11544     11529     11527     11542     11548
     11530     11526     11527     11542     11530     11526     11534     11535
     11530     11526     11534     11536     11530     11526     11534     11537
     11530     11526     11538     11539     11530     11526     11538     11540
     11530     11526     11538     11541     11531     11530     11526     11534
     11531     11530     11526     11538     11532     11530     11526     11534
     11532     11530     11526     11538     11533     11530     11526     11534
     11533     11530     11526     11538     11534     11526     11527     11542
     11534     11526     11538     11539     11534     11526     11538     11540
     11534     11526     11538     11541     11535     11534     11526     11538
     11536     11534     11526     11538     11537     11534     11526     11538
     11538     11526     11527     11542     11542     11548     11545     11546
     11542     11548     11545     11547     11542     11548     11545     11549
     11543     11542     11548     11545     11544     11542     11548     11545
     11545     11549     11550     11551     11545     11549     11550     11552
     11545     11549     11550     11553     11546     11545     11549     11550
     11547     11545     11549     11550     11548     11545     11549     11550
     11549     11550     11553     11554     11549     11550     11553     11555
     11549     11550     11553     11561     11550     11553     11555     11556
     11550     11553     11561     11562     11550     11553     11561     11563
     11550     11553     11561     11564     11551     11550     11553     11554
     11551     11550     11553     11555     11551     11550     11553     11561
     11552     11550     11553     11554     11552     11550     11553     11555
     11552     11550     11553     11561     11553     11555     11556     11557
     11553     11555     11556     11558     11553     11561     11564     11565
     11554     11553     11555     11556     11554     11553     11561     11562
     11554     11553     11561     11563     11554     11553     11561     11564
     11555     11553     11561     11562     11555     11553     11561     11563
     11555     11553     11561     11564     11555     11556     11558     11559
     11555     11556     11558     11560     11555     11556     11558     11570
     11556     11555     11553     11561     11556     11558     11570     11571
     11556     11558     11570     11572     11556     11558     11570     11573
     11557     11556     11558     11559     11557     11556     11558     11560
     11557     11556     11558     11570     11558     11570     11573     11574
     11558     11570     11573     11575     11558     11570     11573     11576
     11559     11558     11570     11571     11559     11558     11570     11572
     11559     11558     11570     11573     11560     11558     11570     11571
     11560     11558     11570     11572     11560     11558     11570     11573
     11561     11564     11565     11566     11561     11564     11565     11567
     11562     11561     11564     11565     11563     11561     11564     11565
     11564     11565     11567     11568     11564     11565     11567     11569
     11564     11565     11567     11617     11565     11567     11617     11618
     11565     11567     11617     11619     11565     11567     11617     11620
     11566     11565     11567     11568     11566     11565     11567     11569
     11566     11565     11567     11617     11567     11617     11620     11621
     11567     11617     11620     11622     11567     11617     11620     11623
     11568     11567     11617     11618     11568     11567     11617     11619
     11568     11567     11617     11620     11569     11567     11617     11618
     11569     11567     11617     11619     11569     11567     11617     11620
     11570     11573     11576     11577     11570     11573     11576     11578
     11570     11573     11576     11579     11571     11570     11573     11574
     11571     11570     11573     11575     11571     11570     11573     11576
     11572     11570     11573     11574     11572     11570     11573     11575
     11572     11570     11573     11576     11573     11576     11579     11580
     11573     11576     11579     11581     11573     11576     11579     11582
     11574     11573     11576     11577     11574     11573     11576     11578
     11574     11573     11576     11579     11575     11573     11576     11577
     11575     11573     11576     11578     11575     11573     11576     11579
     11576     11579     11582     11583     11576     11579     11582     11584
     11576     11579     11582     11585     11577     11576     11579     11580
     11577     11576     11579     11581     11577     11576     11579     11582
     11578     11576     11579     11580     11578     11576     11579     11581
     11578     11576     11579     11582     11579     11582     11585     11586
     11579     11582     11585     11587     11579     11582     11585     11588
     11580     11579     11582     11583     11580     11579     11582     11584
     11580     11579     11582     11585     11581     11579     11582     11583
     11581     11579     11582     11584     11581     11579     11582     11585
     11582     11585     11588     11589     11582     11585     11588     11590
     11583     11582     11585     11586     11583     11582     11585     11587
     11583     11582     11585     11588     11584     11582     11585     11586
     11584     11582     11585     11587     11584     11582     11585     11588
     11585     11588     11590     11591     11585     11588     11590     11592
     11586     11585     11588     11589     11586     11585     11588     11590
     11587     11585     11588     11589     11587     11585     11588     11590
     11588     11590     11592     11593     11588     11590     11592     11594
     11588     11590     11592     11595     11589     11588     11590     11591
     11589     11588     11590     11592     11590     11592     11595     11596
     11590     11592     11595     11597     11590     11592     11595     11598
     11591     11590     11592     11593     11591     11590     11592     11594
     11591     11590     11592     11595     11592     11595     11598     11599
     11592     11595     11598     11600     11592     11595     11598     11601
     11593     11592     11595     11596     11593     11592     11595     11597
     11593     11592     11595     11598     11594     11592     11595     11596
     11594     11592     11595     11597     11594     11592     11595     11598
     11595     11598     11601     11602     11595     11598     11601     11603
     11595     11598     11601     11604     11596     11595     11598     11599
     11596     11595     11598     11600     11596     11595     11598     11601
     11597     11595     11598     11599     11597     11595     11598     11600
     11597     11595     11598     11601     11598     11601     11604     11605
     11598     11601     11604     11606     11598     11601     11604     11607
     11599     11598     11601     11602     11599     11598     11601     11603
     11599     11598     11601     11604     11600     11598     11601     11602
     11600     11598     11601     11603     11600     11598     11601     11604
     11601     11604     11607     11608     11601     11604     11607     11609
     11601     11604     11607     11610     11602     11601     11604     11605
     11602     11601     11604     11606     11602     11601     11604     11607
     11603     11601     11604     11605     11603     11601     11604     11606
     11603     11601     11604     11607     11604     11607     11610     11611
     11604     11607     11610     11612     11604     11607     11610     11613
     11605     11604     11607     11608     11605     11604     11607     11609
     11605     11604     11607     11610     11606     11604     11607     11608
     11606     11604     11607     11609     11606     11604     11607     11610
     11607     11610     11613     11614     11607     11610     11613     11615
     11607     11610     11613     11616     11608     11607     11610     11611
     11608     11607     11610     11612     11608     11607     11610     11613
     11609     11607     11610     11611     11609     11607     11610     11612
     11609     11607     11610     11613     11611     11610     11613     11614
     11611     11610     11613     11615     11611     11610     11613     11616
     11612     11610     11613     11614     11612     11610     11613     11615
     11612     11610     11613     11616     11617     11620     11623     11624
     11617     11620     11623     11625     11617     11620     11623     11626
     11618     11617     11620     11621     11618     11617     11620     11622
     11618     11617     11620     11623     11619     11617     11620     11621
     11619     11617     11620     11622     11619     11617     11620     11623
     11620     11623     11626     11627     11620     11623     11626     11628
     11620     11623     11626     11629     11621     11620     11623     11624
     11621     11620     11623     11625     11621     11620     11623     11626
     11622     11620     11623     11624     11622     11620     11623     11625
     11622     11620     11623     11626     11623     11626     11629     11630
     11623     11626     11629     11631     11623     11626     11629     11632
     11624     11623     11626     11627     11624     11623     11626     11628
     11624     11623     11626     11629     11625     11623     11626     11627
     11625     11623     11626     11628     11625     11623     11626     11629
     11626     11629     11632     11633     11626     11629     11632     11634
     11626     11629     11632     11635     11627     11626     11629     11630
     11627     11626     11629     11631     11627     11626     11629     11632
     11628     11626     11629     11630     11628     11626     11629     11631
     11628     11626     11629     11632     11629     11632     11635     11636
     11629     11632     11635     11637     11629     11632     11635     11638
     11630     11629     11632     11633     11630     11629     11632     11634
     11630     11629     11632     11635     11631     11629     11632     11633
     11631     11629     11632     11634     11631     11629     11632     11635
     11632     11635     11638     11639     11632     11635     11638     11640
     11632     11635     11638     11641     11633     11632     11635     11636
     11633     11632     11635     11637     11633     11632     11635     11638
     11634     11632     11635     11636     11634     11632     11635     11637
     11634     11632     11635     11638     11635     11638     11641     11642
     11635     11638     11641     11643     11635     11638     11641     11644
     11636     11635     11638     11639     11636     11635     11638     11640
     11636     11635     11638     11641     11637     11635     11638     11639
     11637     11635     11638     11640     11637     11635     11638     11641
     11638     11641     11644     11645     11638     11641     11644     11646
     11638     11641     11644     11647     11639     11638     11641     11642
     11639     11638     11641     11643     11639     11638     11641     11644
     11640     11638     11641     11642     11640     11638     11641     11643
     11640     11638     11641     11644     11641     11644     11647     11648
     11641     11644     11647     11649     11641     11644     11647     11650
     11642     11641     11644     11645     11642     11641     11644     11646
     11642     11641     11644     11647     11643     11641     11644     11645
     11643     11641     11644     11646     11643     11641     11644     11647
     11644     11647     11650     11651     11644     11647     11650     11652
     11644     11647     11650     11653     11645     11644     11647     11648
     11645     11644     11647     11649     11645     11644     11647     11650
     11646     11644     11647     11648     11646     11644     11647     11649
     11646     11644     11647     11650     11647     11650     11653     11654
     11647     11650     11653     11655     11647     11650     11653     11656
     11648     11647     11650     11651     11648     11647     11650     11652
     11648     11647     11650     11653     11649     11647     11650     11651
     11649     11647     11650     11652     11649     11647     11650     11653
     11650     11653     11656     11657     11650     11653     11656     11658
     11650     11653     11656     11659     11651     11650     11653     11654
     11651     11650     11653     11655     11651     11650     11653     11656
     11652     11650     11653     11654     11652     11650     11653     11655
     11652     11650     11653     11656     11654     11653     11656     11657
     11654     11653     11656     11658     11654     11653     11656     11659
     11655     11653     11656     11657     11655     11653     11656     11658
     11655     11653     11656     11659     11660     11661     11676     11677
     11660     11661     11676     11678     11660     11661     11676     11682
     11661     11660     11664     11665     11661     11660     11664     11666
     11661     11660     11664     11667     11661     11660     11668     11669
     11661     11660     11668     11670     11661     11660     11668     11671
     11661     11660     11672     11673     11661     11660     11672     11674
     11661     11660     11672     11675     11661     11676     11682     11679
     11662     11661     11660     11664     11662     11661     11660     11668
     11662     11661     11660     11672     11662     11661     11676     11677
     11662     11661     11676     11678     11662     11661     11676     11682
     11663     11661     11660     11664     11663     11661     11660     11668
     11663     11661     11660     11672     11663     11661     11676     11677
     11663     11661     11676     11678     11663     11661     11676     11682
     11664     11660     11661     11676     11664     11660     11668     11669
     11664     11660     11668     11670     11664     11660     11668     11671
     11664     11660     11672     11673     11664     11660     11672     11674
     11664     11660     11672     11675     11665     11664     11660     11668
     11665     11664     11660     11672     11666     11664     11660     11668
     11666     11664     11660     11672     11667     11664     11660     11668
     11667     11664     11660     11672     11668     11660     11661     11676
     11668     11660     11672     11673     11668     11660     11672     11674
     11668     11660     11672     11675     11669     11668     11660     11672
     11670     11668     11660     11672     11671     11668     11660     11672
     11672     11660     11661     11676     11676     11682     11679     11680
     11676     11682     11679     11681     11676     11682     11679     11683
     11677     11676     11682     11679     11678     11676     11682     11679
     11679     11683     11684     11685     11679     11683     11684     11686
     11679     11683     11684     11687     11680     11679     11683     11684
     11681     11679     11683     11684     11682     11679     11683     11684
     11683     11684     11687     11688     11683     11684     11687     11689
     11683     11684     11687     11695     11684     11687     11689     11690
     11684     11687     11695     11696     11684     11687     11695     11697
     11684     11687     11695     11698     11685     11684     11687     11688
     11685     11684     11687     11689     11685     11684     11687     11695
     11686     11684     11687     11688     11686     11684     11687     11689
     11686     11684     11687     11695     11687     11689     11690     11691
     11687     11689     11690     11692     11687     11695     11698     11699
     11688     11687     11689     11690     11688     11687     11695     11696
     11688     11687     11695     11697     11688     11687     11695     11698
     11689     11687     11695     11696     11689     11687     11695     11697
     11689     11687     11695     11698     11689     11690     11692     11693
     11689     11690     11692     11694     11689     11690     11692     11704
     11690     11689     11687     11695     11690     11692     11704     11705
     11690     11692     11704     11706     11690     11692     11704     11707
     11691     11690     11692     11693     11691     11690     11692     11694
     11691     11690     11692     11704     11692     11704     11707     11708
     11692     11704     11707     11709     11692     11704     11707     11710
     11693     11692     11704     11705     11693     11692     11704     11706
     11693     11692     11704     11707     11694     11692     11704     11705
     11694     11692     11704     11706     11694     11692     11704     11707
     11695     11698     11699     11700     11695     11698     11699     11701
     11696     11695     11698     11699     11697     11695     11698     11699
     11698     11699     11701     11702     11698     11699     11701     11703
     11698     11699     11701     11751     11699     11701     11751     11752
     11699     11701     11751     11753     11699     11701     11751     11754
     11700     11699     11701     11702     11700     11699     11701     11703
     11700     11699     11701     11751     11701     11751     11754     11755
     11701     11751     11754     11756     11701     11751     11754     11757
     11702     11701     11751     11752     11702     11701     11751     11753
     11702     11701     11751     11754     11703     11701     11751     11752
     11703     11701     11751     11753     11703     11701     11751     11754
     11704     11707     11710     11711     11704     11707     11710     11712
     11704     11707     11710     11713     11705     11704     11707     11708
     11705     11704     11707     11709     11705     11704     11707     11710
     11706     11704     11707     11708     11706     11704     11707     11709
     11706     11704     11707     11710     11707     11710     11713     11714
     11707     11710     11713     11715     11707     11710     11713     11716
     11708     11707     11710     11711     11708     11707     11710     11712
     11708     11707     11710     11713     11709     11707     11710     11711
     11709     11707     11710     11712     11709     11707     11710     11713
     11710     11713     11716     11717     11710     11713     11716     11718
     11710     11713     11716     11719     11711     11710     11713     11714
     11711     11710     11713     11715     11711     11710     11713     11716
     11712     11710     11713     11714     11712     11710     11713     11715
     11712     11710     11713     11716     11713     11716     11719     11720
     11713     11716     11719     11721     11713     11716     11719     11722
     11714     11713     11716     11717     11714     11713     11716     11718
     11714     11713     11716     11719     11715     11713     11716     11717
     11715     11713     11716     11718     11715     11713     11716     11719
     11716     11719     11722     11723     11716     11719     11722     11724
     11717     11716     11719     11720     11717     11716     11719     11721
     11717     11716     11719     11722     11718     11716     11719     11720
     11718     11716     11719     11721     11718     11716     11719     11722
     11719     11722     11724     11725     11719     11722     11724     11726
     11720     11719     11722     11723     11720     11719     11722     11724
     11721     11719     11722     11723     11721     11719     11722     11724
     11722     11724     11726     11727     11722     11724     11726     11728
     11722     11724     11726     11729     11723     11722     11724     11725
     11723     11722     11724     11726     11724     11726     11729     11730
     11724     11726     11729     11731     11724     11726     11729     11732
     11725     11724     11726     11727     11725     11724     11726     11728
     11725     11724     11726     11729     11726     11729     11732     11733
     11726     11729     11732     11734     11726     11729     11732     11735
     11727     11726     11729     11730     11727     11726     11729     11731
     11727     11726     11729     11732     11728     11726     11729     11730
     11728     11726     11729     11731     11728     11726     11729     11732
     11729     11732     11735     11736     11729     11732     11735     11737
     11729     11732     11735     11738     11730     11729     11732     11733
     11730     11729     11732     11734     11730     11729     11732     11735
     11731     11729     11732     11733     11731     11729     11732     11734
     11731     11729     11732     11735     11732     11735     11738     11739
     11732     11735     11738     11740     11732     11735     11738     11741
     11733     11732     11735     11736     11733     11732     11735     11737
     11733     11732     11735     11738     11734     11732     11735     11736
     11734     11732     11735     11737     11734     11732     11735     11738
     11735     11738     11741     11742     11735     11738     11741     11743
     11735     11738     11741     11744     11736     11735     11738     11739
     11736     11735     11738     11740     11736     11735     11738     11741
     11737     11735     11738     11739     11737     11735     11738     11740
     11737     11735     11738     11741     11738     11741     11744     11745
     11738     11741     11744     11746     11738     11741     11744     11747
     11739     11738     11741     11742     11739     11738     11741     11743
     11739     11738     11741     11744     11740     11738     11741     11742
     11740     11738     11741     11743     11740     11738     11741     11744
     11741     11744     11747     11748     11741     11744     11747     11749
     11741     11744     11747     11750     11742     11741     11744     11745
     11742     11741     11744     11746     11742     11741     11744     11747
     11743     11741     11744     11745     11743     11741     11744     11746
     11743     11741     11744     11747     11745     11744     11747     11748
     11745     11744     11747     11749     11745     11744     11747     11750
     11746     11744     11747     11748     11746     11744     11747     11749
     11746     11744     11747     11750     11751     11754     11757     11758
     11751     11754     11757     11759     11751     11754     11757     11760
     11752     11751     11754     11755     11752     11751     11754     11756
     11752     11751     11754     11757     11753     11751     11754     11755
     11753     11751     11754     11756     11753     11751     11754     11757
     11754     11757     11760     11761     11754     11757     11760     11762
     11754     11757     11760     11763     11755     11754     11757     11758
     11755     11754     11757     11759     11755     11754     11757     11760
     11756     11754     11757     11758     11756     11754     11757     11759
     11756     11754     11757     11760     11757     11760     11763     11764
     11757     11760     11763     11765     11757     11760     11763     11766
     11758     11757     11760     11761     11758     11757     11760     11762
     11758     11757     11760     11763     11759     11757     11760     11761
     11759     11757     11760     11762     11759     11757     11760     11763
     11760     11763     11766     11767     11760     11763     11766     11768
     11760     11763     11766     11769     11761     11760     11763     11764
     11761     11760     11763     11765     11761     11760     11763     11766
     11762     11760     11763     11764     11762     11760     11763     11765
     11762     11760     11763     11766     11763     11766     11769     11770
     11763     11766     11769     11771     11763     11766     11769     11772
     11764     11763     11766     11767     11764     11763     11766     11768
     11764     11763     11766     11769     11765     11763     11766     11767
     11765     11763     11766     11768     11765     11763     11766     11769
     11766     11769     11772     11773     11766     11769     11772     11774
     11766     11769     11772     11775     11767     11766     11769     11770
     11767     11766     11769     11771     11767     11766     11769     11772
     11768     11766     11769     11770     11768     11766     11769     11771
     11768     11766     11769     11772     11769     11772     11775     11776
     11769     11772     11775     11777     11769     11772     11775     11778
     11770     11769     11772     11773     11770     11769     11772     11774
     11770     11769     11772     11775     11771     11769     11772     11773
     11771     11769     11772     11774     11771     11769     11772     11775
     11772     11775     11778     11779     11772     11775     11778     11780
     11772     11775     11778     11781     11773     11772     11775     11776
     11773     11772     11775     11777     11773     11772     11775     11778
     11774     11772     11775     11776     11774     11772     11775     11777
     11774     11772     11775     11778     11775     11778     11781     11782
     11775     11778     11781     11783     11775     11778     11781     11784
     11776     11775     11778     11779     11776     11775     11778     11780
     11776     11775     11778     11781     11777     11775     11778     11779
     11777     11775     11778     11780     11777     11775     11778     11781
     11778     11781     11784     11785     11778     11781     11784     11786
     11778     11781     11784     11787     11779     11778     11781     11782
     11779     11778     11781     11783     11779     11778     11781     11784
     11780     11778     11781     11782     11780     11778     11781     11783
     11780     11778     11781     11784     11781     11784     11787     11788
     11781     11784     11787     11789     11781     11784     11787     11790
     11782     11781     11784     11785     11782     11781     11784     11786
     11782     11781     11784     11787     11783     11781     11784     11785
     11783     11781     11784     11786     11783     11781     11784     11787
     11784     11787     11790     11791     11784     11787     11790     11792
     11784     11787     11790     11793     11785     11784     11787     11788
     11785     11784     11787     11789     11785     11784     11787     11790
     11786     11784     11787     11788     11786     11784     11787     11789
     11786     11784     11787     11790     11788     11787     11790     11791
     11788     11787     11790     11792     11788     11787     11790     11793
     11789     11787     11790     11791     11789     11787     11790     11792
     11789     11787     11790     11793     11794     11795     11810     11811
     11794     11795     11810     11812     11794     11795     11810     11816
     11795     11794     11798     11799     11795     11794     11798     11800
     11795     11794     11798     11801     11795     11794     11802     11803
     11795     11794     11802     11804     11795     11794     11802     11805
     11795     11794     11806     11807     11795     11794     11806     11808
     11795     11794     11806     11809     11795     11810     11816     11813
     11796     11795     11794     11798     11796     11795     11794     11802
     11796     11795     11794     11806     11796     11795     11810     11811
     11796     11795     11810     11812     11796     11795     11810     11816
     11797     11795     11794     11798     11797     11795     11794     11802
     11797     11795     11794     11806     11797     11795     11810     11811
     11797     11795     11810     11812     11797     11795     11810     11816
     11798     11794     11795     11810     11798     11794     11802     11803
     11798     11794     11802     11804     11798     11794     11802     11805
     11798     11794     11806     11807     11798     11794     11806     11808
     11798     11794     11806     11809     11799     11798     11794     11802
     11799     11798     11794     11806     11800     11798     11794     11802
     11800     11798     11794     11806     11801     11798     11794     11802
     11801     11798     11794     11806     11802     11794     11795     11810
     11802     11794     11806     11807     11802     11794     11806     11808
     11802     11794     11806     11809     11803     11802     11794     11806
     11804     11802     11794     11806     11805     11802     11794     11806
     11806     11794     11795     11810     11810     11816     11813     11814
     11810     11816     11813     11815     11810     11816     11813     11817
     11811     11810     11816     11813     11812     11810     11816     11813
     11813     11817     11818     11819     11813     11817     11818     11820
     11813     11817     11818     11821     11814     11813     11817     11818
     11815     11813     11817     11818     11816     11813     11817     11818
     11817     11818     11821     11822     11817     11818     11821     11823
     11817     11818     11821     11829     11818     11821     11823     11824
     11818     11821     11829     11830     11818     11821     11829     11831
     11818     11821     11829     11832     11819     11818     11821     11822
     11819     11818     11821     11823     11819     11818     11821     11829
     11820     11818     11821     11822     11820     11818     11821     11823
     11820     11818     11821     11829     11821     11823     11824     11825
     11821     11823     11824     11826     11821     11829     11832     11833
     11822     11821     11823     11824     11822     11821     11829     11830
     11822     11821     11829     11831     11822     11821     11829     11832
     11823     11821     11829     11830     11823     11821     11829     11831
     11823     11821     11829     11832     11823     11824     11826     11827
     11823     11824     11826     11828     11823     11824     11826     11838
     11824     11823     11821     11829     11824     11826     11838     11839
     11824     11826     11838     11840     11824     11826     11838     11841
     11825     11824     11826     11827     11825     11824     11826     11828
     11825     11824     11826     11838     11826     11838     11841     11842
     11826     11838     11841     11843     11826     11838     11841     11844
     11827     11826     11838     11839     11827     11826     11838     11840
     11827     11826     11838     11841     11828     11826     11838     11839
     11828     11826     11838     11840     11828     11826     11838     11841
     11829     11832     11833     11834     11829     11832     11833     11835
     11830     11829     11832     11833     11831     11829     11832     11833
     11832     11833     11835     11836     11832     11833     11835     11837
     11832     11833     11835     11885     11833     11835     11885     11886
     11833     11835     11885     11887     11833     11835     11885     11888
     11834     11833     11835     11836     11834     11833     11835     11837
     11834     11833     11835     11885     11835     11885     11888     11889
     11835     11885     11888     11890     11835     11885     11888     11891
     11836     11835     11885     11886     11836     11835     11885     11887
     11836     11835     11885     11888     11837     11835     11885     11886
     11837     11835     11885     11887     11837     11835     11885     11888
     11838     11841     11844     11845     11838     11841     11844     11846
     11838     11841     11844     11847     11839     11838     11841     11842
     11839     11838     11841     11843     11839     11838     11841     11844
     11840     11838     11841     11842     11840     11838     11841     11843
     11840     11838     11841     11844     11841     11844     11847     11848
     11841     11844     11847     11849     11841     11844     11847     11850
     11842     11841     11844     11845     11842     11841     11844     11846
     11842     11841     11844     11847     11843     11841     11844     11845
     11843     11841     11844     11846     11843     11841     11844     11847
     11844     11847     11850     11851     11844     11847     11850     11852
     11844     11847     11850     11853     11845     11844     11847     11848
     11845     11844     11847     11849     11845     11844     11847     11850
     11846     11844     11847     11848     11846     11844     11847     11849
     11846     11844     11847     11850     11847     11850     11853     11854
     11847     11850     11853     11855     11847     11850     11853     11856
     11848     11847     11850     11851     11848     11847     11850     11852
     11848     11847     11850     11853     11849     11847     11850     11851
     11849     11847     11850     11852     11849     11847     11850     11853
     11850     11853     11856     11857     11850     11853     11856     11858
     11851     11850     11853     11854     11851     11850     11853     11855
     11851     11850     11853     11856     11852     11850     11853     11854
     11852     11850     11853     11855     11852     11850     11853     11856
     11853     11856     11858     11859     11853     11856     11858     11860
     11854     11853     11856     11857     11854     11853     11856     11858
     11855     11853     11856     11857     11855     11853     11856     11858
     11856     11858     11860     11861     11856     11858     11860     11862
     11856     11858     11860     11863     11857     11856     11858     11859
     11857     11856     11858     11860     11858     11860     11863     11864
     11858     11860     11863     11865     11858     11860     11863     11866
     11859     11858     11860     11861     11859     11858     11860     11862
     11859     11858     11860     11863     11860     11863     11866     11867
     11860     11863     11866     11868     11860     11863     11866     11869
     11861     11860     11863     11864     11861     11860     11863     11865
     11861     11860     11863     11866     11862     11860     11863     11864
     11862     11860     11863     11865     11862     11860     11863     11866
     11863     11866     11869     11870     11863     11866     11869     11871
     11863     11866     11869     11872     11864     11863     11866     11867
     11864     11863     11866     11868     11864     11863     11866     11869
     11865     11863     11866     11867     11865     11863     11866     11868
     11865     11863     11866     11869     11866     11869     11872     11873
     11866     11869     11872     11874     11866     11869     11872     11875
     11867     11866     11869     11870     11867     11866     11869     11871
     11867     11866     11869     11872     11868     11866     11869     11870
     11868     11866     11869     11871     11868     11866     11869     11872
     11869     11872     11875     11876     11869     11872     11875     11877
     11869     11872     11875     11878     11870     11869     11872     11873
     11870     11869     11872     11874     11870     11869     11872     11875
     11871     11869     11872     11873     11871     11869     11872     11874
     11871     11869     11872     11875     11872     11875     11878     11879
     11872     11875     11878     11880     11872     11875     11878     11881
     11873     11872     11875     11876     11873     11872     11875     11877
     11873     11872     11875     11878     11874     11872     11875     11876
     11874     11872     11875     11877     11874     11872     11875     11878
     11875     11878     11881     11882     11875     11878     11881     11883
     11875     11878     11881     11884     11876     11875     11878     11879
     11876     11875     11878     11880     11876     11875     11878     11881
     11877     11875     11878     11879     11877     11875     11878     11880
     11877     11875     11878     11881     11879     11878     11881     11882
     11879     11878     11881     11883     11879     11878     11881     11884
     11880     11878     11881     11882     11880     11878     11881     11883
     11880     11878     11881     11884     11885     11888     11891     11892
     11885     11888     11891     11893     11885     11888     11891     11894
     11886     11885     11888     11889     11886     11885     11888     11890
     11886     11885     11888     11891     11887     11885     11888     11889
     11887     11885     11888     11890     11887     11885     11888     11891
     11888     11891     11894     11895     11888     11891     11894     11896
     11888     11891     11894     11897     11889     11888     11891     11892
     11889     11888     11891     11893     11889     11888     11891     11894
     11890     11888     11891     11892     11890     11888     11891     11893
     11890     11888     11891     11894     11891     11894     11897     11898
     11891     11894     11897     11899     11891     11894     11897     11900
     11892     11891     11894     11895     11892     11891     11894     11896
     11892     11891     11894     11897     11893     11891     11894     11895
     11893     11891     11894     11896     11893     11891     11894     11897
     11894     11897     11900     11901     11894     11897     11900     11902
     11894     11897     11900     11903     11895     11894     11897     11898
     11895     11894     11897     11899     11895     11894     11897     11900
     11896     11894     11897     11898     11896     11894     11897     11899
     11896     11894     11897     11900     11897     11900     11903     11904
     11897     11900     11903     11905     11897     11900     11903     11906
     11898     11897     11900     11901     11898     11897     11900     11902
     11898     11897     11900     11903     11899     11897     11900     11901
     11899     11897     11900     11902     11899     11897     11900     11903
     11900     11903     11906     11907     11900     11903     11906     11908
     11900     11903     11906     11909     11901     11900     11903     11904
     11901     11900     11903     11905     11901     11900     11903     11906
     11902     11900     11903     11904     11902     11900     11903     11905
     11902     11900     11903     11906     11903     11906     11909     11910
     11903     11906     11909     11911     11903     11906     11909     11912
     11904     11903     11906     11907     11904     11903     11906     11908
     11904     11903     11906     11909     11905     11903     11906     11907
     11905     11903     11906     11908     11905     11903     11906     11909
     11906     11909     11912     11913     11906     11909     11912     11914
     11906     11909     11912     11915     11907     11906     11909     11910
     11907     11906     11909     11911     11907     11906     11909     11912
     11908     11906     11909     11910     11908     11906     11909     11911
     11908     11906     11909     11912     11909     11912     11915     11916
     11909     11912     11915     11917     11909     11912     11915     11918
     11910     11909     11912     11913     11910     11909     11912     11914
     11910     11909     11912     11915     11911     11909     11912     11913
     11911     11909     11912     11914     11911     11909     11912     11915
     11912     11915     11918     11919     11912     11915     11918     11920
     11912     11915     11918     11921     11913     11912     11915     11916
     11913     11912     11915     11917     11913     11912     11915     11918
     11914     11912     11915     11916     11914     11912     11915     11917
     11914     11912     11915     11918     11915     11918     11921     11922
     11915     11918     11921     11923     11915     11918     11921     11924
     11916     11915     11918     11919     11916     11915     11918     11920
     11916     11915     11918     11921     11917     11915     11918     11919
     11917     11915     11918     11920     11917     11915     11918     11921
     11918     11921     11924     11925     11918     11921     11924     11926
     11918     11921     11924     11927     11919     11918     11921     11922
     11919     11918     11921     11923     11919     11918     11921     11924
     11920     11918     11921     11922     11920     11918     11921     11923
     11920     11918     11921     11924     11922     11921     11924     11925
     11922     11921     11924     11926     11922     11921     11924     11927
     11923     11921     11924     11925     11923     11921     11924     11926
     11923     11921     11924     11927     11928     11929     11944     11945
     11928     11929     11944     11946     11928     11929     11944     11950
     11929     11928     11932     11933     11929     11928     11932     11934
     11929     11928     11932     11935     11929     11928     11936     11937
     11929     11928     11936     11938     11929     11928     11936     11939
     11929     11928     11940     11941     11929     11928     11940     11942
     11929     11928     11940     11943     11929     11944     11950     11947
     11930     11929     11928     11932     11930     11929     11928     11936
     11930     11929     11928     11940     11930     11929     11944     11945
     11930     11929     11944     11946     11930     11929     11944     11950
     11931     11929     11928     11932     11931     11929     11928     11936
     11931     11929     11928     11940     11931     11929     11944     11945
     11931     11929     11944     11946     11931     11929     11944     11950
     11932     11928     11929     11944     11932     11928     11936     11937
     11932     11928     11936     11938     11932     11928     11936     11939
     11932     11928     11940     11941     11932     11928     11940     11942
     11932     11928     11940     11943     11933     11932     11928     11936
     11933     11932     11928     11940     11934     11932     11928     11936
     11934     11932     11928     11940     11935     11932     11928     11936
     11935     11932     11928     11940     11936     11928     11929     11944
     11936     11928     11940     11941     11936     11928     11940     11942
     11936     11928     11940     11943     11937     11936     11928     11940
     11938     11936     11928     11940     11939     11936     11928     11940
     11940     11928     11929     11944     11944     11950     11947     11948
     11944     11950     11947     11949     11944     11950     11947     11951
     11945     11944     11950     11947     11946     11944     11950     11947
     11947     11951     11952     11953     11947     11951     11952     11954
     11947     11951     11952     11955     11948     11947     11951     11952
     11949     11947     11951     11952     11950     11947     11951     11952
     11951     11952     11955     11956     11951     11952     11955     11957
     11951     11952     11955     11963     11952     11955     11957     11958
     11952     11955     11963     11964     11952     11955     11963     11965
     11952     11955     11963     11966     11953     11952     11955     11956
     11953     11952     11955     11957     11953     11952     11955     11963
     11954     11952     11955     11956     11954     11952     11955     11957
     11954     11952     11955     11963     11955     11957     11958     11959
     11955     11957     11958     11960     11955     11963     11966     11967
     11956     11955     11957     11958     11956     11955     11963     11964
     11956     11955     11963     11965     11956     11955     11963     11966
     11957     11955     11963     11964     11957     11955     11963     11965
     11957     11955     11963     11966     11957     11958     11960     11961
     11957     11958     11960     11962     11957     11958     11960     11972
     11958     11957     11955     11963     11958     11960     11972     11973
     11958     11960     11972     11974     11958     11960     11972     11975
     11959     11958     11960     11961     11959     11958     11960     11962
     11959     11958     11960     11972     11960     11972     11975     11976
     11960     11972     11975     11977     11960     11972     11975     11978
     11961     11960     11972     11973     11961     11960     11972     11974
     11961     11960     11972     11975     11962     11960     11972     11973
     11962     11960     11972     11974     11962     11960     11972     11975
     11963     11966     11967     11968     11963     11966     11967     11969
     11964     11963     11966     11967     11965     11963     11966     11967
     11966     11967     11969     11970     11966     11967     11969     11971
     11966     11967     11969     12019     11967     11969     12019     12020
     11967     11969     12019     12021     11967     11969     12019     12022
     11968     11967     11969     11970     11968     11967     11969     11971
     11968     11967     11969     12019     11969     12019     12022     12023
     11969     12019     12022     12024     11969     12019     12022     12025
     11970     11969     12019     12020     11970     11969     12019     12021
     11970     11969     12019     12022     11971     11969     12019     12020
     11971     11969     12019     12021     11971     11969     12019     12022
     11972     11975     11978     11979     11972     11975     11978     11980
     11972     11975     11978     11981     11973     11972     11975     11976
     11973     11972     11975     11977     11973     11972     11975     11978
     11974     11972     11975     11976     11974     11972     11975     11977
     11974     11972     11975     11978     11975     11978     11981     11982
     11975     11978     11981     11983     11975     11978     11981     11984
     11976     11975     11978     11979     11976     11975     11978     11980
     11976     11975     11978     11981     11977     11975     11978     11979
     11977     11975     11978     11980     11977     11975     11978     11981
     11978     11981     11984     11985     11978     11981     11984     11986
     11978     11981     11984     11987     11979     11978     11981     11982
     11979     11978     11981     11983     11979     11978     11981     11984
     11980     11978     11981     11982     11980     11978     11981     11983
     11980     11978     11981     11984     11981     11984     11987     11988
     11981     11984     11987     11989     11981     11984     11987     11990
     11982     11981     11984     11985     11982     11981     11984     11986
     11982     11981     11984     11987     11983     11981     11984     11985
     11983     11981     11984     11986     11983     11981     11984     11987
     11984     11987     11990     11991     11984     11987     11990     11992
     11985     11984     11987     11988     11985     11984     11987     11989
     11985     11984     11987     11990     11986     11984     11987     11988
     11986     11984     11987     11989     11986     11984     11987     11990
     11987     11990     11992     11993     11987     11990     11992     11994
     11988     11987     11990     11991     11988     11987     11990     11992
     11989     11987     11990     11991     11989     11987     11990     11992
     11990     11992     11994     11995     11990     11992     11994     11996
     11990     11992     11994     11997     11991     11990     11992     11993
     11991     11990     11992     11994     11992     11994     11997     11998
     11992     11994     11997     11999     11992     11994     11997     12000
     11993     11992     11994     11995     11993     11992     11994     11996
     11993     11992     11994     11997     11994     11997     12000     12001
     11994     11997     12000     12002     11994     11997     12000     12003
     11995     11994     11997     11998     11995     11994     11997     11999
     11995     11994     11997     12000     11996     11994     11997     11998
     11996     11994     11997     11999     11996     11994     11997     12000
     11997     12000     12003     12004     11997     12000     12003     12005
     11997     12000     12003     12006     11998     11997     12000     12001
     11998     11997     12000     12002     11998     11997     12000     12003
     11999     11997     12000     12001     11999     11997     12000     12002
     11999     11997     12000     12003     12000     12003     12006     12007
     12000     12003     12006     12008     12000     12003     12006     12009
     12001     12000     12003     12004     12001     12000     12003     12005
     12001     12000     12003     12006     12002     12000     12003     12004
     12002     12000     12003     12005     12002     12000     12003     12006
     12003     12006     12009     12010     12003     12006     12009     12011
     12003     12006     12009     12012     12004     12003     12006     12007
     12004     12003     12006     12008     12004     12003     12006     12009
     12005     12003     12006     12007     12005     12003     12006     12008
     12005     12003     12006     12009     12006     12009     12012     12013
     12006     12009     12012     12014     12006     12009     12012     12015
     12007     12006     12009     12010     12007     12006     12009     12011
     12007     12006     12009     12012     12008     12006     12009     12010
     12008     12006     12009     12011     12008     12006     12009     12012
     12009     12012     12015     12016     12009     12012     12015     12017
     12009     12012     12015     12018     12010     12009     12012     12013
     12010     12009     12012     12014     12010     12009     12012     12015
     12011     12009     12012     12013     12011     12009     12012     12014
     12011     12009     12012     12015     12013     12012     12015     12016
     12013     12012     12015     12017     12013     12012     12015     12018
     12014     12012     12015     12016     12014     12012     12015     12017
     12014     12012     12015     12018     12019     12022     12025     12026
     12019     12022     12025     12027     12019     12022     12025     12028
     12020     12019     12022     12023     12020     12019     12022     12024
     12020     12019     12022     12025     12021     12019     12022     12023
     12021     12019     12022     12024     12021     12019     12022     12025
     12022     12025     12028     12029     12022     12025     12028     12030
     12022     12025     12028     12031     12023     12022     12025     12026
     12023     12022     12025     12027     12023     12022     12025     12028
     12024     12022     12025     12026     12024     12022     12025     12027
     12024     12022     12025     12028     12025     12028     12031     12032
     12025     12028     12031     12033     12025     12028     12031     12034
     12026     12025     12028     12029     12026     12025     12028     12030
     12026     12025     12028     12031     12027     12025     12028     12029
     12027     12025     12028     12030     12027     12025     12028     12031
     12028     12031     12034     12035     12028     12031     12034     12036
     12028     12031     12034     12037     12029     12028     12031     12032
     12029     12028     12031     12033     12029     12028     12031     12034
     12030     12028     12031     12032     12030     12028     12031     12033
     12030     12028     12031     12034     12031     12034     12037     12038
     12031     12034     12037     12039     12031     12034     12037     12040
     12032     12031     12034     12035     12032     12031     12034     12036
     12032     12031     12034     12037     12033     12031     12034     12035
     12033     12031     12034     12036     12033     12031     12034     12037
     12034     12037     12040     12041     12034     12037     12040     12042
     12034     12037     12040     12043     12035     12034     12037     12038
     12035     12034     12037     12039     12035     12034     12037     12040
     12036     12034     12037     12038     12036     12034     12037     12039
     12036     12034     12037     12040     12037     12040     12043     12044
     12037     12040     12043     12045     12037     12040     12043     12046
     12038     12037     12040     12041     12038     12037     12040     12042
     12038     12037     12040     12043     12039     12037     12040     12041
     12039     12037     12040     12042     12039     12037     12040     12043
     12040     12043     12046     12047     12040     12043     12046     12048
     12040     12043     12046     12049     12041     12040     12043     12044
     12041     12040     12043     12045     12041     12040     12043     12046
     12042     12040     12043     12044     12042     12040     12043     12045
     12042     12040     12043     12046     12043     12046     12049     12050
     12043     12046     12049     12051     12043     12046     12049     12052
     12044     12043     12046     12047     12044     12043     12046     12048
     12044     12043     12046     12049     12045     12043     12046     12047
     12045     12043     12046     12048     12045     12043     12046     12049
     12046     12049     12052     12053     12046     12049     12052     12054
     12046     12049     12052     12055     12047     12046     12049     12050
     12047     12046     12049     12051     12047     12046     12049     12052
     12048     12046     12049     12050     12048     12046     12049     12051
     12048     12046     12049     12052     12049     12052     12055     12056
     12049     12052     12055     12057     12049     12052     12055     12058
     12050     12049     12052     12053     12050     12049     12052     12054
     12050     12049     12052     12055     12051     12049     12052     12053
     12051     12049     12052     12054     12051     12049     12052     12055
     12052     12055     12058     12059     12052     12055     12058     12060
     12052     12055     12058     12061     12053     12052     12055     12056
     12053     12052     12055     12057     12053     12052     12055     12058
     12054     12052     12055     12056     12054     12052     12055     12057
     12054     12052     12055     12058     12056     12055     12058     12059
     12056     12055     12058     12060     12056     12055     12058     12061
     12057     12055     12058     12059     12057     12055     12058     12060
     12057     12055     12058     12061     12062     12066     12068     12069
     12062     12066     12068     12070     12062     12066     12071     12072
     12062     12066     12071     12073     12062     12066     12071     12077
     12063     12062     12066     12067     12063     12062     12066     12068
     12063     12062     12066     12071     12064     12062     12066     12067
     12064     12062     12066     12068     12064     12062     12066     12071
     12065     12062     12066     12067     12065     12062     12066     12068
     12065     12062     12066     12071     12066     12071     12077     12074
     12067     12066     12068     12069     12067     12066     12068     12070
     12067     12066     12071     12072     12067     12066     12071     12073
     12067     12066     12071     12077     12068     12066     12071     12072
     12068     12066     12071     12073     12068     12066     12071     12077
     12069     12068     12066     12071     12070     12068     12066     12071
     12071     12077     12074     12075     12071     12077     12074     12076
     12071     12077     12074     12078     12072     12071     12077     12074
     12073     12071     12077     12074     12074     12078     12079     12080
     12074     12078     12079     12081     12074     12078     12079     12082
     12075     12074     12078     12079     12076     12074     12078     12079
     12077     12074     12078     12079     12078     12079     12082     12083
     12078     12079     12082     12084     12078     12079     12082     12090
     12079     12082     12084     12085     12079     12082     12090     12091
     12079     12082     12090     12092     12079     12082     12090     12093
     12080     12079     12082     12083     12080     12079     12082     12084
     12080     12079     12082     12090     12081     12079     12082     12083
     12081     12079     12082     12084     12081     12079     12082     12090
     12082     12084     12085     12086     12082     12084     12085     12087
     12082     12090     12093     12094     12083     12082     12084     12085
     12083     12082     12090     12091     12083     12082     12090     12092
     12083     12082     12090     12093     12084     12082     12090     12091
     12084     12082     12090     12092     12084     12082     12090     12093
     12084     12085     12087     12088     12084     12085     12087     12089
     12084     12085     12087     12099     12085     12084     12082     12090
     12085     12087     12099     12100     12085     12087     12099     12101
     12085     12087     12099     12102     12086     12085     12087     12088
     12086     12085     12087     12089     12086     12085     12087     12099
     12087     12099     12102     12103     12087     12099     12102     12104
     12087     12099     12102     12105     12088     12087     12099     12100
     12088     12087     12099     12101     12088     12087     12099     12102
     12089     12087     12099     12100     12089     12087     12099     12101
     12089     12087     12099     12102     12090     12093     12094     12095
     12090     12093     12094     12096     12091     12090     12093     12094
     12092     12090     12093     12094     12093     12094     12096     12097
     12093     12094     12096     12098     12093     12094     12096     12146
     12094     12096     12146     12147     12094     12096     12146     12148
     12094     12096     12146     12149     12095     12094     12096     12097
     12095     12094     12096     12098     12095     12094     12096     12146
     12096     12146     12149     12150     12096     12146     12149     12151
     12096     12146     12149     12152     12097     12096     12146     12147
     12097     12096     12146     12148     12097     12096     12146     12149
     12098     12096     12146     12147     12098     12096     12146     12148
     12098     12096     12146     12149     12099     12102     12105     12106
     12099     12102     12105     12107     12099     12102     12105     12108
     12100     12099     12102     12103     12100     12099     12102     12104
     12100     12099     12102     12105     12101     12099     12102     12103
     12101     12099     12102     12104     12101     12099     12102     12105
     12102     12105     12108     12109     12102     12105     12108     12110
     12102     12105     12108     12111     12103     12102     12105     12106
     12103     12102     12105     12107     12103     12102     12105     12108
     12104     12102     12105     12106     12104     12102     12105     12107
     12104     12102     12105     12108     12105     12108     12111     12112
     12105     12108     12111     12113     12105     12108     12111     12114
     12106     12105     12108     12109     12106     12105     12108     12110
     12106     12105     12108     12111     12107     12105     12108     12109
     12107     12105     12108     12110     12107     12105     12108     12111
     12108     12111     12114     12115     12108     12111     12114     12116
     12108     12111     12114     12117     12109     12108     12111     12112
     12109     12108     12111     12113     12109     12108     12111     12114
     12110     12108     12111     12112     12110     12108     12111     12113
     12110     12108     12111     12114     12111     12114     12117     12118
     12111     12114     12117     12119     12112     12111     12114     12115
     12112     12111     12114     12116     12112     12111     12114     12117
     12113     12111     12114     12115     12113     12111     12114     12116
     12113     12111     12114     12117     12114     12117     12119     12120
     12114     12117     12119     12121     12115     12114     12117     12118
     12115     12114     12117     12119     12116     12114     12117     12118
     12116     12114     12117     12119     12117     12119     12121     12122
     12117     12119     12121     12123     12117     12119     12121     12124
     12118     12117     12119     12120     12118     12117     12119     12121
     12119     12121     12124     12125     12119     12121     12124     12126
     12119     12121     12124     12127     12120     12119     12121     12122
     12120     12119     12121     12123     12120     12119     12121     12124
     12121     12124     12127     12128     12121     12124     12127     12129
     12121     12124     12127     12130     12122     12121     12124     12125
     12122     12121     12124     12126     12122     12121     12124     12127
     12123     12121     12124     12125     12123     12121     12124     12126
     12123     12121     12124     12127     12124     12127     12130     12131
     12124     12127     12130     12132     12124     12127     12130     12133
     12125     12124     12127     12128     12125     12124     12127     12129
     12125     12124     12127     12130     12126     12124     12127     12128
     12126     12124     12127     12129     12126     12124     12127     12130
     12127     12130     12133     12134     12127     12130     12133     12135
     12127     12130     12133     12136     12128     12127     12130     12131
     12128     12127     12130     12132     12128     12127     12130     12133
     12129     12127     12130     12131     12129     12127     12130     12132
     12129     12127     12130     12133     12130     12133     12136     12137
     12130     12133     12136     12138     12130     12133     12136     12139
     12131     12130     12133     12134     12131     12130     12133     12135
     12131     12130     12133     12136     12132     12130     12133     12134
     12132     12130     12133     12135     12132     12130     12133     12136
     12133     12136     12139     12140     12133     12136     12139     12141
     12133     12136     12139     12142     12134     12133     12136     12137
     12134     12133     12136     12138     12134     12133     12136     12139
     12135     12133     12136     12137     12135     12133     12136     12138
     12135     12133     12136     12139     12136     12139     12142     12143
     12136     12139     12142     12144     12136     12139     12142     12145
     12137     12136     12139     12140     12137     12136     12139     12141
     12137     12136     12139     12142     12138     12136     12139     12140
     12138     12136     12139     12141     12138     12136     12139     12142
     12140     12139     12142     12143     12140     12139     12142     12144
     12140     12139     12142     12145     12141     12139     12142     12143
     12141     12139     12142     12144     12141     12139     12142     12145
     12146     12149     12152     12153     12146     12149     12152     12154
     12146     12149     12152     12155     12147     12146     12149     12150
     12147     12146     12149     12151     12147     12146     12149     12152
     12148     12146     12149     12150     12148     12146     12149     12151
     12148     12146     12149     12152     12149     12152     12155     12156
     12149     12152     12155     12157     12149     12152     12155     12158
     12150     12149     12152     12153     12150     12149     12152     12154
     12150     12149     12152     12155     12151     12149     12152     12153
     12151     12149     12152     12154     12151     12149     12152     12155
     12152     12155     12158     12159     12152     12155     12158     12160
     12152     12155     12158     12161     12153     12152     12155     12156
     12153     12152     12155     12157     12153     12152     12155     12158
     12154     12152     12155     12156     12154     12152     12155     12157
     12154     12152     12155     12158     12155     12158     12161     12162
     12155     12158     12161     12163     12155     12158     12161     12164
     12156     12155     12158     12159     12156     12155     12158     12160
     12156     12155     12158     12161     12157     12155     12158     12159
     12157     12155     12158     12160     12157     12155     12158     12161
     12158     12161     12164     12165     12158     12161     12164     12166
     12158     12161     12164     12167     12159     12158     12161     12162
     12159     12158     12161     12163     12159     12158     12161     12164
     12160     12158     12161     12162     12160     12158     12161     12163
     12160     12158     12161     12164     12161     12164     12167     12168
     12161     12164     12167     12169     12161     12164     12167     12170
     12162     12161     12164     12165     12162     12161     12164     12166
     12162     12161     12164     12167     12163     12161     12164     12165
     12163     12161     12164     12166     12163     12161     12164     12167
     12164     12167     12170     12171     12164     12167     12170     12172
     12164     12167     12170     12173     12165     12164     12167     12168
     12165     12164     12167     12169     12165     12164     12167     12170
     12166     12164     12167     12168     12166     12164     12167     12169
     12166     12164     12167     12170     12167     12170     12173     12174
     12167     12170     12173     12175     12167     12170     12173     12176
     12168     12167     12170     12171     12168     12167     12170     12172
     12168     12167     12170     12173     12169     12167     12170     12171
     12169     12167     12170     12172     12169     12167     12170     12173
     12170     12173     12176     12177     12170     12173     12176     12178
     12170     12173     12176     12179     12171     12170     12173     12174
     12171     12170     12173     12175     12171     12170     12173     12176
     12172     12170     12173     12174     12172     12170     12173     12175
     12172     12170     12173     12176     12173     12176     12179     12180
     12173     12176     12179     12181     12173     12176     12179     12182
     12174     12173     12176     12177     12174     12173     12176     12178
     12174     12173     12176     12179     12175     12173     12176     12177
     12175     12173     12176     12178     12175     12173     12176     12179
     12176     12179     12182     12183     12176     12179     12182     12184
     12176     12179     12182     12185     12177     12176     12179     12180
     12177     12176     12179     12181     12177     12176     12179     12182
     12178     12176     12179     12180     12178     12176     12179     12181
     12178     12176     12179     12182     12179     12182     12185     12186
     12179     12182     12185     12187     12179     12182     12185     12188
     12180     12179     12182     12183     12180     12179     12182     12184
     12180     12179     12182     12185     12181     12179     12182     12183
     12181     12179     12182     12184     12181     12179     12182     12185
     12183     12182     12185     12186     12183     12182     12185     12187
     12183     12182     12185     12188     12184     12182     12185     12186
     12184     12182     12185     12187     12184     12182     12185     12188
     12189     12190     12205     12206     12189     12190     12205     12207
     12189     12190     12205     12211     12190     12189     12193     12194
     12190     12189     12193     12195     12190     12189     12193     12196
     12190     12189     12197     12198     12190     12189     12197     12199
     12190     12189     12197     12200     12190     12189     12201     12202
     12190     12189     12201     12203     12190     12189     12201     12204
     12190     12205     12211     12208     12191     12190     12189     12193
     12191     12190     12189     12197     12191     12190     12189     12201
     12191     12190     12205     12206     12191     12190     12205     12207
     12191     12190     12205     12211     12192     12190     12189     12193
     12192     12190     12189     12197     12192     12190     12189     12201
     12192     12190     12205     12206     12192     12190     12205     12207
     12192     12190     12205     12211     12193     12189     12190     12205
     12193     12189     12197     12198     12193     12189     12197     12199
     12193     12189     12197     12200     12193     12189     12201     12202
     12193     12189     12201     12203     12193     12189     12201     12204
     12194     12193     12189     12197     12194     12193     12189     12201
     12195     12193     12189     12197     12195     12193     12189     12201
     12196     12193     12189     12197     12196     12193     12189     12201
     12197     12189     12190     12205     12197     12189     12201     12202
     12197     12189     12201     12203     12197     12189     12201     12204
     12198     12197     12189     12201     12199     12197     12189     12201
     12200     12197     12189     12201     12201     12189     12190     12205
     12205     12211     12208     12209     12205     12211     12208     12210
     12205     12211     12208     12212     12206     12205     12211     12208
     12207     12205     12211     12208     12208     12212     12213     12214
     12208     12212     12213     12215     12208     12212     12213     12216
     12209     12208     12212     12213     12210     12208     12212     12213
     12211     12208     12212     12213     12212     12213     12216     12217
     12212     12213     12216     12218     12212     12213     12216     12224
     12213     12216     12218     12219     12213     12216     12224     12225
     12213     12216     12224     12226     12213     12216     12224     12227
     12214     12213     12216     12217     12214     12213     12216     12218
     12214     12213     12216     12224     12215     12213     12216     12217
     12215     12213     12216     12218     12215     12213     12216     12224
     12216     12218     12219     12220     12216     12218     12219     12221
     12216     12224     12227     12228     12217     12216     12218     12219
     12217     12216     12224     12225     12217     12216     12224     12226
     12217     12216     12224     12227     12218     12216     12224     12225
     12218     12216     12224     12226     12218     12216     12224     12227
     12218     12219     12221     12222     12218     12219     12221     12223
     12218     12219     12221     12233     12219     12218     12216     12224
     12219     12221     12233     12234     12219     12221     12233     12235
     12219     12221     12233     12236     12220     12219     12221     12222
     12220     12219     12221     12223     12220     12219     12221     12233
     12221     12233     12236     12237     12221     12233     12236     12238
     12221     12233     12236     12239     12222     12221     12233     12234
     12222     12221     12233     12235     12222     12221     12233     12236
     12223     12221     12233     12234     12223     12221     12233     12235
     12223     12221     12233     12236     12224     12227     12228     12229
     12224     12227     12228     12230     12225     12224     12227     12228
     12226     12224     12227     12228     12227     12228     12230     12231
     12227     12228     12230     12232     12227     12228     12230     12280
     12228     12230     12280     12281     12228     12230     12280     12282
     12228     12230     12280     12283     12229     12228     12230     12231
     12229     12228     12230     12232     12229     12228     12230     12280
     12230     12280     12283     12284     12230     12280     12283     12285
     12230     12280     12283     12286     12231     12230     12280     12281
     12231     12230     12280     12282     12231     12230     12280     12283
     12232     12230     12280     12281     12232     12230     12280     12282
     12232     12230     12280     12283     12233     12236     12239     12240
     12233     12236     12239     12241     12233     12236     12239     12242
     12234     12233     12236     12237     12234     12233     12236     12238
     12234     12233     12236     12239     12235     12233     12236     12237
     12235     12233     12236     12238     12235     12233     12236     12239
     12236     12239     12242     12243     12236     12239     12242     12244
     12236     12239     12242     12245     12237     12236     12239     12240
     12237     12236     12239     12241     12237     12236     12239     12242
     12238     12236     12239     12240     12238     12236     12239     12241
     12238     12236     12239     12242     12239     12242     12245     12246
     12239     12242     12245     12247     12239     12242     12245     12248
     12240     12239     12242     12243     12240     12239     12242     12244
     12240     12239     12242     12245     12241     12239     12242     12243
     12241     12239     12242     12244     12241     12239     12242     12245
     12242     12245     12248     12249     12242     12245     12248     12250
     12242     12245     12248     12251     12243     12242     12245     12246
     12243     12242     12245     12247     12243     12242     12245     12248
     12244     12242     12245     12246     12244     12242     12245     12247
     12244     12242     12245     12248     12245     12248     12251     12252
     12245     12248     12251     12253     12246     12245     12248     12249
     12246     12245     12248     12250     12246     12245     12248     12251
     12247     12245     12248     12249     12247     12245     12248     12250
     12247     12245     12248     12251     12248     12251     12253     12254
     12248     12251     12253     12255     12249     12248     12251     12252
     12249     12248     12251     12253     12250     12248     12251     12252
     12250     12248     12251     12253     12251     12253     12255     12256
     12251     12253     12255     12257     12251     12253     12255     12258
     12252     12251     12253     12254     12252     12251     12253     12255
     12253     12255     12258     12259     12253     12255     12258     12260
     12253     12255     12258     12261     12254     12253     12255     12256
     12254     12253     12255     12257     12254     12253     12255     12258
     12255     12258     12261     12262     12255     12258     12261     12263
     12255     12258     12261     12264     12256     12255     12258     12259
     12256     12255     12258     12260     12256     12255     12258     12261
     12257     12255     12258     12259     12257     12255     12258     12260
     12257     12255     12258     12261     12258     12261     12264     12265
     12258     12261     12264     12266     12258     12261     12264     12267
     12259     12258     12261     12262     12259     12258     12261     12263
     12259     12258     12261     12264     12260     12258     12261     12262
     12260     12258     12261     12263     12260     12258     12261     12264
     12261     12264     12267     12268     12261     12264     12267     12269
     12261     12264     12267     12270     12262     12261     12264     12265
     12262     12261     12264     12266     12262     12261     12264     12267
     12263     12261     12264     12265     12263     12261     12264     12266
     12263     12261     12264     12267     12264     12267     12270     12271
     12264     12267     12270     12272     12264     12267     12270     12273
     12265     12264     12267     12268     12265     12264     12267     12269
     12265     12264     12267     12270     12266     12264     12267     12268
     12266     12264     12267     12269     12266     12264     12267     12270
     12267     12270     12273     12274     12267     12270     12273     12275
     12267     12270     12273     12276     12268     12267     12270     12271
     12268     12267     12270     12272     12268     12267     12270     12273
     12269     12267     12270     12271     12269     12267     12270     12272
     12269     12267     12270     12273     12270     12273     12276     12277
     12270     12273     12276     12278     12270     12273     12276     12279
     12271     12270     12273     12274     12271     12270     12273     12275
     12271     12270     12273     12276     12272     12270     12273     12274
     12272     12270     12273     12275     12272     12270     12273     12276
     12274     12273     12276     12277     12274     12273     12276     12278
     12274     12273     12276     12279     12275     12273     12276     12277
     12275     12273     12276     12278     12275     12273     12276     12279
     12280     12283     12286     12287     12280     12283     12286     12288
     12280     12283     12286     12289     12281     12280     12283     12284
     12281     12280     12283     12285     12281     12280     12283     12286
     12282     12280     12283     12284     12282     12280     12283     12285
     12282     12280     12283     12286     12283     12286     12289     12290
     12283     12286     12289     12291     12283     12286     12289     12292
     12284     12283     12286     12287     12284     12283     12286     12288
     12284     12283     12286     12289     12285     12283     12286     12287
     12285     12283     12286     12288     12285     12283     12286     12289
     12286     12289     12292     12293     12286     12289     12292     12294
     12286     12289     12292     12295     12287     12286     12289     12290
     12287     12286     12289     12291     12287     12286     12289     12292
     12288     12286     12289     12290     12288     12286     12289     12291
     12288     12286     12289     12292     12289     12292     12295     12296
     12289     12292     12295     12297     12289     12292     12295     12298
     12290     12289     12292     12293     12290     12289     12292     12294
     12290     12289     12292     12295     12291     12289     12292     12293
     12291     12289     12292     12294     12291     12289     12292     12295
     12292     12295     12298     12299     12292     12295     12298     12300
     12292     12295     12298     12301     12293     12292     12295     12296
     12293     12292     12295     12297     12293     12292     12295     12298
     12294     12292     12295     12296     12294     12292     12295     12297
     12294     12292     12295     12298     12295     12298     12301     12302
     12295     12298     12301     12303     12295     12298     12301     12304
     12296     12295     12298     12299     12296     12295     12298     12300
     12296     12295     12298     12301     12297     12295     12298     12299
     12297     12295     12298     12300     12297     12295     12298     12301
     12298     12301     12304     12305     12298     12301     12304     12306
     12298     12301     12304     12307     12299     12298     12301     12302
     12299     12298     12301     12303     12299     12298     12301     12304
     12300     12298     12301     12302     12300     12298     12301     12303
     12300     12298     12301     12304     12301     12304     12307     12308
     12301     12304     12307     12309     12301     12304     12307     12310
     12302     12301     12304     12305     12302     12301     12304     12306
     12302     12301     12304     12307     12303     12301     12304     12305
     12303     12301     12304     12306     12303     12301     12304     12307
     12304     12307     12310     12311     12304     12307     12310     12312
     12304     12307     12310     12313     12305     12304     12307     12308
     12305     12304     12307     12309     12305     12304     12307     12310
     12306     12304     12307     12308     12306     12304     12307     12309
     12306     12304     12307     12310     12307     12310     12313     12314
     12307     12310     12313     12315     12307     12310     12313     12316
     12308     12307     12310     12311     12308     12307     12310     12312
     12308     12307     12310     12313     12309     12307     12310     12311
     12309     12307     12310     12312     12309     12307     12310     12313
     12310     12313     12316     12317     12310     12313     12316     12318
     12310     12313     12316     12319     12311     12310     12313     12314
     12311     12310     12313     12315     12311     12310     12313     12316
     12312     12310     12313     12314     12312     12310     12313     12315
     12312     12310     12313     12316     12313     12316     12319     12320
     12313     12316     12319     12321     12313     12316     12319     12322
     12314     12313     12316     12317     12314     12313     12316     12318
     12314     12313     12316     12319     12315     12313     12316     12317
     12315     12313     12316     12318     12315     12313     12316     12319
     12317     12316     12319     12320     12317     12316     12319     12321
     12317     12316     12319     12322     12318     12316     12319     12320
     12318     12316     12319     12321     12318     12316     12319     12322
     12323     12324     12339     12340     12323     12324     12339     12341
     12323     12324     12339     12345     12324     12323     12327     12328
     12324     12323     12327     12329     12324     12323     12327     12330
     12324     12323     12331     12332     12324     12323     12331     12333
     12324     12323     12331     12334     12324     12323     12335     12336
     12324     12323     12335     12337     12324     12323     12335     12338
     12324     12339     12345     12342     12325     12324     12323     12327
     12325     12324     12323     12331     12325     12324     12323     12335
     12325     12324     12339     12340     12325     12324     12339     12341
     12325     12324     12339     12345     12326     12324     12323     12327
     12326     12324     12323     12331     12326     12324     12323     12335
     12326     12324     12339     12340     12326     12324     12339     12341
     12326     12324     12339     12345     12327     12323     12324     12339
     12327     12323     12331     12332     12327     12323     12331     12333
     12327     12323     12331     12334     12327     12323     12335     12336
     12327     12323     12335     12337     12327     12323     12335     12338
     12328     12327     12323     12331     12328     12327     12323     12335
     12329     12327     12323     12331     12329     12327     12323     12335
     12330     12327     12323     12331     12330     12327     12323     12335
     12331     12323     12324     12339     12331     12323     12335     12336
     12331     12323     12335     12337     12331     12323     12335     12338
     12332     12331     12323     12335     12333     12331     12323     12335
     12334     12331     12323     12335     12335     12323     12324     12339
     12339     12345     12342     12343     12339     12345     12342     12344
     12339     12345     12342     12346     12340     12339     12345     12342
     12341     12339     12345     12342     12342     12346     12347     12348
     12342     12346     12347     12349     12342     12346     12347     12350
     12343     12342     12346     12347     12344     12342     12346     12347
     12345     12342     12346     12347     12346     12347     12350     12351
     12346     12347     12350     12352     12346     12347     12350     12358
     12347     12350     12352     12353     12347     12350     12358     12359
     12347     12350     12358     12360     12347     12350     12358     12361
     12348     12347     12350     12351     12348     12347     12350     12352
     12348     12347     12350     12358     12349     12347     12350     12351
     12349     12347     12350     12352     12349     12347     12350     12358
     12350     12352     12353     12354     12350     12352     12353     12355
     12350     12358     12361     12362     12351     12350     12352     12353
     12351     12350     12358     12359     12351     12350     12358     12360
     12351     12350     12358     12361     12352     12350     12358     12359
     12352     12350     12358     12360     12352     12350     12358     12361
     12352     12353     12355     12356     12352     12353     12355     12357
     12352     12353     12355     12367     12353     12352     12350     12358
     12353     12355     12367     12368     12353     12355     12367     12369
     12353     12355     12367     12370     12354     12353     12355     12356
     12354     12353     12355     12357     12354     12353     12355     12367
     12355     12367     12370     12371     12355     12367     12370     12372
     12355     12367     12370     12373     12356     12355     12367     12368
     12356     12355     12367     12369     12356     12355     12367     12370
     12357     12355     12367     12368     12357     12355     12367     12369
     12357     12355     12367     12370     12358     12361     12362     12363
     12358     12361     12362     12364     12359     12358     12361     12362
     12360     12358     12361     12362     12361     12362     12364     12365
     12361     12362     12364     12366     12361     12362     12364     12414
     12362     12364     12414     12415     12362     12364     12414     12416
     12362     12364     12414     12417     12363     12362     12364     12365
     12363     12362     12364     12366     12363     12362     12364     12414
     12364     12414     12417     12418     12364     12414     12417     12419
     12364     12414     12417     12420     12365     12364     12414     12415
     12365     12364     12414     12416     12365     12364     12414     12417
     12366     12364     12414     12415     12366     12364     12414     12416
     12366     12364     12414     12417     12367     12370     12373     12374
     12367     12370     12373     12375     12367     12370     12373     12376
     12368     12367     12370     12371     12368     12367     12370     12372
     12368     12367     12370     12373     12369     12367     12370     12371
     12369     12367     12370     12372     12369     12367     12370     12373
     12370     12373     12376     12377     12370     12373     12376     12378
     12370     12373     12376     12379     12371     12370     12373     12374
     12371     12370     12373     12375     12371     12370     12373     12376
     12372     12370     12373     12374     12372     12370     12373     12375
     12372     12370     12373     12376     12373     12376     12379     12380
     12373     12376     12379     12381     12373     12376     12379     12382
     12374     12373     12376     12377     12374     12373     12376     12378
     12374     12373     12376     12379     12375     12373     12376     12377
     12375     12373     12376     12378     12375     12373     12376     12379
     12376     12379     12382     12383     12376     12379     12382     12384
     12376     12379     12382     12385     12377     12376     12379     12380
     12377     12376     12379     12381     12377     12376     12379     12382
     12378     12376     12379     12380     12378     12376     12379     12381
     12378     12376     12379     12382     12379     12382     12385     12386
     12379     12382     12385     12387     12380     12379     12382     12383
     12380     12379     12382     12384     12380     12379     12382     12385
     12381     12379     12382     12383     12381     12379     12382     12384
     12381     12379     12382     12385     12382     12385     12387     12388
     12382     12385     12387     12389     12383     12382     12385     12386
     12383     12382     12385     12387     12384     12382     12385     12386
     12384     12382     12385     12387     12385     12387     12389     12390
     12385     12387     12389     12391     12385     12387     12389     12392
     12386     12385     12387     12388     12386     12385     12387     12389
     12387     12389     12392     12393     12387     12389     12392     12394
     12387     12389     12392     12395     12388     12387     12389     12390
     12388     12387     12389     12391     12388     12387     12389     12392
     12389     12392     12395     12396     12389     12392     12395     12397
     12389     12392     12395     12398     12390     12389     12392     12393
     12390     12389     12392     12394     12390     12389     12392     12395
     12391     12389     12392     12393     12391     12389     12392     12394
     12391     12389     12392     12395     12392     12395     12398     12399
     12392     12395     12398     12400     12392     12395     12398     12401
     12393     12392     12395     12396     12393     12392     12395     12397
     12393     12392     12395     12398     12394     12392     12395     12396
     12394     12392     12395     12397     12394     12392     12395     12398
     12395     12398     12401     12402     12395     12398     12401     12403
     12395     12398     12401     12404     12396     12395     12398     12399
     12396     12395     12398     12400     12396     12395     12398     12401
     12397     12395     12398     12399     12397     12395     12398     12400
     12397     12395     12398     12401     12398     12401     12404     12405
     12398     12401     12404     12406     12398     12401     12404     12407
     12399     12398     12401     12402     12399     12398     12401     12403
     12399     12398     12401     12404     12400     12398     12401     12402
     12400     12398     12401     12403     12400     12398     12401     12404
     12401     12404     12407     12408     12401     12404     12407     12409
     12401     12404     12407     12410     12402     12401     12404     12405
     12402     12401     12404     12406     12402     12401     12404     12407
     12403     12401     12404     12405     12403     12401     12404     12406
     12403     12401     12404     12407     12404     12407     12410     12411
     12404     12407     12410     12412     12404     12407     12410     12413
     12405     12404     12407     12408     12405     12404     12407     12409
     12405     12404     12407     12410     12406     12404     12407     12408
     12406     12404     12407     12409     12406     12404     12407     12410
     12408     12407     12410     12411     12408     12407     12410     12412
     12408     12407     12410     12413     12409     12407     12410     12411
     12409     12407     12410     12412     12409     12407     12410     12413
     12414     12417     12420     12421     12414     12417     12420     12422
     12414     12417     12420     12423     12415     12414     12417     12418
     12415     12414     12417     12419     12415     12414     12417     12420
     12416     12414     12417     12418     12416     12414     12417     12419
     12416     12414     12417     12420     12417     12420     12423     12424
     12417     12420     12423     12425     12417     12420     12423     12426
     12418     12417     12420     12421     12418     12417     12420     12422
     12418     12417     12420     12423     12419     12417     12420     12421
     12419     12417     12420     12422     12419     12417     12420     12423
     12420     12423     12426     12427     12420     12423     12426     12428
     12420     12423     12426     12429     12421     12420     12423     12424
     12421     12420     12423     12425     12421     12420     12423     12426
     12422     12420     12423     12424     12422     12420     12423     12425
     12422     12420     12423     12426     12423     12426     12429     12430
     12423     12426     12429     12431     12423     12426     12429     12432
     12424     12423     12426     12427     12424     12423     12426     12428
     12424     12423     12426     12429     12425     12423     12426     12427
     12425     12423     12426     12428     12425     12423     12426     12429
     12426     12429     12432     12433     12426     12429     12432     12434
     12426     12429     12432     12435     12427     12426     12429     12430
     12427     12426     12429     12431     12427     12426     12429     12432
     12428     12426     12429     12430     12428     12426     12429     12431
     12428     12426     12429     12432     12429     12432     12435     12436
     12429     12432     12435     12437     12429     12432     12435     12438
     12430     12429     12432     12433     12430     12429     12432     12434
     12430     12429     12432     12435     12431     12429     12432     12433
     12431     12429     12432     12434     12431     12429     12432     12435
     12432     12435     12438     12439     12432     12435     12438     12440
     12432     12435     12438     12441     12433     12432     12435     12436
     12433     12432     12435     12437     12433     12432     12435     12438
     12434     12432     12435     12436     12434     12432     12435     12437
     12434     12432     12435     12438     12435     12438     12441     12442
     12435     12438     12441     12443     12435     12438     12441     12444
     12436     12435     12438     12439     12436     12435     12438     12440
     12436     12435     12438     12441     12437     12435     12438     12439
     12437     12435     12438     12440     12437     12435     12438     12441
     12438     12441     12444     12445     12438     12441     12444     12446
     12438     12441     12444     12447     12439     12438     12441     12442
     12439     12438     12441     12443     12439     12438     12441     12444
     12440     12438     12441     12442     12440     12438     12441     12443
     12440     12438     12441     12444     12441     12444     12447     12448
     12441     12444     12447     12449     12441     12444     12447     12450
     12442     12441     12444     12445     12442     12441     12444     12446
     12442     12441     12444     12447     12443     12441     12444     12445
     12443     12441     12444     12446     12443     12441     12444     12447
     12444     12447     12450     12451     12444     12447     12450     12452
     12444     12447     12450     12453     12445     12444     12447     12448
     12445     12444     12447     12449     12445     12444     12447     12450
     12446     12444     12447     12448     12446     12444     12447     12449
     12446     12444     12447     12450     12447     12450     12453     12454
     12447     12450     12453     12455     12447     12450     12453     12456
     12448     12447     12450     12451     12448     12447     12450     12452
     12448     12447     12450     12453     12449     12447     12450     12451
     12449     12447     12450     12452     12449     12447     12450     12453
     12451     12450     12453     12454     12451     12450     12453     12455
     12451     12450     12453     12456     12452     12450     12453     12454
     12452     12450     12453     12455     12452     12450     12453     12456
     12457     12458     12473     12474     12457     12458     12473     12475
     12457     12458     12473     12479     12458     12457     12461     12462
     12458     12457     12461     12463     12458     12457     12461     12464
     12458     12457     12465     12466     12458     12457     12465     12467
     12458     12457     12465     12468     12458     12457     12469     12470
     12458     12457     12469     12471     12458     12457     12469     12472
     12458     12473     12479     12476     12459     12458     12457     12461
     12459     12458     12457     12465     12459     12458     12457     12469
     12459     12458     12473     12474     12459     12458     12473     12475
     12459     12458     12473     12479     12460     12458     12457     12461
     12460     12458     12457     12465     12460     12458     12457     12469
     12460     12458     12473     12474     12460     12458     12473     12475
     12460     12458     12473     12479     12461     12457     12458     12473
     12461     12457     12465     12466     12461     12457     12465     12467
     12461     12457     12465     12468     12461     12457     12469     12470
     12461     12457     12469     12471     12461     12457     12469     12472
     12462     12461     12457     12465     12462     12461     12457     12469
     12463     12461     12457     12465     12463     12461     12457     12469
     12464     12461     12457     12465     12464     12461     12457     12469
     12465     12457     12458     12473     12465     12457     12469     12470
     12465     12457     12469     12471     12465     12457     12469     12472
     12466     12465     12457     12469     12467     12465     12457     12469
     12468     12465     12457     12469     12469     12457     12458     12473
     12473     12479     12476     12477     12473     12479     12476     12478
     12473     12479     12476     12480     12474     12473     12479     12476
     12475     12473     12479     12476     12476     12480     12481     12482
     12476     12480     12481     12483     12476     12480     12481     12484
     12477     12476     12480     12481     12478     12476     12480     12481
     12479     12476     12480     12481     12480     12481     12484     12485
     12480     12481     12484     12486     12480     12481     12484     12492
     12481     12484     12486     12487     12481     12484     12492     12493
     12481     12484     12492     12494     12481     12484     12492     12495
     12482     12481     12484     12485     12482     12481     12484     12486
     12482     12481     12484     12492     12483     12481     12484     12485
     12483     12481     12484     12486     12483     12481     12484     12492
     12484     12486     12487     12488     12484     12486     12487     12489
     12484     12492     12495     12496     12485     12484     12486     12487
     12485     12484     12492     12493     12485     12484     12492     12494
     12485     12484     12492     12495     12486     12484     12492     12493
     12486     12484     12492     12494     12486     12484     12492     12495
     12486     12487     12489     12490     12486     12487     12489     12491
     12486     12487     12489     12501     12487     12486     12484     12492
     12487     12489     12501     12502     12487     12489     12501     12503
     12487     12489     12501     12504     12488     12487     12489     12490
     12488     12487     12489     12491     12488     12487     12489     12501
     12489     12501     12504     12505     12489     12501     12504     12506
     12489     12501     12504     12507     12490     12489     12501     12502
     12490     12489     12501     12503     12490     12489     12501     12504
     12491     12489     12501     12502     12491     12489     12501     12503
     12491     12489     12501     12504     12492     12495     12496     12497
     12492     12495     12496     12498     12493     12492     12495     12496
     12494     12492     12495     12496     12495     12496     12498     12499
     12495     12496     12498     12500     12495     12496     12498     12548
     12496     12498     12548     12549     12496     12498     12548     12550
     12496     12498     12548     12551     12497     12496     12498     12499
     12497     12496     12498     12500     12497     12496     12498     12548
     12498     12548     12551     12552     12498     12548     12551     12553
     12498     12548     12551     12554     12499     12498     12548     12549
     12499     12498     12548     12550     12499     12498     12548     12551
     12500     12498     12548     12549     12500     12498     12548     12550
     12500     12498     12548     12551     12501     12504     12507     12508
     12501     12504     12507     12509     12501     12504     12507     12510
     12502     12501     12504     12505     12502     12501     12504     12506
     12502     12501     12504     12507     12503     12501     12504     12505
     12503     12501     12504     12506     12503     12501     12504     12507
     12504     12507     12510     12511     12504     12507     12510     12512
     12504     12507     12510     12513     12505     12504     12507     12508
     12505     12504     12507     12509     12505     12504     12507     12510
     12506     12504     12507     12508     12506     12504     12507     12509
     12506     12504     12507     12510     12507     12510     12513     12514
     12507     12510     12513     12515     12507     12510     12513     12516
     12508     12507     12510     12511     12508     12507     12510     12512
     12508     12507     12510     12513     12509     12507     12510     12511
     12509     12507     12510     12512     12509     12507     12510     12513
     12510     12513     12516     12517     12510     12513     12516     12518
     12510     12513     12516     12519     12511     12510     12513     12514
     12511     12510     12513     12515     12511     12510     12513     12516
     12512     12510     12513     12514     12512     12510     12513     12515
     12512     12510     12513     12516     12513     12516     12519     12520
     12513     12516     12519     12521     12514     12513     12516     12517
     12514     12513     12516     12518     12514     12513     12516     12519
     12515     12513     12516     12517     12515     12513     12516     12518
     12515     12513     12516     12519     12516     12519     12521     12522
     12516     12519     12521     12523     12517     12516     12519     12520
     12517     12516     12519     12521     12518     12516     12519     12520
     12518     12516     12519     12521     12519     12521     12523     12524
     12519     12521     12523     12525     12519     12521     12523     12526
     12520     12519     12521     12522     12520     12519     12521     12523
     12521     12523     12526     12527     12521     12523     12526     12528
     12521     12523     12526     12529     12522     12521     12523     12524
     12522     12521     12523     12525     12522     12521     12523     12526
     12523     12526     12529     12530     12523     12526     12529     12531
     12523     12526     12529     12532     12524     12523     12526     12527
     12524     12523     12526     12528     12524     12523     12526     12529
     12525     12523     12526     12527     12525     12523     12526     12528
     12525     12523     12526     12529     12526     12529     12532     12533
     12526     12529     12532     12534     12526     12529     12532     12535
     12527     12526     12529     12530     12527     12526     12529     12531
     12527     12526     12529     12532     12528     12526     12529     12530
     12528     12526     12529     12531     12528     12526     12529     12532
     12529     12532     12535     12536     12529     12532     12535     12537
     12529     12532     12535     12538     12530     12529     12532     12533
     12530     12529     12532     12534     12530     12529     12532     12535
     12531     12529     12532     12533     12531     12529     12532     12534
     12531     12529     12532     12535     12532     12535     12538     12539
     12532     12535     12538     12540     12532     12535     12538     12541
     12533     12532     12535     12536     12533     12532     12535     12537
     12533     12532     12535     12538     12534     12532     12535     12536
     12534     12532     12535     12537     12534     12532     12535     12538
     12535     12538     12541     12542     12535     12538     12541     12543
     12535     12538     12541     12544     12536     12535     12538     12539
     12536     12535     12538     12540     12536     12535     12538     12541
     12537     12535     12538     12539     12537     12535     12538     12540
     12537     12535     12538     12541     12538     12541     12544     12545
     12538     12541     12544     12546     12538     12541     12544     12547
     12539     12538     12541     12542     12539     12538     12541     12543
     12539     12538     12541     12544     12540     12538     12541     12542
     12540     12538     12541     12543     12540     12538     12541     12544
     12542     12541     12544     12545     12542     12541     12544     12546
     12542     12541     12544     12547     12543     12541     12544     12545
     12543     12541     12544     12546     12543     12541     12544     12547
     12548     12551     12554     12555     12548     12551     12554     12556
     12548     12551     12554     12557     12549     12548     12551     12552
     12549     12548     12551     12553     12549     12548     12551     12554
     12550     12548     12551     12552     12550     12548     12551     12553
     12550     12548     12551     12554     12551     12554     12557     12558
     12551     12554     12557     12559     12551     12554     12557     12560
     12552     12551     12554     12555     12552     12551     12554     12556
     12552     12551     12554     12557     12553     12551     12554     12555
     12553     12551     12554     12556     12553     12551     12554     12557
     12554     12557     12560     12561     12554     12557     12560     12562
     12554     12557     12560     12563     12555     12554     12557     12558
     12555     12554     12557     12559     12555     12554     12557     12560
     12556     12554     12557     12558     12556     12554     12557     12559
     12556     12554     12557     12560     12557     12560     12563     12564
     12557     12560     12563     12565     12557     12560     12563     12566
     12558     12557     12560     12561     12558     12557     12560     12562
     12558     12557     12560     12563     12559     12557     12560     12561
     12559     12557     12560     12562     12559     12557     12560     12563
     12560     12563     12566     12567     12560     12563     12566     12568
     12560     12563     12566     12569     12561     12560     12563     12564
     12561     12560     12563     12565     12561     12560     12563     12566
     12562     12560     12563     12564     12562     12560     12563     12565
     12562     12560     12563     12566     12563     12566     12569     12570
     12563     12566     12569     12571     12563     12566     12569     12572
     12564     12563     12566     12567     12564     12563     12566     12568
     12564     12563     12566     12569     12565     12563     12566     12567
     12565     12563     12566     12568     12565     12563     12566     12569
     12566     12569     12572     12573     12566     12569     12572     12574
     12566     12569     12572     12575     12567     12566     12569     12570
     12567     12566     12569     12571     12567     12566     12569     12572
     12568     12566     12569     12570     12568     12566     12569     12571
     12568     12566     12569     12572     12569     12572     12575     12576
     12569     12572     12575     12577     12569     12572     12575     12578
     12570     12569     12572     12573     12570     12569     12572     12574
     12570     12569     12572     12575     12571     12569     12572     12573
     12571     12569     12572     12574     12571     12569     12572     12575
     12572     12575     12578     12579     12572     12575     12578     12580
     12572     12575     12578     12581     12573     12572     12575     12576
     12573     12572     12575     12577     12573     12572     12575     12578
     12574     12572     12575     12576     12574     12572     12575     12577
     12574     12572     12575     12578     12575     12578     12581     12582
     12575     12578     12581     12583     12575     12578     12581     12584
     12576     12575     12578     12579     12576     12575     12578     12580
     12576     12575     12578     12581     12577     12575     12578     12579
     12577     12575     12578     12580     12577     12575     12578     12581
     12578     12581     12584     12585     12578     12581     12584     12586
     12578     12581     12584     12587     12579     12578     12581     12582
     12579     12578     12581     12583     12579     12578     12581     12584
     12580     12578     12581     12582     12580     12578     12581     12583
     12580     12578     12581     12584     12581     12584     12587     12588
     12581     12584     12587     12589     12581     12584     12587     12590
     12582     12581     12584     12585     12582     12581     12584     12586
     12582     12581     12584     12587     12583     12581     12584     12585
     12583     12581     12584     12586     12583     12581     12584     12587
     12585     12584     12587     12588     12585     12584     12587     12589
     12585     12584     12587     12590     12586     12584     12587     12588
     12586     12584     12587     12589     12586     12584     12587     12590
     12591     12592     12607     12608     12591     12592     12607     12609
     12591     12592     12607     12613     12592     12591     12595     12596
     12592     12591     12595     12597     12592     12591     12595     12598
     12592     12591     12599     12600     12592     12591     12599     12601
     12592     12591     12599     12602     12592     12591     12603     12604
     12592     12591     12603     12605     12592     12591     12603     12606
     12592     12607     12613     12610     12593     12592     12591     12595
     12593     12592     12591     12599     12593     12592     12591     12603
     12593     12592     12607     12608     12593     12592     12607     12609
     12593     12592     12607     12613     12594     12592     12591     12595
     12594     12592     12591     12599     12594     12592     12591     12603
     12594     12592     12607     12608     12594     12592     12607     12609
     12594     12592     12607     12613     12595     12591     12592     12607
     12595     12591     12599     12600     12595     12591     12599     12601
     12595     12591     12599     12602     12595     12591     12603     12604
     12595     12591     12603     12605     12595     12591     12603     12606
     12596     12595     12591     12599     12596     12595     12591     12603
     12597     12595     12591     12599     12597     12595     12591     12603
     12598     12595     12591     12599     12598     12595     12591     12603
     12599     12591     12592     12607     12599     12591     12603     12604
     12599     12591     12603     12605     12599     12591     12603     12606
     12600     12599     12591     12603     12601     12599     12591     12603
     12602     12599     12591     12603     12603     12591     12592     12607
     12607     12613     12610     12611     12607     12613     12610     12612
     12607     12613     12610     12614     12608     12607     12613     12610
     12609     12607     12613     12610     12610     12614     12615     12616
     12610     12614     12615     12617     12610     12614     12615     12618
     12611     12610     12614     12615     12612     12610     12614     12615
     12613     12610     12614     12615     12614     12615     12618     12619
     12614     12615     12618     12620     12614     12615     12618     12626
     12615     12618     12620     12621     12615     12618     12626     12627
     12615     12618     12626     12628     12615     12618     12626     12629
     12616     12615     12618     12619     12616     12615     12618     12620
     12616     12615     12618     12626     12617     12615     12618     12619
     12617     12615     12618     12620     12617     12615     12618     12626
     12618     12620     12621     12622     12618     12620     12621     12623
     12618     12626     12629     12630     12619     12618     12620     12621
     12619     12618     12626     12627     12619     12618     12626     12628
     12619     12618     12626     12629     12620     12618     12626     12627
     12620     12618     12626     12628     12620     12618     12626     12629
     12620     12621     12623     12624     12620     12621     12623     12625
     12620     12621     12623     12635     12621     12620     12618     12626
     12621     12623     12635     12636     12621     12623     12635     12637
     12621     12623     12635     12638     12622     12621     12623     12624
     12622     12621     12623     12625     12622     12621     12623     12635
     12623     12635     12638     12639     12623     12635     12638     12640
     12623     12635     12638     12641     12624     12623     12635     12636
     12624     12623     12635     12637     12624     12623     12635     12638
     12625     12623     12635     12636     12625     12623     12635     12637
     12625     12623     12635     12638     12626     12629     12630     12631
     12626     12629     12630     12632     12627     12626     12629     12630
     12628     12626     12629     12630     12629     12630     12632     12633
     12629     12630     12632     12634     12629     12630     12632     12682
     12630     12632     12682     12683     12630     12632     12682     12684
     12630     12632     12682     12685     12631     12630     12632     12633
     12631     12630     12632     12634     12631     12630     12632     12682
     12632     12682     12685     12686     12632     12682     12685     12687
     12632     12682     12685     12688     12633     12632     12682     12683
     12633     12632     12682     12684     12633     12632     12682     12685
     12634     12632     12682     12683     12634     12632     12682     12684
     12634     12632     12682     12685     12635     12638     12641     12642
     12635     12638     12641     12643     12635     12638     12641     12644
     12636     12635     12638     12639     12636     12635     12638     12640
     12636     12635     12638     12641     12637     12635     12638     12639
     12637     12635     12638     12640     12637     12635     12638     12641
     12638     12641     12644     12645     12638     12641     12644     12646
     12638     12641     12644     12647     12639     12638     12641     12642
     12639     12638     12641     12643     12639     12638     12641     12644
     12640     12638     12641     12642     12640     12638     12641     12643
     12640     12638     12641     12644     12641     12644     12647     12648
     12641     12644     12647     12649     12641     12644     12647     12650
     12642     12641     12644     12645     12642     12641     12644     12646
     12642     12641     12644     12647     12643     12641     12644     12645
     12643     12641     12644     12646     12643     12641     12644     12647
     12644     12647     12650     12651     12644     12647     12650     12652
     12644     12647     12650     12653     12645     12644     12647     12648
     12645     12644     12647     12649     12645     12644     12647     12650
     12646     12644     12647     12648     12646     12644     12647     12649
     12646     12644     12647     12650     12647     12650     12653     12654
     12647     12650     12653     12655     12648     12647     12650     12651
     12648     12647     12650     12652     12648     12647     12650     12653
     12649     12647     12650     12651     12649     12647     12650     12652
     12649     12647     12650     12653     12650     12653     12655     12656
     12650     12653     12655     12657     12651     12650     12653     12654
     12651     12650     12653     12655     12652     12650     12653     12654
     12652     12650     12653     12655     12653     12655     12657     12658
     12653     12655     12657     12659     12653     12655     12657     12660
     12654     12653     12655     12656     12654     12653     12655     12657
     12655     12657     12660     12661     12655     12657     12660     12662
     12655     12657     12660     12663     12656     12655     12657     12658
     12656     12655     12657     12659     12656     12655     12657     12660
     12657     12660     12663     12664     12657     12660     12663     12665
     12657     12660     12663     12666     12658     12657     12660     12661
     12658     12657     12660     12662     12658     12657     12660     12663
     12659     12657     12660     12661     12659     12657     12660     12662
     12659     12657     12660     12663     12660     12663     12666     12667
     12660     12663     12666     12668     12660     12663     12666     12669
     12661     12660     12663     12664     12661     12660     12663     12665
     12661     12660     12663     12666     12662     12660     12663     12664
     12662     12660     12663     12665     12662     12660     12663     12666
     12663     12666     12669     12670     12663     12666     12669     12671
     12663     12666     12669     12672     12664     12663     12666     12667
     12664     12663     12666     12668     12664     12663     12666     12669
     12665     12663     12666     12667     12665     12663     12666     12668
     12665     12663     12666     12669     12666     12669     12672     12673
     12666     12669     12672     12674     12666     12669     12672     12675
     12667     12666     12669     12670     12667     12666     12669     12671
     12667     12666     12669     12672     12668     12666     12669     12670
     12668     12666     12669     12671     12668     12666     12669     12672
     12669     12672     12675     12676     12669     12672     12675     12677
     12669     12672     12675     12678     12670     12669     12672     12673
     12670     12669     12672     12674     12670     12669     12672     12675
     12671     12669     12672     12673     12671     12669     12672     12674
     12671     12669     12672     12675     12672     12675     12678     12679
     12672     12675     12678     12680     12672     12675     12678     12681
     12673     12672     12675     12676     12673     12672     12675     12677
     12673     12672     12675     12678     12674     12672     12675     12676
     12674     12672     12675     12677     12674     12672     12675     12678
     12676     12675     12678     12679     12676     12675     12678     12680
     12676     12675     12678     12681     12677     12675     12678     12679
     12677     12675     12678     12680     12677     12675     12678     12681
     12682     12685     12688     12689     12682     12685     12688     12690
     12682     12685     12688     12691     12683     12682     12685     12686
     12683     12682     12685     12687     12683     12682     12685     12688
     12684     12682     12685     12686     12684     12682     12685     12687
     12684     12682     12685     12688     12685     12688     12691     12692
     12685     12688     12691     12693     12685     12688     12691     12694
     12686     12685     12688     12689     12686     12685     12688     12690
     12686     12685     12688     12691     12687     12685     12688     12689
     12687     12685     12688     12690     12687     12685     12688     12691
     12688     12691     12694     12695     12688     12691     12694     12696
     12688     12691     12694     12697     12689     12688     12691     12692
     12689     12688     12691     12693     12689     12688     12691     12694
     12690     12688     12691     12692     12690     12688     12691     12693
     12690     12688     12691     12694     12691     12694     12697     12698
     12691     12694     12697     12699     12691     12694     12697     12700
     12692     12691     12694     12695     12692     12691     12694     12696
     12692     12691     12694     12697     12693     12691     12694     12695
     12693     12691     12694     12696     12693     12691     12694     12697
     12694     12697     12700     12701     12694     12697     12700     12702
     12694     12697     12700     12703     12695     12694     12697     12698
     12695     12694     12697     12699     12695     12694     12697     12700
     12696     12694     12697     12698     12696     12694     12697     12699
     12696     12694     12697     12700     12697     12700     12703     12704
     12697     12700     12703     12705     12697     12700     12703     12706
     12698     12697     12700     12701     12698     12697     12700     12702
     12698     12697     12700     12703     12699     12697     12700     12701
     12699     12697     12700     12702     12699     12697     12700     12703
     12700     12703     12706     12707     12700     12703     12706     12708
     12700     12703     12706     12709     12701     12700     12703     12704
     12701     12700     12703     12705     12701     12700     12703     12706
     12702     12700     12703     12704     12702     12700     12703     12705
     12702     12700     12703     12706     12703     12706     12709     12710
     12703     12706     12709     12711     12703     12706     12709     12712
     12704     12703     12706     12707     12704     12703     12706     12708
     12704     12703     12706     12709     12705     12703     12706     12707
     12705     12703     12706     12708     12705     12703     12706     12709
     12706     12709     12712     12713     12706     12709     12712     12714
     12706     12709     12712     12715     12707     12706     12709     12710
     12707     12706     12709     12711     12707     12706     12709     12712
     12708     12706     12709     12710     12708     12706     12709     12711
     12708     12706     12709     12712     12709     12712     12715     12716
     12709     12712     12715     12717     12709     12712     12715     12718
     12710     12709     12712     12713     12710     12709     12712     12714
     12710     12709     12712     12715     12711     12709     12712     12713
     12711     12709     12712     12714     12711     12709     12712     12715
     12712     12715     12718     12719     12712     12715     12718     12720
     12712     12715     12718     12721     12713     12712     12715     12716
     12713     12712     12715     12717     12713     12712     12715     12718
     12714     12712     12715     12716     12714     12712     12715     12717
     12714     12712     12715     12718     12715     12718     12721     12722
     12715     12718     12721     12723     12715     12718     12721     12724
     12716     12715     12718     12719     12716     12715     12718     12720
     12716     12715     12718     12721     12717     12715     12718     12719
     12717     12715     12718     12720     12717     12715     12718     12721
     12719     12718     12721     12722     12719     12718     12721     12723
     12719     12718     12721     12724     12720     12718     12721     12722
     12720     12718     12721     12723     12720     12718     12721     12724
     12725     12726     12741     12742     12725     12726     12741     12743
     12725     12726     12741     12747     12726     12725     12729     12730
     12726     12725     12729     12731     12726     12725     12729     12732
     12726     12725     12733     12734     12726     12725     12733     12735
     12726     12725     12733     12736     12726     12725     12737     12738
     12726     12725     12737     12739     12726     12725     12737     12740
     12726     12741     12747     12744     12727     12726     12725     12729
     12727     12726     12725     12733     12727     12726     12725     12737
     12727     12726     12741     12742     12727     12726     12741     12743
     12727     12726     12741     12747     12728     12726     12725     12729
     12728     12726     12725     12733     12728     12726     12725     12737
     12728     12726     12741     12742     12728     12726     12741     12743
     12728     12726     12741     12747     12729     12725     12726     12741
     12729     12725     12733     12734     12729     12725     12733     12735
     12729     12725     12733     12736     12729     12725     12737     12738
     12729     12725     12737     12739     12729     12725     12737     12740
     12730     12729     12725     12733     12730     12729     12725     12737
     12731     12729     12725     12733     12731     12729     12725     12737
     12732     12729     12725     12733     12732     12729     12725     12737
     12733     12725     12726     12741     12733     12725     12737     12738
     12733     12725     12737     12739     12733     12725     12737     12740
     12734     12733     12725     12737     12735     12733     12725     12737
     12736     12733     12725     12737     12737     12725     12726     12741
     12741     12747     12744     12745     12741     12747     12744     12746
     12741     12747     12744     12748     12742     12741     12747     12744
     12743     12741     12747     12744     12744     12748     12749     12750
     12744     12748     12749     12751     12744     12748     12749     12752
     12745     12744     12748     12749     12746     12744     12748     12749
     12747     12744     12748     12749     12748     12749     12752     12753
     12748     12749     12752     12754     12748     12749     12752     12760
     12749     12752     12754     12755     12749     12752     12760     12761
     12749     12752     12760     12762     12749     12752     12760     12763
     12750     12749     12752     12753     12750     12749     12752     12754
     12750     12749     12752     12760     12751     12749     12752     12753
     12751     12749     12752     12754     12751     12749     12752     12760
     12752     12754     12755     12756     12752     12754     12755     12757
     12752     12760     12763     12764     12753     12752     12754     12755
     12753     12752     12760     12761     12753     12752     12760     12762
     12753     12752     12760     12763     12754     12752     12760     12761
     12754     12752     12760     12762     12754     12752     12760     12763
     12754     12755     12757     12758     12754     12755     12757     12759
     12754     12755     12757     12769     12755     12754     12752     12760
     12755     12757     12769     12770     12755     12757     12769     12771
     12755     12757     12769     12772     12756     12755     12757     12758
     12756     12755     12757     12759     12756     12755     12757     12769
     12757     12769     12772     12773     12757     12769     12772     12774
     12757     12769     12772     12775     12758     12757     12769     12770
     12758     12757     12769     12771     12758     12757     12769     12772
     12759     12757     12769     12770     12759     12757     12769     12771
     12759     12757     12769     12772     12760     12763     12764     12765
     12760     12763     12764     12766     12761     12760     12763     12764
     12762     12760     12763     12764     12763     12764     12766     12767
     12763     12764     12766     12768     12763     12764     12766     12816
     12764     12766     12816     12817     12764     12766     12816     12818
     12764     12766     12816     12819     12765     12764     12766     12767
     12765     12764     12766     12768     12765     12764     12766     12816
     12766     12816     12819     12820     12766     12816     12819     12821
     12766     12816     12819     12822     12767     12766     12816     12817
     12767     12766     12816     12818     12767     12766     12816     12819
     12768     12766     12816     12817     12768     12766     12816     12818
     12768     12766     12816     12819     12769     12772     12775     12776
     12769     12772     12775     12777     12769     12772     12775     12778
     12770     12769     12772     12773     12770     12769     12772     12774
     12770     12769     12772     12775     12771     12769     12772     12773
     12771     12769     12772     12774     12771     12769     12772     12775
     12772     12775     12778     12779     12772     12775     12778     12780
     12772     12775     12778     12781     12773     12772     12775     12776
     12773     12772     12775     12777     12773     12772     12775     12778
     12774     12772     12775     12776     12774     12772     12775     12777
     12774     12772     12775     12778     12775     12778     12781     12782
     12775     12778     12781     12783     12775     12778     12781     12784
     12776     12775     12778     12779     12776     12775     12778     12780
     12776     12775     12778     12781     12777     12775     12778     12779
     12777     12775     12778     12780     12777     12775     12778     12781
     12778     12781     12784     12785     12778     12781     12784     12786
     12778     12781     12784     12787     12779     12778     12781     12782
     12779     12778     12781     12783     12779     12778     12781     12784
     12780     12778     12781     12782     12780     12778     12781     12783
     12780     12778     12781     12784     12781     12784     12787     12788
     12781     12784     12787     12789     12782     12781     12784     12785
     12782     12781     12784     12786     12782     12781     12784     12787
     12783     12781     12784     12785     12783     12781     12784     12786
     12783     12781     12784     12787     12784     12787     12789     12790
     12784     12787     12789     12791     12785     12784     12787     12788
     12785     12784     12787     12789     12786     12784     12787     12788
     12786     12784     12787     12789     12787     12789     12791     12792
     12787     12789     12791     12793     12787     12789     12791     12794
     12788     12787     12789     12790     12788     12787     12789     12791
     12789     12791     12794     12795     12789     12791     12794     12796
     12789     12791     12794     12797     12790     12789     12791     12792
     12790     12789     12791     12793     12790     12789     12791     12794
     12791     12794     12797     12798     12791     12794     12797     12799
     12791     12794     12797     12800     12792     12791     12794     12795
     12792     12791     12794     12796     12792     12791     12794     12797
     12793     12791     12794     12795     12793     12791     12794     12796
     12793     12791     12794     12797     12794     12797     12800     12801
     12794     12797     12800     12802     12794     12797     12800     12803
     12795     12794     12797     12798     12795     12794     12797     12799
     12795     12794     12797     12800     12796     12794     12797     12798
     12796     12794     12797     12799     12796     12794     12797     12800
     12797     12800     12803     12804     12797     12800     12803     12805
     12797     12800     12803     12806     12798     12797     12800     12801
     12798     12797     12800     12802     12798     12797     12800     12803
     12799     12797     12800     12801     12799     12797     12800     12802
     12799     12797     12800     12803     12800     12803     12806     12807
     12800     12803     12806     12808     12800     12803     12806     12809
     12801     12800     12803     12804     12801     12800     12803     12805
     12801     12800     12803     12806     12802     12800     12803     12804
     12802     12800     12803     12805     12802     12800     12803     12806
     12803     12806     12809     12810     12803     12806     12809     12811
     12803     12806     12809     12812     12804     12803     12806     12807
     12804     12803     12806     12808     12804     12803     12806     12809
     12805     12803     12806     12807     12805     12803     12806     12808
     12805     12803     12806     12809     12806     12809     12812     12813
     12806     12809     12812     12814     12806     12809     12812     12815
     12807     12806     12809     12810     12807     12806     12809     12811
     12807     12806     12809     12812     12808     12806     12809     12810
     12808     12806     12809     12811     12808     12806     12809     12812
     12810     12809     12812     12813     12810     12809     12812     12814
     12810     12809     12812     12815     12811     12809     12812     12813
     12811     12809     12812     12814     12811     12809     12812     12815
     12816     12819     12822     12823     12816     12819     12822     12824
     12816     12819     12822     12825     12817     12816     12819     12820
     12817     12816     12819     12821     12817     12816     12819     12822
     12818     12816     12819     12820     12818     12816     12819     12821
     12818     12816     12819     12822     12819     12822     12825     12826
     12819     12822     12825     12827     12819     12822     12825     12828
     12820     12819     12822     12823     12820     12819     12822     12824
     12820     12819     12822     12825     12821     12819     12822     12823
     12821     12819     12822     12824     12821     12819     12822     12825
     12822     12825     12828     12829     12822     12825     12828     12830
     12822     12825     12828     12831     12823     12822     12825     12826
     12823     12822     12825     12827     12823     12822     12825     12828
     12824     12822     12825     12826     12824     12822     12825     12827
     12824     12822     12825     12828     12825     12828     12831     12832
     12825     12828     12831     12833     12825     12828     12831     12834
     12826     12825     12828     12829     12826     12825     12828     12830
     12826     12825     12828     12831     12827     12825     12828     12829
     12827     12825     12828     12830     12827     12825     12828     12831
     12828     12831     12834     12835     12828     12831     12834     12836
     12828     12831     12834     12837     12829     12828     12831     12832
     12829     12828     12831     12833     12829     12828     12831     12834
     12830     12828     12831     12832     12830     12828     12831     12833
     12830     12828     12831     12834     12831     12834     12837     12838
     12831     12834     12837     12839     12831     12834     12837     12840
     12832     12831     12834     12835     12832     12831     12834     12836
     12832     12831     12834     12837     12833     12831     12834     12835
     12833     12831     12834     12836     12833     12831     12834     12837
     12834     12837     12840     12841     12834     12837     12840     12842
     12834     12837     12840     12843     12835     12834     12837     12838
     12835     12834     12837     12839     12835     12834     12837     12840
     12836     12834     12837     12838     12836     12834     12837     12839
     12836     12834     12837     12840     12837     12840     12843     12844
     12837     12840     12843     12845     12837     12840     12843     12846
     12838     12837     12840     12841     12838     12837     12840     12842
     12838     12837     12840     12843     12839     12837     12840     12841
     12839     12837     12840     12842     12839     12837     12840     12843
     12840     12843     12846     12847     12840     12843     12846     12848
     12840     12843     12846     12849     12841     12840     12843     12844
     12841     12840     12843     12845     12841     12840     12843     12846
     12842     12840     12843     12844     12842     12840     12843     12845
     12842     12840     12843     12846     12843     12846     12849     12850
     12843     12846     12849     12851     12843     12846     12849     12852
     12844     12843     12846     12847     12844     12843     12846     12848
     12844     12843     12846     12849     12845     12843     12846     12847
     12845     12843     12846     12848     12845     12843     12846     12849
     12846     12849     12852     12853     12846     12849     12852     12854
     12846     12849     12852     12855     12847     12846     12849     12850
     12847     12846     12849     12851     12847     12846     12849     12852
     12848     12846     12849     12850     12848     12846     12849     12851
     12848     12846     12849     12852     12849     12852     12855     12856
     12849     12852     12855     12857     12849     12852     12855     12858
     12850     12849     12852     12853     12850     12849     12852     12854
     12850     12849     12852     12855     12851     12849     12852     12853
     12851     12849     12852     12854     12851     12849     12852     12855
     12853     12852     12855     12856     12853     12852     12855     12857
     12853     12852     12855     12858     12854     12852     12855     12856
     12854     12852     12855     12857     12854     12852     12855     12858
     12859     12863     12865     12866     12859     12863     12865     12867
     12859     12863     12868     12869     12859     12863     12868     12870
     12859     12863     12868     12874     12860     12859     12863     12864
     12860     12859     12863     12865     12860     12859     12863     12868
     12861     12859     12863     12864     12861     12859     12863     12865
     12861     12859     12863     12868     12862     12859     12863     12864
     12862     12859     12863     12865     12862     12859     12863     12868
     12863     12868     12874     12871     12864     12863     12865     12866
     12864     12863     12865     12867     12864     12863     12868     12869
     12864     12863     12868     12870     12864     12863     12868     12874
     12865     12863     12868     12869     12865     12863     12868     12870
     12865     12863     12868     12874     12866     12865     12863     12868
     12867     12865     12863     12868     12868     12874     12871     12872
     12868     12874     12871     12873     12868     12874     12871     12875
     12869     12868     12874     12871     12870     12868     12874     12871
     12871     12875     12876     12877     12871     12875     12876     12878
     12871     12875     12876     12879     12872     12871     12875     12876
     12873     12871     12875     12876     12874     12871     12875     12876
     12875     12876     12879     12880     12875     12876     12879     12881
     12875     12876     12879     12887     12876     12879     12881     12882
     12876     12879     12887     12888     12876     12879     12887     12889
     12876     12879     12887     12890     12877     12876     12879     12880
     12877     12876     12879     12881     12877     12876     12879     12887
     12878     12876     12879     12880     12878     12876     12879     12881
     12878     12876     12879     12887     12879     12881     12882     12883
     12879     12881     12882     12884     12879     12887     12890     12891
     12880     12879     12881     12882     12880     12879     12887     12888
     12880     12879     12887     12889     12880     12879     12887     12890
     12881     12879     12887     12888     12881     12879     12887     12889
     12881     12879     12887     12890     12881     12882     12884     12885
     12881     12882     12884     12886     12881     12882     12884     12896
     12882     12881     12879     12887     12882     12884     12896     12897
     12882     12884     12896     12898     12882     12884     12896     12899
     12883     12882     12884     12885     12883     12882     12884     12886
     12883     12882     12884     12896     12884     12896     12899     12900
     12884     12896     12899     12901     12884     12896     12899     12902
     12885     12884     12896     12897     12885     12884     12896     12898
     12885     12884     12896     12899     12886     12884     12896     12897
     12886     12884     12896     12898     12886     12884     12896     12899
     12887     12890     12891     12892     12887     12890     12891     12893
     12888     12887     12890     12891     12889     12887     12890     12891
     12890     12891     12893     12894     12890     12891     12893     12895
     12890     12891     12893     12943     12891     12893     12943     12944
     12891     12893     12943     12945     12891     12893     12943     12946
     12892     12891     12893     12894     12892     12891     12893     12895
     12892     12891     12893     12943     12893     12943     12946     12947
     12893     12943     12946     12948     12893     12943     12946     12949
     12894     12893     12943     12944     12894     12893     12943     12945
     12894     12893     12943     12946     12895     12893     12943     12944
     12895     12893     12943     12945     12895     12893     12943     12946
     12896     12899     12902     12903     12896     12899     12902     12904
     12896     12899     12902     12905     12897     12896     12899     12900
     12897     12896     12899     12901     12897     12896     12899     12902
     12898     12896     12899     12900     12898     12896     12899     12901
     12898     12896     12899     12902     12899     12902     12905     12906
     12899     12902     12905     12907     12899     12902     12905     12908
     12900     12899     12902     12903     12900     12899     12902     12904
     12900     12899     12902     12905     12901     12899     12902     12903
     12901     12899     12902     12904     12901     12899     12902     12905
     12902     12905     12908     12909     12902     12905     12908     12910
     12902     12905     12908     12911     12903     12902     12905     12906
     12903     12902     12905     12907     12903     12902     12905     12908
     12904     12902     12905     12906     12904     12902     12905     12907
     12904     12902     12905     12908     12905     12908     12911     12912
     12905     12908     12911     12913     12905     12908     12911     12914
     12906     12905     12908     12909     12906     12905     12908     12910
     12906     12905     12908     12911     12907     12905     12908     12909
     12907     12905     12908     12910     12907     12905     12908     12911
     12908     12911     12914     12915     12908     12911     12914     12916
     12909     12908     12911     12912     12909     12908     12911     12913
     12909     12908     12911     12914     12910     12908     12911     12912
     12910     12908     12911     12913     12910     12908     12911     12914
     12911     12914     12916     12917     12911     12914     12916     12918
     12912     12911     12914     12915     12912     12911     12914     12916
     12913     12911     12914     12915     12913     12911     12914     12916
     12914     12916     12918     12919     12914     12916     12918     12920
     12914     12916     12918     12921     12915     12914     12916     12917
     12915     12914     12916     12918     12916     12918     12921     12922
     12916     12918     12921     12923     12916     12918     12921     12924
     12917     12916     12918     12919     12917     12916     12918     12920
     12917     12916     12918     12921     12918     12921     12924     12925
     12918     12921     12924     12926     12918     12921     12924     12927
     12919     12918     12921     12922     12919     12918     12921     12923
     12919     12918     12921     12924     12920     12918     12921     12922
     12920     12918     12921     12923     12920     12918     12921     12924
     12921     12924     12927     12928     12921     12924     12927     12929
     12921     12924     12927     12930     12922     12921     12924     12925
     12922     12921     12924     12926     12922     12921     12924     12927
     12923     12921     12924     12925     12923     12921     12924     12926
     12923     12921     12924     12927     12924     12927     12930     12931
     12924     12927     12930     12932     12924     12927     12930     12933
     12925     12924     12927     12928     12925     12924     12927     12929
     12925     12924     12927     12930     12926     12924     12927     12928
     12926     12924     12927     12929     12926     12924     12927     12930
     12927     12930     12933     12934     12927     12930     12933     12935
     12927     12930     12933     12936     12928     12927     12930     12931
     12928     12927     12930     12932     12928     12927     12930     12933
     12929     12927     12930     12931     12929     12927     12930     12932
     12929     12927     12930     12933     12930     12933     12936     12937
     12930     12933     12936     12938     12930     12933     12936     12939
     12931     12930     12933     12934     12931     12930     12933     12935
     12931     12930     12933     12936     12932     12930     12933     12934
     12932     12930     12933     12935     12932     12930     12933     12936
     12933     12936     12939     12940     12933     12936     12939     12941
     12933     12936     12939     12942     12934     12933     12936     12937
     12934     12933     12936     12938     12934     12933     12936     12939
     12935     12933     12936     12937     12935     12933     12936     12938
     12935     12933     12936     12939     12937     12936     12939     12940
     12937     12936     12939     12941     12937     12936     12939     12942
     12938     12936     12939     12940     12938     12936     12939     12941
     12938     12936     12939     12942     12943     12946     12949     12950
     12943     12946     12949     12951     12943     12946     12949     12952
     12944     12943     12946     12947     12944     12943     12946     12948
     12944     12943     12946     12949     12945     12943     12946     12947
     12945     12943     12946     12948     12945     12943     12946     12949
     12946     12949     12952     12953     12946     12949     12952     12954
     12946     12949     12952     12955     12947     12946     12949     12950
     12947     12946     12949     12951     12947     12946     12949     12952
     12948     12946     12949     12950     12948     12946     12949     12951
     12948     12946     12949     12952     12949     12952     12955     12956
     12949     12952     12955     12957     12949     12952     12955     12958
     12950     12949     12952     12953     12950     12949     12952     12954
     12950     12949     12952     12955     12951     12949     12952     12953
     12951     12949     12952     12954     12951     12949     12952     12955
     12952     12955     12958     12959     12952     12955     12958     12960
     12952     12955     12958     12961     12953     12952     12955     12956
     12953     12952     12955     12957     12953     12952     12955     12958
     12954     12952     12955     12956     12954     12952     12955     12957
     12954     12952     12955     12958     12955     12958     12961     12962
     12955     12958     12961     12963     12955     12958     12961     12964
     12956     12955     12958     12959     12956     12955     12958     12960
     12956     12955     12958     12961     12957     12955     12958     12959
     12957     12955     12958     12960     12957     12955     12958     12961
     12958     12961     12964     12965     12958     12961     12964     12966
     12958     12961     12964     12967     12959     12958     12961     12962
     12959     12958     12961     12963     12959     12958     12961     12964
     12960     12958     12961     12962     12960     12958     12961     12963
     12960     12958     12961     12964     12961     12964     12967     12968
     12961     12964     12967     12969     12961     12964     12967     12970
     12962     12961     12964     12965     12962     12961     12964     12966
     12962     12961     12964     12967     12963     12961     12964     12965
     12963     12961     12964     12966     12963     12961     12964     12967
     12964     12967     12970     12971     12964     12967     12970     12972
     12964     12967     12970     12973     12965     12964     12967     12968
     12965     12964     12967     12969     12965     12964     12967     12970
     12966     12964     12967     12968     12966     12964     12967     12969
     12966     12964     12967     12970     12967     12970     12973     12974
     12967     12970     12973     12975     12967     12970     12973     12976
     12968     12967     12970     12971     12968     12967     12970     12972
     12968     12967     12970     12973     12969     12967     12970     12971
     12969     12967     12970     12972     12969     12967     12970     12973
     12970     12973     12976     12977     12970     12973     12976     12978
     12970     12973     12976     12979     12971     12970     12973     12974
     12971     12970     12973     12975     12971     12970     12973     12976
     12972     12970     12973     12974     12972     12970     12973     12975
     12972     12970     12973     12976     12973     12976     12979     12980
     12973     12976     12979     12981     12973     12976     12979     12982
     12974     12973     12976     12977     12974     12973     12976     12978
     12974     12973     12976     12979     12975     12973     12976     12977
     12975     12973     12976     12978     12975     12973     12976     12979
     12976     12979     12982     12983     12976     12979     12982     12984
     12976     12979     12982     12985     12977     12976     12979     12980
     12977     12976     12979     12981     12977     12976     12979     12982
     12978     12976     12979     12980     12978     12976     12979     12981
     12978     12976     12979     12982     12980     12979     12982     12983
     12980     12979     12982     12984     12980     12979     12982     12985
     12981     12979     12982     12983     12981     12979     12982     12984
     12981     12979     12982     12985     12986     12987     13002     13003
     12986     12987     13002     13004     12986     12987     13002     13008
     12987     12986     12990     12991     12987     12986     12990     12992
     12987     12986     12990     12993     12987     12986     12994     12995
     12987     12986     12994     12996     12987     12986     12994     12997
     12987     12986     12998     12999     12987     12986     12998     13000
     12987     12986     12998     13001     12987     13002     13008     13005
     12988     12987     12986     12990     12988     12987     12986     12994
     12988     12987     12986     12998     12988     12987     13002     13003
     12988     12987     13002     13004     12988     12987     13002     13008
     12989     12987     12986     12990     12989     12987     12986     12994
     12989     12987     12986     12998     12989     12987     13002     13003
     12989     12987     13002     13004     12989     12987     13002     13008
     12990     12986     12987     13002     12990     12986     12994     12995
     12990     12986     12994     12996     12990     12986     12994     12997
     12990     12986     12998     12999     12990     12986     12998     13000
     12990     12986     12998     13001     12991     12990     12986     12994
     12991     12990     12986     12998     12992     12990     12986     12994
     12992     12990     12986     12998     12993     12990     12986     12994
     12993     12990     12986     12998     12994     12986     12987     13002
     12994     12986     12998     12999     12994     12986     12998     13000
     12994     12986     12998     13001     12995     12994     12986     12998
     12996     12994     12986     12998     12997     12994     12986     12998
     12998     12986     12987     13002     13002     13008     13005     13006
     13002     13008     13005     13007     13002     13008     13005     13009
     13003     13002     13008     13005     13004     13002     13008     13005
     13005     13009     13010     13011     13005     13009     13010     13012
     13005     13009     13010     13013     13006     13005     13009     13010
     13007     13005     13009     13010     13008     13005     13009     13010
     13009     13010     13013     13014     13009     13010     13013     13015
     13009     13010     13013     13021     13010     13013     13015     13016
     13010     13013     13021     13022     13010     13013     13021     13023
     13010     13013     13021     13024     13011     13010     13013     13014
     13011     13010     13013     13015     13011     13010     13013     13021
     13012     13010     13013     13014     13012     13010     13013     13015
     13012     13010     13013     13021     13013     13015     13016     13017
     13013     13015     13016     13018     13013     13021     13024     13025
     13014     13013     13015     13016     13014     13013     13021     13022
     13014     13013     13021     13023     13014     13013     13021     13024
     13015     13013     13021     13022     13015     13013     13021     13023
     13015     13013     13021     13024     13015     13016     13018     13019
     13015     13016     13018     13020     13015     13016     13018     13030
     13016     13015     13013     13021     13016     13018     13030     13031
     13016     13018     13030     13032     13016     13018     13030     13033
     13017     13016     13018     13019     13017     13016     13018     13020
     13017     13016     13018     13030     13018     13030     13033     13034
     13018     13030     13033     13035     13018     13030     13033     13036
     13019     13018     13030     13031     13019     13018     13030     13032
     13019     13018     13030     13033     13020     13018     13030     13031
     13020     13018     13030     13032     13020     13018     13030     13033
     13021     13024     13025     13026     13021     13024     13025     13027
     13022     13021     13024     13025     13023     13021     13024     13025
     13024     13025     13027     13028     13024     13025     13027     13029
     13024     13025     13027     13077     13025     13027     13077     13078
     13025     13027     13077     13079     13025     13027     13077     13080
     13026     13025     13027     13028     13026     13025     13027     13029
     13026     13025     13027     13077     13027     13077     13080     13081
     13027     13077     13080     13082     13027     13077     13080     13083
     13028     13027     13077     13078     13028     13027     13077     13079
     13028     13027     13077     13080     13029     13027     13077     13078
     13029     13027     13077     13079     13029     13027     13077     13080
     13030     13033     13036     13037     13030     13033     13036     13038
     13030     13033     13036     13039     13031     13030     13033     13034
     13031     13030     13033     13035     13031     13030     13033     13036
     13032     13030     13033     13034     13032     13030     13033     13035
     13032     13030     13033     13036     13033     13036     13039     13040
     13033     13036     13039     13041     13033     13036     13039     13042
     13034     13033     13036     13037     13034     13033     13036     13038
     13034     13033     13036     13039     13035     13033     13036     13037
     13035     13033     13036     13038     13035     13033     13036     13039
     13036     13039     13042     13043     13036     13039     13042     13044
     13036     13039     13042     13045     13037     13036     13039     13040
     13037     13036     13039     13041     13037     13036     13039     13042
     13038     13036     13039     13040     13038     13036     13039     13041
     13038     13036     13039     13042     13039     13042     13045     13046
     13039     13042     13045     13047     13039     13042     13045     13048
     13040     13039     13042     13043     13040     13039     13042     13044
     13040     13039     13042     13045     13041     13039     13042     13043
     13041     13039     13042     13044     13041     13039     13042     13045
     13042     13045     13048     13049     13042     13045     13048     13050
     13043     13042     13045     13046     13043     13042     13045     13047
     13043     13042     13045     13048     13044     13042     13045     13046
     13044     13042     13045     13047     13044     13042     13045     13048
     13045     13048     13050     13051     13045     13048     13050     13052
     13046     13045     13048     13049     13046     13045     13048     13050
     13047     13045     13048     13049     13047     13045     13048     13050
     13048     13050     13052     13053     13048     13050     13052     13054
     13048     13050     13052     13055     13049     13048     13050     13051
     13049     13048     13050     13052     13050     13052     13055     13056
     13050     13052     13055     13057     13050     13052     13055     13058
     13051     13050     13052     13053     13051     13050     13052     13054
     13051     13050     13052     13055     13052     13055     13058     13059
     13052     13055     13058     13060     13052     13055     13058     13061
     13053     13052     13055     13056     13053     13052     13055     13057
     13053     13052     13055     13058     13054     13052     13055     13056
     13054     13052     13055     13057     13054     13052     13055     13058
     13055     13058     13061     13062     13055     13058     13061     13063
     13055     13058     13061     13064     13056     13055     13058     13059
     13056     13055     13058     13060     13056     13055     13058     13061
     13057     13055     13058     13059     13057     13055     13058     13060
     13057     13055     13058     13061     13058     13061     13064     13065
     13058     13061     13064     13066     13058     13061     13064     13067
     13059     13058     13061     13062     13059     13058     13061     13063
     13059     13058     13061     13064     13060     13058     13061     13062
     13060     13058     13061     13063     13060     13058     13061     13064
     13061     13064     13067     13068     13061     13064     13067     13069
     13061     13064     13067     13070     13062     13061     13064     13065
     13062     13061     13064     13066     13062     13061     13064     13067
     13063     13061     13064     13065     13063     13061     13064     13066
     13063     13061     13064     13067     13064     13067     13070     13071
     13064     13067     13070     13072     13064     13067     13070     13073
     13065     13064     13067     13068     13065     13064     13067     13069
     13065     13064     13067     13070     13066     13064     13067     13068
     13066     13064     13067     13069     13066     13064     13067     13070
     13067     13070     13073     13074     13067     13070     13073     13075
     13067     13070     13073     13076     13068     13067     13070     13071
     13068     13067     13070     13072     13068     13067     13070     13073
     13069     13067     13070     13071     13069     13067     13070     13072
     13069     13067     13070     13073     13071     13070     13073     13074
     13071     13070     13073     13075     13071     13070     13073     13076
     13072     13070     13073     13074     13072     13070     13073     13075
     13072     13070     13073     13076     13077     13080     13083     13084
     13077     13080     13083     13085     13077     13080     13083     13086
     13078     13077     13080     13081     13078     13077     13080     13082
     13078     13077     13080     13083     13079     13077     13080     13081
     13079     13077     13080     13082     13079     13077     13080     13083
     13080     13083     13086     13087     13080     13083     13086     13088
     13080     13083     13086     13089     13081     13080     13083     13084
     13081     13080     13083     13085     13081     13080     13083     13086
     13082     13080     13083     13084     13082     13080     13083     13085
     13082     13080     13083     13086     13083     13086     13089     13090
     13083     13086     13089     13091     13083     13086     13089     13092
     13084     13083     13086     13087     13084     13083     13086     13088
     13084     13083     13086     13089     13085     13083     13086     13087
     13085     13083     13086     13088     13085     13083     13086     13089
     13086     13089     13092     13093     13086     13089     13092     13094
     13086     13089     13092     13095     13087     13086     13089     13090
     13087     13086     13089     13091     13087     13086     13089     13092
     13088     13086     13089     13090     13088     13086     13089     13091
     13088     13086     13089     13092     13089     13092     13095     13096
     13089     13092     13095     13097     13089     13092     13095     13098
     13090     13089     13092     13093     13090     13089     13092     13094
     13090     13089     13092     13095     13091     13089     13092     13093
     13091     13089     13092     13094     13091     13089     13092     13095
     13092     13095     13098     13099     13092     13095     13098     13100
     13092     13095     13098     13101     13093     13092     13095     13096
     13093     13092     13095     13097     13093     13092     13095     13098
     13094     13092     13095     13096     13094     13092     13095     13097
     13094     13092     13095     13098     13095     13098     13101     13102
     13095     13098     13101     13103     13095     13098     13101     13104
     13096     13095     13098     13099     13096     13095     13098     13100
     13096     13095     13098     13101     13097     13095     13098     13099
     13097     13095     13098     13100     13097     13095     13098     13101
     13098     13101     13104     13105     13098     13101     13104     13106
     13098     13101     13104     13107     13099     13098     13101     13102
     13099     13098     13101     13103     13099     13098     13101     13104
     13100     13098     13101     13102     13100     13098     13101     13103
     13100     13098     13101     13104     13101     13104     13107     13108
     13101     13104     13107     13109     13101     13104     13107     13110
     13102     13101     13104     13105     13102     13101     13104     13106
     13102     13101     13104     13107     13103     13101     13104     13105
     13103     13101     13104     13106     13103     13101     13104     13107
     13104     13107     13110     13111     13104     13107     13110     13112
     13104     13107     13110     13113     13105     13104     13107     13108
     13105     13104     13107     13109     13105     13104     13107     13110
     13106     13104     13107     13108     13106     13104     13107     13109
     13106     13104     13107     13110     13107     13110     13113     13114
     13107     13110     13113     13115     13107     13110     13113     13116
     13108     13107     13110     13111     13108     13107     13110     13112
     13108     13107     13110     13113     13109     13107     13110     13111
     13109     13107     13110     13112     13109     13107     13110     13113
     13110     13113     13116     13117     13110     13113     13116     13118
     13110     13113     13116     13119     13111     13110     13113     13114
     13111     13110     13113     13115     13111     13110     13113     13116
     13112     13110     13113     13114     13112     13110     13113     13115
     13112     13110     13113     13116     13114     13113     13116     13117
     13114     13113     13116     13118     13114     13113     13116     13119
     13115     13113     13116     13117     13115     13113     13116     13118
     13115     13113     13116     13119     13120     13121     13136     13137
     13120     13121     13136     13138     13120     13121     13136     13142
     13121     13120     13124     13125     13121     13120     13124     13126
     13121     13120     13124     13127     13121     13120     13128     13129
     13121     13120     13128     13130     13121     13120     13128     13131
     13121     13120     13132     13133     13121     13120     13132     13134
     13121     13120     13132     13135     13121     13136     13142     13139
     13122     13121     13120     13124     13122     13121     13120     13128
     13122     13121     13120     13132     13122     13121     13136     13137
     13122     13121     13136     13138     13122     13121     13136     13142
     13123     13121     13120     13124     13123     13121     13120     13128
     13123     13121     13120     13132     13123     13121     13136     13137
     13123     13121     13136     13138     13123     13121     13136     13142
     13124     13120     13121     13136     13124     13120     13128     13129
     13124     13120     13128     13130     13124     13120     13128     13131
     13124     13120     13132     13133     13124     13120     13132     13134
     13124     13120     13132     13135     13125     13124     13120     13128
     13125     13124     13120     13132     13126     13124     13120     13128
     13126     13124     13120     13132     13127     13124     13120     13128
     13127     13124     13120     13132     13128     13120     13121     13136
     13128     13120     13132     13133     13128     13120     13132     13134
     13128     13120     13132     13135     13129     13128     13120     13132
     13130     13128     13120     13132     13131     13128     13120     13132
     13132     13120     13121     13136     13136     13142     13139     13140
     13136     13142     13139     13141     13136     13142     13139     13143
     13137     13136     13142     13139     13138     13136     13142     13139
     13139     13143     13144     13145     13139     13143     13144     13146
     13139     13143     13144     13147     13140     13139     13143     13144
     13141     13139     13143     13144     13142     13139     13143     13144
     13143     13144     13147     13148     13143     13144     13147     13149
     13143     13144     13147     13155     13144     13147     13149     13150
     13144     13147     13155     13156     13144     13147     13155     13157
     13144     13147     13155     13158     13145     13144     13147     13148
     13145     13144     13147     13149     13145     13144     13147     13155
     13146     13144     13147     13148     13146     13144     13147     13149
     13146     13144     13147     13155     13147     13149     13150     13151
     13147     13149     13150     13152     13147     13155     13158     13159
     13148     13147     13149     13150     13148     13147     13155     13156
     13148     13147     13155     13157     13148     13147     13155     13158
     13149     13147     13155     13156     13149     13147     13155     13157
     13149     13147     13155     13158     13149     13150     13152     13153
     13149     13150     13152     13154     13149     13150     13152     13164
     13150     13149     13147     13155     13150     13152     13164     13165
     13150     13152     13164     13166     13150     13152     13164     13167
     13151     13150     13152     13153     13151     13150     13152     13154
     13151     13150     13152     13164     13152     13164     13167     13168
     13152     13164     13167     13169     13152     13164     13167     13170
     13153     13152     13164     13165     13153     13152     13164     13166
     13153     13152     13164     13167     13154     13152     13164     13165
     13154     13152     13164     13166     13154     13152     13164     13167
     13155     13158     13159     13160     13155     13158     13159     13161
     13156     13155     13158     13159     13157     13155     13158     13159
     13158     13159     13161     13162     13158     13159     13161     13163
     13158     13159     13161     13211     13159     13161     13211     13212
     13159     13161     13211     13213     13159     13161     13211     13214
     13160     13159     13161     13162     13160     13159     13161     13163
     13160     13159     13161     13211     13161     13211     13214     13215
     13161     13211     13214     13216     13161     13211     13214     13217
     13162     13161     13211     13212     13162     13161     13211     13213
     13162     13161     13211     13214     13163     13161     13211     13212
     13163     13161     13211     13213     13163     13161     13211     13214
     13164     13167     13170     13171     13164     13167     13170     13172
     13164     13167     13170     13173     13165     13164     13167     13168
     13165     13164     13167     13169     13165     13164     13167     13170
     13166     13164     13167     13168     13166     13164     13167     13169
     13166     13164     13167     13170     13167     13170     13173     13174
     13167     13170     13173     13175     13167     13170     13173     13176
     13168     13167     13170     13171     13168     13167     13170     13172
     13168     13167     13170     13173     13169     13167     13170     13171
     13169     13167     13170     13172     13169     13167     13170     13173
     13170     13173     13176     13177     13170     13173     13176     13178
     13170     13173     13176     13179     13171     13170     13173     13174
     13171     13170     13173     13175     13171     13170     13173     13176
     13172     13170     13173     13174     13172     13170     13173     13175
     13172     13170     13173     13176     13173     13176     13179     13180
     13173     13176     13179     13181     13173     13176     13179     13182
     13174     13173     13176     13177     13174     13173     13176     13178
     13174     13173     13176     13179     13175     13173     13176     13177
     13175     13173     13176     13178     13175     13173     13176     13179
     13176     13179     13182     13183     13176     13179     13182     13184
     13177     13176     13179     13180     13177     13176     13179     13181
     13177     13176     13179     13182     13178     13176     13179     13180
     13178     13176     13179     13181     13178     13176     13179     13182
     13179     13182     13184     13185     13179     13182     13184     13186
     13180     13179     13182     13183     13180     13179     13182     13184
     13181     13179     13182     13183     13181     13179     13182     13184
     13182     13184     13186     13187     13182     13184     13186     13188
     13182     13184     13186     13189     13183     13182     13184     13185
     13183     13182     13184     13186     13184     13186     13189     13190
     13184     13186     13189     13191     13184     13186     13189     13192
     13185     13184     13186     13187     13185     13184     13186     13188
     13185     13184     13186     13189     13186     13189     13192     13193
     13186     13189     13192     13194     13186     13189     13192     13195
     13187     13186     13189     13190     13187     13186     13189     13191
     13187     13186     13189     13192     13188     13186     13189     13190
     13188     13186     13189     13191     13188     13186     13189     13192
     13189     13192     13195     13196     13189     13192     13195     13197
     13189     13192     13195     13198     13190     13189     13192     13193
     13190     13189     13192     13194     13190     13189     13192     13195
     13191     13189     13192     13193     13191     13189     13192     13194
     13191     13189     13192     13195     13192     13195     13198     13199
     13192     13195     13198     13200     13192     13195     13198     13201
     13193     13192     13195     13196     13193     13192     13195     13197
     13193     13192     13195     13198     13194     13192     13195     13196
     13194     13192     13195     13197     13194     13192     13195     13198
     13195     13198     13201     13202     13195     13198     13201     13203
     13195     13198     13201     13204     13196     13195     13198     13199
     13196     13195     13198     13200     13196     13195     13198     13201
     13197     13195     13198     13199     13197     13195     13198     13200
     13197     13195     13198     13201     13198     13201     13204     13205
     13198     13201     13204     13206     13198     13201     13204     13207
     13199     13198     13201     13202     13199     13198     13201     13203
     13199     13198     13201     13204     13200     13198     13201     13202
     13200     13198     13201     13203     13200     13198     13201     13204
     13201     13204     13207     13208     13201     13204     13207     13209
     13201     13204     13207     13210     13202     13201     13204     13205
     13202     13201     13204     13206     13202     13201     13204     13207
     13203     13201     13204     13205     13203     13201     13204     13206
     13203     13201     13204     13207     13205     13204     13207     13208
     13205     13204     13207     13209     13205     13204     13207     13210
     13206     13204     13207     13208     13206     13204     13207     13209
     13206     13204     13207     13210     13211     13214     13217     13218
     13211     13214     13217     13219     13211     13214     13217     13220
     13212     13211     13214     13215     13212     13211     13214     13216
     13212     13211     13214     13217     13213     13211     13214     13215
     13213     13211     13214     13216     13213     13211     13214     13217
     13214     13217     13220     13221     13214     13217     13220     13222
     13214     13217     13220     13223     13215     13214     13217     13218
     13215     13214     13217     13219     13215     13214     13217     13220
     13216     13214     13217     13218     13216     13214     13217     13219
     13216     13214     13217     13220     13217     13220     13223     13224
     13217     13220     13223     13225     13217     13220     13223     13226
     13218     13217     13220     13221     13218     13217     13220     13222
     13218     13217     13220     13223     13219     13217     13220     13221
     13219     13217     13220     13222     13219     13217     13220     13223
     13220     13223     13226     13227     13220     13223     13226     13228
     13220     13223     13226     13229     13221     13220     13223     13224
     13221     13220     13223     13225     13221     13220     13223     13226
     13222     13220     13223     13224     13222     13220     13223     13225
     13222     13220     13223     13226     13223     13226     13229     13230
     13223     13226     13229     13231     13223     13226     13229     13232
     13224     13223     13226     13227     13224     13223     13226     13228
     13224     13223     13226     13229     13225     13223     13226     13227
     13225     13223     13226     13228     13225     13223     13226     13229
     13226     13229     13232     13233     13226     13229     13232     13234
     13226     13229     13232     13235     13227     13226     13229     13230
     13227     13226     13229     13231     13227     13226     13229     13232
     13228     13226     13229     13230     13228     13226     13229     13231
     13228     13226     13229     13232     13229     13232     13235     13236
     13229     13232     13235     13237     13229     13232     13235     13238
     13230     13229     13232     13233     13230     13229     13232     13234
     13230     13229     13232     13235     13231     13229     13232     13233
     13231     13229     13232     13234     13231     13229     13232     13235
     13232     13235     13238     13239     13232     13235     13238     13240
     13232     13235     13238     13241     13233     13232     13235     13236
     13233     13232     13235     13237     13233     13232     13235     13238
     13234     13232     13235     13236     13234     13232     13235     13237
     13234     13232     13235     13238     13235     13238     13241     13242
     13235     13238     13241     13243     13235     13238     13241     13244
     13236     13235     13238     13239     13236     13235     13238     13240
     13236     13235     13238     13241     13237     13235     13238     13239
     13237     13235     13238     13240     13237     13235     13238     13241
     13238     13241     13244     13245     13238     13241     13244     13246
     13238     13241     13244     13247     13239     13238     13241     13242
     13239     13238     13241     13243     13239     13238     13241     13244
     13240     13238     13241     13242     13240     13238     13241     13243
     13240     13238     13241     13244     13241     13244     13247     13248
     13241     13244     13247     13249     13241     13244     13247     13250
     13242     13241     13244     13245     13242     13241     13244     13246
     13242     13241     13244     13247     13243     13241     13244     13245
     13243     13241     13244     13246     13243     13241     13244     13247
     13244     13247     13250     13251     13244     13247     13250     13252
     13244     13247     13250     13253     13245     13244     13247     13248
     13245     13244     13247     13249     13245     13244     13247     13250
     13246     13244     13247     13248     13246     13244     13247     13249
     13246     13244     13247     13250     13248     13247     13250     13251
     13248     13247     13250     13252     13248     13247     13250     13253
     13249     13247     13250     13251     13249     13247     13250     13252
     13249     13247     13250     13253     13254     13255     13270     13271
     13254     13255     13270     13272     13254     13255     13270     13276
     13255     13254     13258     13259     13255     13254     13258     13260
     13255     13254     13258     13261     13255     13254     13262     13263
     13255     13254     13262     13264     13255     13254     13262     13265
     13255     13254     13266     13267     13255     13254     13266     13268
     13255     13254     13266     13269     13255     13270     13276     13273
     13256     13255     13254     13258     13256     13255     13254     13262
     13256     13255     13254     13266     13256     13255     13270     13271
     13256     13255     13270     13272     13256     13255     13270     13276
     13257     13255     13254     13258     13257     13255     13254     13262
     13257     13255     13254     13266     13257     13255     13270     13271
     13257     13255     13270     13272     13257     13255     13270     13276
     13258     13254     13255     13270     13258     13254     13262     13263
     13258     13254     13262     13264     13258     13254     13262     13265
     13258     13254     13266     13267     13258     13254     13266     13268
     13258     13254     13266     13269     13259     13258     13254     13262
     13259     13258     13254     13266     13260     13258     13254     13262
     13260     13258     13254     13266     13261     13258     13254     13262
     13261     13258     13254     13266     13262     13254     13255     13270
     13262     13254     13266     13267     13262     13254     13266     13268
     13262     13254     13266     13269     13263     13262     13254     13266
     13264     13262     13254     13266     13265     13262     13254     13266
     13266     13254     13255     13270     13270     13276     13273     13274
     13270     13276     13273     13275     13270     13276     13273     13277
     13271     13270     13276     13273     13272     13270     13276     13273
     13273     13277     13278     13279     13273     13277     13278     13280
     13273     13277     13278     13281     13274     13273     13277     13278
     13275     13273     13277     13278     13276     13273     13277     13278
     13277     13278     13281     13282     13277     13278     13281     13283
     13277     13278     13281     13289     13278     13281     13283     13284
     13278     13281     13289     13290     13278     13281     13289     13291
     13278     13281     13289     13292     13279     13278     13281     13282
     13279     13278     13281     13283     13279     13278     13281     13289
     13280     13278     13281     13282     13280     13278     13281     13283
     13280     13278     13281     13289     13281     13283     13284     13285
     13281     13283     13284     13286     13281     13289     13292     13293
     13282     13281     13283     13284     13282     13281     13289     13290
     13282     13281     13289     13291     13282     13281     13289     13292
     13283     13281     13289     13290     13283     13281     13289     13291
     13283     13281     13289     13292     13283     13284     13286     13287
     13283     13284     13286     13288     13283     13284     13286     13298
     13284     13283     13281     13289     13284     13286     13298     13299
     13284     13286     13298     13300     13284     13286     13298     13301
     13285     13284     13286     13287     13285     13284     13286     13288
     13285     13284     13286     13298     13286     13298     13301     13302
     13286     13298     13301     13303     13286     13298     13301     13304
     13287     13286     13298     13299     13287     13286     13298     13300
     13287     13286     13298     13301     13288     13286     13298     13299
     13288     13286     13298     13300     13288     13286     13298     13301
     13289     13292     13293     13294     13289     13292     13293     13295
     13290     13289     13292     13293     13291     13289     13292     13293
     13292     13293     13295     13296     13292     13293     13295     13297
     13292     13293     13295     13345     13293     13295     13345     13346
     13293     13295     13345     13347     13293     13295     13345     13348
     13294     13293     13295     13296     13294     13293     13295     13297
     13294     13293     13295     13345     13295     13345     13348     13349
     13295     13345     13348     13350     13295     13345     13348     13351
     13296     13295     13345     13346     13296     13295     13345     13347
     13296     13295     13345     13348     13297     13295     13345     13346
     13297     13295     13345     13347     13297     13295     13345     13348
     13298     13301     13304     13305     13298     13301     13304     13306
     13298     13301     13304     13307     13299     13298     13301     13302
     13299     13298     13301     13303     13299     13298     13301     13304
     13300     13298     13301     13302     13300     13298     13301     13303
     13300     13298     13301     13304     13301     13304     13307     13308
     13301     13304     13307     13309     13301     13304     13307     13310
     13302     13301     13304     13305     13302     13301     13304     13306
     13302     13301     13304     13307     13303     13301     13304     13305
     13303     13301     13304     13306     13303     13301     13304     13307
     13304     13307     13310     13311     13304     13307     13310     13312
     13304     13307     13310     13313     13305     13304     13307     13308
     13305     13304     13307     13309     13305     13304     13307     13310
     13306     13304     13307     13308     13306     13304     13307     13309
     13306     13304     13307     13310     13307     13310     13313     13314
     13307     13310     13313     13315     13307     13310     13313     13316
     13308     13307     13310     13311     13308     13307     13310     13312
     13308     13307     13310     13313     13309     13307     13310     13311
     13309     13307     13310     13312     13309     13307     13310     13313
     13310     13313     13316     13317     13310     13313     13316     13318
     13311     13310     13313     13314     13311     13310     13313     13315
     13311     13310     13313     13316     13312     13310     13313     13314
     13312     13310     13313     13315     13312     13310     13313     13316
     13313     13316     13318     13319     13313     13316     13318     13320
     13314     13313     13316     13317     13314     13313     13316     13318
     13315     13313     13316     13317     13315     13313     13316     13318
     13316     13318     13320     13321     13316     13318     13320     13322
     13316     13318     13320     13323     13317     13316     13318     13319
     13317     13316     13318     13320     13318     13320     13323     13324
     13318     13320     13323     13325     13318     13320     13323     13326
     13319     13318     13320     13321     13319     13318     13320     13322
     13319     13318     13320     13323     13320     13323     13326     13327
     13320     13323     13326     13328     13320     13323     13326     13329
     13321     13320     13323     13324     13321     13320     13323     13325
     13321     13320     13323     13326     13322     13320     13323     13324
     13322     13320     13323     13325     13322     13320     13323     13326
     13323     13326     13329     13330     13323     13326     13329     13331
     13323     13326     13329     13332     13324     13323     13326     13327
     13324     13323     13326     13328     13324     13323     13326     13329
     13325     13323     13326     13327     13325     13323     13326     13328
     13325     13323     13326     13329     13326     13329     13332     13333
     13326     13329     13332     13334     13326     13329     13332     13335
     13327     13326     13329     13330     13327     13326     13329     13331
     13327     13326     13329     13332     13328     13326     13329     13330
     13328     13326     13329     13331     13328     13326     13329     13332
     13329     13332     13335     13336     13329     13332     13335     13337
     13329     13332     13335     13338     13330     13329     13332     13333
     13330     13329     13332     13334     13330     13329     13332     13335
     13331     13329     13332     13333     13331     13329     13332     13334
     13331     13329     13332     13335     13332     13335     13338     13339
     13332     13335     13338     13340     13332     13335     13338     13341
     13333     13332     13335     13336     13333     13332     13335     13337
     13333     13332     13335     13338     13334     13332     13335     13336
     13334     13332     13335     13337     13334     13332     13335     13338
     13335     13338     13341     13342     13335     13338     13341     13343
     13335     13338     13341     13344     13336     13335     13338     13339
     13336     13335     13338     13340     13336     13335     13338     13341
     13337     13335     13338     13339     13337     13335     13338     13340
     13337     13335     13338     13341     13339     13338     13341     13342
     13339     13338     13341     13343     13339     13338     13341     13344
     13340     13338     13341     13342     13340     13338     13341     13343
     13340     13338     13341     13344     13345     13348     13351     13352
     13345     13348     13351     13353     13345     13348     13351     13354
     13346     13345     13348     13349     13346     13345     13348     13350
     13346     13345     13348     13351     13347     13345     13348     13349
     13347     13345     13348     13350     13347     13345     13348     13351
     13348     13351     13354     13355     13348     13351     13354     13356
     13348     13351     13354     13357     13349     13348     13351     13352
     13349     13348     13351     13353     13349     13348     13351     13354
     13350     13348     13351     13352     13350     13348     13351     13353
     13350     13348     13351     13354     13351     13354     13357     13358
     13351     13354     13357     13359     13351     13354     13357     13360
     13352     13351     13354     13355     13352     13351     13354     13356
     13352     13351     13354     13357     13353     13351     13354     13355
     13353     13351     13354     13356     13353     13351     13354     13357
     13354     13357     13360     13361     13354     13357     13360     13362
     13354     13357     13360     13363     13355     13354     13357     13358
     13355     13354     13357     13359     13355     13354     13357     13360
     13356     13354     13357     13358     13356     13354     13357     13359
     13356     13354     13357     13360     13357     13360     13363     13364
     13357     13360     13363     13365     13357     13360     13363     13366
     13358     13357     13360     13361     13358     13357     13360     13362
     13358     13357     13360     13363     13359     13357     13360     13361
     13359     13357     13360     13362     13359     13357     13360     13363
     13360     13363     13366     13367     13360     13363     13366     13368
     13360     13363     13366     13369     13361     13360     13363     13364
     13361     13360     13363     13365     13361     13360     13363     13366
     13362     13360     13363     13364     13362     13360     13363     13365
     13362     13360     13363     13366     13363     13366     13369     13370
     13363     13366     13369     13371     13363     13366     13369     13372
     13364     13363     13366     13367     13364     13363     13366     13368
     13364     13363     13366     13369     13365     13363     13366     13367
     13365     13363     13366     13368     13365     13363     13366     13369
     13366     13369     13372     13373     13366     13369     13372     13374
     13366     13369     13372     13375     13367     13366     13369     13370
     13367     13366     13369     13371     13367     13366     13369     13372
     13368     13366     13369     13370     13368     13366     13369     13371
     13368     13366     13369     13372     13369     13372     13375     13376
     13369     13372     13375     13377     13369     13372     13375     13378
     13370     13369     13372     13373     13370     13369     13372     13374
     13370     13369     13372     13375     13371     13369     13372     13373
     13371     13369     13372     13374     13371     13369     13372     13375
     13372     13375     13378     13379     13372     13375     13378     13380
     13372     13375     13378     13381     13373     13372     13375     13376
     13373     13372     13375     13377     13373     13372     13375     13378
     13374     13372     13375     13376     13374     13372     13375     13377
     13374     13372     13375     13378     13375     13378     13381     13382
     13375     13378     13381     13383     13375     13378     13381     13384
     13376     13375     13378     13379     13376     13375     13378     13380
     13376     13375     13378     13381     13377     13375     13378     13379
     13377     13375     13378     13380     13377     13375     13378     13381
     13378     13381     13384     13385     13378     13381     13384     13386
     13378     13381     13384     13387     13379     13378     13381     13382
     13379     13378     13381     13383     13379     13378     13381     13384
     13380     13378     13381     13382     13380     13378     13381     13383
     13380     13378     13381     13384     13382     13381     13384     13385
     13382     13381     13384     13386     13382     13381     13384     13387
     13383     13381     13384     13385     13383     13381     13384     13386
     13383     13381     13384     13387     13388     13389     13404     13405
     13388     13389     13404     13406     13388     13389     13404     13410
     13389     13388     13392     13393     13389     13388     13392     13394
     13389     13388     13392     13395     13389     13388     13396     13397
     13389     13388     13396     13398     13389     13388     13396     13399
     13389     13388     13400     13401     13389     13388     13400     13402
     13389     13388     13400     13403     13389     13404     13410     13407
     13390     13389     13388     13392     13390     13389     13388     13396
     13390     13389     13388     13400     13390     13389     13404     13405
     13390     13389     13404     13406     13390     13389     13404     13410
     13391     13389     13388     13392     13391     13389     13388     13396
     13391     13389     13388     13400     13391     13389     13404     13405
     13391     13389     13404     13406     13391     13389     13404     13410
     13392     13388     13389     13404     13392     13388     13396     13397
     13392     13388     13396     13398     13392     13388     13396     13399
     13392     13388     13400     13401     13392     13388     13400     13402
     13392     13388     13400     13403     13393     13392     13388     13396
     13393     13392     13388     13400     13394     13392     13388     13396
     13394     13392     13388     13400     13395     13392     13388     13396
     13395     13392     13388     13400     13396     13388     13389     13404
     13396     13388     13400     13401     13396     13388     13400     13402
     13396     13388     13400     13403     13397     13396     13388     13400
     13398     13396     13388     13400     13399     13396     13388     13400
     13400     13388     13389     13404     13404     13410     13407     13408
     13404     13410     13407     13409     13404     13410     13407     13411
     13405     13404     13410     13407     13406     13404     13410     13407
     13407     13411     13412     13413     13407     13411     13412     13414
     13407     13411     13412     13415     13408     13407     13411     13412
     13409     13407     13411     13412     13410     13407     13411     13412
     13411     13412     13415     13416     13411     13412     13415     13417
     13411     13412     13415     13423     13412     13415     13417     13418
     13412     13415     13423     13424     13412     13415     13423     13425
     13412     13415     13423     13426     13413     13412     13415     13416
     13413     13412     13415     13417     13413     13412     13415     13423
     13414     13412     13415     13416     13414     13412     13415     13417
     13414     13412     13415     13423     13415     13417     13418     13419
     13415     13417     13418     13420     13415     13423     13426     13427
     13416     13415     13417     13418     13416     13415     13423     13424
     13416     13415     13423     13425     13416     13415     13423     13426
     13417     13415     13423     13424     13417     13415     13423     13425
     13417     13415     13423     13426     13417     13418     13420     13421
     13417     13418     13420     13422     13417     13418     13420     13432
     13418     13417     13415     13423     13418     13420     13432     13433
     13418     13420     13432     13434     13418     13420     13432     13435
     13419     13418     13420     13421     13419     13418     13420     13422
     13419     13418     13420     13432     13420     13432     13435     13436
     13420     13432     13435     13437     13420     13432     13435     13438
     13421     13420     13432     13433     13421     13420     13432     13434
     13421     13420     13432     13435     13422     13420     13432     13433
     13422     13420     13432     13434     13422     13420     13432     13435
     13423     13426     13427     13428     13423     13426     13427     13429
     13424     13423     13426     13427     13425     13423     13426     13427
     13426     13427     13429     13430     13426     13427     13429     13431
     13426     13427     13429     13479     13427     13429     13479     13480
     13427     13429     13479     13481     13427     13429     13479     13482
     13428     13427     13429     13430     13428     13427     13429     13431
     13428     13427     13429     13479     13429     13479     13482     13483
     13429     13479     13482     13484     13429     13479     13482     13485
     13430     13429     13479     13480     13430     13429     13479     13481
     13430     13429     13479     13482     13431     13429     13479     13480
     13431     13429     13479     13481     13431     13429     13479     13482
     13432     13435     13438     13439     13432     13435     13438     13440
     13432     13435     13438     13441     13433     13432     13435     13436
     13433     13432     13435     13437     13433     13432     13435     13438
     13434     13432     13435     13436     13434     13432     13435     13437
     13434     13432     13435     13438     13435     13438     13441     13442
     13435     13438     13441     13443     13435     13438     13441     13444
     13436     13435     13438     13439     13436     13435     13438     13440
     13436     13435     13438     13441     13437     13435     13438     13439
     13437     13435     13438     13440     13437     13435     13438     13441
     13438     13441     13444     13445     13438     13441     13444     13446
     13438     13441     13444     13447     13439     13438     13441     13442
     13439     13438     13441     13443     13439     13438     13441     13444
     13440     13438     13441     13442     13440     13438     13441     13443
     13440     13438     13441     13444     13441     13444     13447     13448
     13441     13444     13447     13449     13441     13444     13447     13450
     13442     13441     13444     13445     13442     13441     13444     13446
     13442     13441     13444     13447     13443     13441     13444     13445
     13443     13441     13444     13446     13443     13441     13444     13447
     13444     13447     13450     13451     13444     13447     13450     13452
     13445     13444     13447     13448     13445     13444     13447     13449
     13445     13444     13447     13450     13446     13444     13447     13448
     13446     13444     13447     13449     13446     13444     13447     13450
     13447     13450     13452     13453     13447     13450     13452     13454
     13448     13447     13450     13451     13448     13447     13450     13452
     13449     13447     13450     13451     13449     13447     13450     13452
     13450     13452     13454     13455     13450     13452     13454     13456
     13450     13452     13454     13457     13451     13450     13452     13453
     13451     13450     13452     13454     13452     13454     13457     13458
     13452     13454     13457     13459     13452     13454     13457     13460
     13453     13452     13454     13455     13453     13452     13454     13456
     13453     13452     13454     13457     13454     13457     13460     13461
     13454     13457     13460     13462     13454     13457     13460     13463
     13455     13454     13457     13458     13455     13454     13457     13459
     13455     13454     13457     13460     13456     13454     13457     13458
     13456     13454     13457     13459     13456     13454     13457     13460
     13457     13460     13463     13464     13457     13460     13463     13465
     13457     13460     13463     13466     13458     13457     13460     13461
     13458     13457     13460     13462     13458     13457     13460     13463
     13459     13457     13460     13461     13459     13457     13460     13462
     13459     13457     13460     13463     13460     13463     13466     13467
     13460     13463     13466     13468     13460     13463     13466     13469
     13461     13460     13463     13464     13461     13460     13463     13465
     13461     13460     13463     13466     13462     13460     13463     13464
     13462     13460     13463     13465     13462     13460     13463     13466
     13463     13466     13469     13470     13463     13466     13469     13471
     13463     13466     13469     13472     13464     13463     13466     13467
     13464     13463     13466     13468     13464     13463     13466     13469
     13465     13463     13466     13467     13465     13463     13466     13468
     13465     13463     13466     13469     13466     13469     13472     13473
     13466     13469     13472     13474     13466     13469     13472     13475
     13467     13466     13469     13470     13467     13466     13469     13471
     13467     13466     13469     13472     13468     13466     13469     13470
     13468     13466     13469     13471     13468     13466     13469     13472
     13469     13472     13475     13476     13469     13472     13475     13477
     13469     13472     13475     13478     13470     13469     13472     13473
     13470     13469     13472     13474     13470     13469     13472     13475
     13471     13469     13472     13473     13471     13469     13472     13474
     13471     13469     13472     13475     13473     13472     13475     13476
     13473     13472     13475     13477     13473     13472     13475     13478
     13474     13472     13475     13476     13474     13472     13475     13477
     13474     13472     13475     13478     13479     13482     13485     13486
     13479     13482     13485     13487     13479     13482     13485     13488
     13480     13479     13482     13483     13480     13479     13482     13484
     13480     13479     13482     13485     13481     13479     13482     13483
     13481     13479     13482     13484     13481     13479     13482     13485
     13482     13485     13488     13489     13482     13485     13488     13490
     13482     13485     13488     13491     13483     13482     13485     13486
     13483     13482     13485     13487     13483     13482     13485     13488
     13484     13482     13485     13486     13484     13482     13485     13487
     13484     13482     13485     13488     13485     13488     13491     13492
     13485     13488     13491     13493     13485     13488     13491     13494
     13486     13485     13488     13489     13486     13485     13488     13490
     13486     13485     13488     13491     13487     13485     13488     13489
     13487     13485     13488     13490     13487     13485     13488     13491
     13488     13491     13494     13495     13488     13491     13494     13496
     13488     13491     13494     13497     13489     13488     13491     13492
     13489     13488     13491     13493     13489     13488     13491     13494
     13490     13488     13491     13492     13490     13488     13491     13493
     13490     13488     13491     13494     13491     13494     13497     13498
     13491     13494     13497     13499     13491     13494     13497     13500
     13492     13491     13494     13495     13492     13491     13494     13496
     13492     13491     13494     13497     13493     13491     13494     13495
     13493     13491     13494     13496     13493     13491     13494     13497
     13494     13497     13500     13501     13494     13497     13500     13502
     13494     13497     13500     13503     13495     13494     13497     13498
     13495     13494     13497     13499     13495     13494     13497     13500
     13496     13494     13497     13498     13496     13494     13497     13499
     13496     13494     13497     13500     13497     13500     13503     13504
     13497     13500     13503     13505     13497     13500     13503     13506
     13498     13497     13500     13501     13498     13497     13500     13502
     13498     13497     13500     13503     13499     13497     13500     13501
     13499     13497     13500     13502     13499     13497     13500     13503
     13500     13503     13506     13507     13500     13503     13506     13508
     13500     13503     13506     13509     13501     13500     13503     13504
     13501     13500     13503     13505     13501     13500     13503     13506
     13502     13500     13503     13504     13502     13500     13503     13505
     13502     13500     13503     13506     13503     13506     13509     13510
     13503     13506     13509     13511     13503     13506     13509     13512
     13504     13503     13506     13507     13504     13503     13506     13508
     13504     13503     13506     13509     13505     13503     13506     13507
     13505     13503     13506     13508     13505     13503     13506     13509
     13506     13509     13512     13513     13506     13509     13512     13514
     13506     13509     13512     13515     13507     13506     13509     13510
     13507     13506     13509     13511     13507     13506     13509     13512
     13508     13506     13509     13510     13508     13506     13509     13511
     13508     13506     13509     13512     13509     13512     13515     13516
     13509     13512     13515     13517     13509     13512     13515     13518
     13510     13509     13512     13513     13510     13509     13512     13514
     13510     13509     13512     13515     13511     13509     13512     13513
     13511     13509     13512     13514     13511     13509     13512     13515
     13512     13515     13518     13519     13512     13515     13518     13520
     13512     13515     13518     13521     13513     13512     13515     13516
     13513     13512     13515     13517     13513     13512     13515     13518
     13514     13512     13515     13516     13514     13512     13515     13517
     13514     13512     13515     13518     13516     13515     13518     13519
     13516     13515     13518     13520     13516     13515     13518     13521
     13517     13515     13518     13519     13517     13515     13518     13520
     13517     13515     13518     13521     13522     13526     13528     13529
     13522     13526     13528     13530     13522     13526     13531     13532
     13522     13526     13531     13533     13522     13526     13531     13537
     13523     13522     13526     13527     13523     13522     13526     13528
     13523     13522     13526     13531     13524     13522     13526     13527
     13524     13522     13526     13528     13524     13522     13526     13531
     13525     13522     13526     13527     13525     13522     13526     13528
     13525     13522     13526     13531     13526     13531     13537     13534
     13527     13526     13528     13529     13527     13526     13528     13530
     13527     13526     13531     13532     13527     13526     13531     13533
     13527     13526     13531     13537     13528     13526     13531     13532
     13528     13526     13531     13533     13528     13526     13531     13537
     13529     13528     13526     13531     13530     13528     13526     13531
     13531     13537     13534     13535     13531     13537     13534     13536
     13531     13537     13534     13538     13532     13531     13537     13534
     13533     13531     13537     13534     13534     13538     13539     13540
     13534     13538     13539     13541     13534     13538     13539     13542
     13535     13534     13538     13539     13536     13534     13538     13539
     13537     13534     13538     13539     13538     13539     13542     13543
     13538     13539     13542     13544     13538     13539     13542     13550
     13539     13542     13544     13545     13539     13542     13550     13551
     13539     13542     13550     13552     13539     13542     13550     13553
     13540     13539     13542     13543     13540     13539     13542     13544
     13540     13539     13542     13550     13541     13539     13542     13543
     13541     13539     13542     13544     13541     13539     13542     13550
     13542     13544     13545     13546     13542     13544     13545     13547
     13542     13550     13553     13554     13543     13542     13544     13545
     13543     13542     13550     13551     13543     13542     13550     13552
     13543     13542     13550     13553     13544     13542     13550     13551
     13544     13542     13550     13552     13544     13542     13550     13553
     13544     13545     13547     13548     13544     13545     13547     13549
     13544     13545     13547     13559     13545     13544     13542     13550
     13545     13547     13559     13560     13545     13547     13559     13561
     13545     13547     13559     13562     13546     13545     13547     13548
     13546     13545     13547     13549     13546     13545     13547     13559
     13547     13559     13562     13563     13547     13559     13562     13564
     13547     13559     13562     13565     13548     13547     13559     13560
     13548     13547     13559     13561     13548     13547     13559     13562
     13549     13547     13559     13560     13549     13547     13559     13561
     13549     13547     13559     13562     13550     13553     13554     13555
     13550     13553     13554     13556     13551     13550     13553     13554
     13552     13550     13553     13554     13553     13554     13556     13557
     13553     13554     13556     13558     13553     13554     13556     13606
     13554     13556     13606     13607     13554     13556     13606     13608
     13554     13556     13606     13609     13555     13554     13556     13557
     13555     13554     13556     13558     13555     13554     13556     13606
     13556     13606     13609     13610     13556     13606     13609     13611
     13556     13606     13609     13612     13557     13556     13606     13607
     13557     13556     13606     13608     13557     13556     13606     13609
     13558     13556     13606     13607     13558     13556     13606     13608
     13558     13556     13606     13609     13559     13562     13565     13566
     13559     13562     13565     13567     13559     13562     13565     13568
     13560     13559     13562     13563     13560     13559     13562     13564
     13560     13559     13562     13565     13561     13559     13562     13563
     13561     13559     13562     13564     13561     13559     13562     13565
     13562     13565     13568     13569     13562     13565     13568     13570
     13562     13565     13568     13571     13563     13562     13565     13566
     13563     13562     13565     13567     13563     13562     13565     13568
     13564     13562     13565     13566     13564     13562     13565     13567
     13564     13562     13565     13568     13565     13568     13571     13572
     13565     13568     13571     13573     13565     13568     13571     13574
     13566     13565     13568     13569     13566     13565     13568     13570
     13566     13565     13568     13571     13567     13565     13568     13569
     13567     13565     13568     13570     13567     13565     13568     13571
     13568     13571     13574     13575     13568     13571     13574     13576
     13568     13571     13574     13577     13569     13568     13571     13572
     13569     13568     13571     13573     13569     13568     13571     13574
     13570     13568     13571     13572     13570     13568     13571     13573
     13570     13568     13571     13574     13571     13574     13577     13578
     13571     13574     13577     13579     13572     13571     13574     13575
     13572     13571     13574     13576     13572     13571     13574     13577
     13573     13571     13574     13575     13573     13571     13574     13576
     13573     13571     13574     13577     13574     13577     13579     13580
     13574     13577     13579     13581     13575     13574     13577     13578
     13575     13574     13577     13579     13576     13574     13577     13578
     13576     13574     13577     13579     13577     13579     13581     13582
     13577     13579     13581     13583     13577     13579     13581     13584
     13578     13577     13579     13580     13578     13577     13579     13581
     13579     13581     13584     13585     13579     13581     13584     13586
     13579     13581     13584     13587     13580     13579     13581     13582
     13580     13579     13581     13583     13580     13579     13581     13584
     13581     13584     13587     13588     13581     13584     13587     13589
     13581     13584     13587     13590     13582     13581     13584     13585
     13582     13581     13584     13586     13582     13581     13584     13587
     13583     13581     13584     13585     13583     13581     13584     13586
     13583     13581     13584     13587     13584     13587     13590     13591
     13584     13587     13590     13592     13584     13587     13590     13593
     13585     13584     13587     13588     13585     13584     13587     13589
     13585     13584     13587     13590     13586     13584     13587     13588
     13586     13584     13587     13589     13586     13584     13587     13590
     13587     13590     13593     13594     13587     13590     13593     13595
     13587     13590     13593     13596     13588     13587     13590     13591
     13588     13587     13590     13592     13588     13587     13590     13593
     13589     13587     13590     13591     13589     13587     13590     13592
     13589     13587     13590     13593     13590     13593     13596     13597
     13590     13593     13596     13598     13590     13593     13596     13599
     13591     13590     13593     13594     13591     13590     13593     13595
     13591     13590     13593     13596     13592     13590     13593     13594
     13592     13590     13593     13595     13592     13590     13593     13596
     13593     13596     13599     13600     13593     13596     13599     13601
     13593     13596     13599     13602     13594     13593     13596     13597
     13594     13593     13596     13598     13594     13593     13596     13599
     13595     13593     13596     13597     13595     13593     13596     13598
     13595     13593     13596     13599     13596     13599     13602     13603
     13596     13599     13602     13604     13596     13599     13602     13605
     13597     13596     13599     13600     13597     13596     13599     13601
     13597     13596     13599     13602     13598     13596     13599     13600
     13598     13596     13599     13601     13598     13596     13599     13602
     13600     13599     13602     13603     13600     13599     13602     13604
     13600     13599     13602     13605     13601     13599     13602     13603
     13601     13599     13602     13604     13601     13599     13602     13605
     13606     13609     13612     13613     13606     13609     13612     13614
     13606     13609     13612     13615     13607     13606     13609     13610
     13607     13606     13609     13611     13607     13606     13609     13612
     13608     13606     13609     13610     13608     13606     13609     13611
     13608     13606     13609     13612     13609     13612     13615     13616
     13609     13612     13615     13617     13609     13612     13615     13618
     13610     13609     13612     13613     13610     13609     13612     13614
     13610     13609     13612     13615     13611     13609     13612     13613
     13611     13609     13612     13614     13611     13609     13612     13615
     13612     13615     13618     13619     13612     13615     13618     13620
     13612     13615     13618     13621     13613     13612     13615     13616
     13613     13612     13615     13617     13613     13612     13615     13618
     13614     13612     13615     13616     13614     13612     13615     13617
     13614     13612     13615     13618     13615     13618     13621     13622
     13615     13618     13621     13623     13615     13618     13621     13624
     13616     13615     13618     13619     13616     13615     13618     13620
     13616     13615     13618     13621     13617     13615     13618     13619
     13617     13615     13618     13620     13617     13615     13618     13621
     13618     13621     13624     13625     13618     13621     13624     13626
     13618     13621     13624     13627     13619     13618     13621     13622
     13619     13618     13621     13623     13619     13618     13621     13624
     13620     13618     13621     13622     13620     13618     13621     13623
     13620     13618     13621     13624     13621     13624     13627     13628
     13621     13624     13627     13629     13621     13624     13627     13630
     13622     13621     13624     13625     13622     13621     13624     13626
     13622     13621     13624     13627     13623     13621     13624     13625
     13623     13621     13624     13626     13623     13621     13624     13627
     13624     13627     13630     13631     13624     13627     13630     13632
     13624     13627     13630     13633     13625     13624     13627     13628
     13625     13624     13627     13629     13625     13624     13627     13630
     13626     13624     13627     13628     13626     13624     13627     13629
     13626     13624     13627     13630     13627     13630     13633     13634
     13627     13630     13633     13635     13627     13630     13633     13636
     13628     13627     13630     13631     13628     13627     13630     13632
     13628     13627     13630     13633     13629     13627     13630     13631
     13629     13627     13630     13632     13629     13627     13630     13633
     13630     13633     13636     13637     13630     13633     13636     13638
     13630     13633     13636     13639     13631     13630     13633     13634
     13631     13630     13633     13635     13631     13630     13633     13636
     13632     13630     13633     13634     13632     13630     13633     13635
     13632     13630     13633     13636     13633     13636     13639     13640
     13633     13636     13639     13641     13633     13636     13639     13642
     13634     13633     13636     13637     13634     13633     13636     13638
     13634     13633     13636     13639     13635     13633     13636     13637
     13635     13633     13636     13638     13635     13633     13636     13639
     13636     13639     13642     13643     13636     13639     13642     13644
     13636     13639     13642     13645     13637     13636     13639     13640
     13637     13636     13639     13641     13637     13636     13639     13642
     13638     13636     13639     13640     13638     13636     13639     13641
     13638     13636     13639     13642     13639     13642     13645     13646
     13639     13642     13645     13647     13639     13642     13645     13648
     13640     13639     13642     13643     13640     13639     13642     13644
     13640     13639     13642     13645     13641     13639     13642     13643
     13641     13639     13642     13644     13641     13639     13642     13645
     13643     13642     13645     13646     13643     13642     13645     13647
     13643     13642     13645     13648     13644     13642     13645     13646
     13644     13642     13645     13647     13644     13642     13645     13648
     13649     13650     13665     13666     13649     13650     13665     13667
     13649     13650     13665     13671     13650     13649     13653     13654
     13650     13649     13653     13655     13650     13649     13653     13656
     13650     13649     13657     13658     13650     13649     13657     13659
     13650     13649     13657     13660     13650     13649     13661     13662
     13650     13649     13661     13663     13650     13649     13661     13664
     13650     13665     13671     13668     13651     13650     13649     13653
     13651     13650     13649     13657     13651     13650     13649     13661
     13651     13650     13665     13666     13651     13650     13665     13667
     13651     13650     13665     13671     13652     13650     13649     13653
     13652     13650     13649     13657     13652     13650     13649     13661
     13652     13650     13665     13666     13652     13650     13665     13667
     13652     13650     13665     13671     13653     13649     13650     13665
     13653     13649     13657     13658     13653     13649     13657     13659
     13653     13649     13657     13660     13653     13649     13661     13662
     13653     13649     13661     13663     13653     13649     13661     13664
     13654     13653     13649     13657     13654     13653     13649     13661
     13655     13653     13649     13657     13655     13653     13649     13661
     13656     13653     13649     13657     13656     13653     13649     13661
     13657     13649     13650     13665     13657     13649     13661     13662
     13657     13649     13661     13663     13657     13649     13661     13664
     13658     13657     13649     13661     13659     13657     13649     13661
     13660     13657     13649     13661     13661     13649     13650     13665
     13665     13671     13668     13669     13665     13671     13668     13670
     13665     13671     13668     13672     13666     13665     13671     13668
     13667     13665     13671     13668     13668     13672     13673     13674
     13668     13672     13673     13675     13668     13672     13673     13676
     13669     13668     13672     13673     13670     13668     13672     13673
     13671     13668     13672     13673     13672     13673     13676     13677
     13672     13673     13676     13678     13672     13673     13676     13684
     13673     13676     13678     13679     13673     13676     13684     13685
     13673     13676     13684     13686     13673     13676     13684     13687
     13674     13673     13676     13677     13674     13673     13676     13678
     13674     13673     13676     13684     13675     13673     13676     13677
     13675     13673     13676     13678     13675     13673     13676     13684
     13676     13678     13679     13680     13676     13678     13679     13681
     13676     13684     13687     13688     13677     13676     13678     13679
     13677     13676     13684     13685     13677     13676     13684     13686
     13677     13676     13684     13687     13678     13676     13684     13685
     13678     13676     13684     13686     13678     13676     13684     13687
     13678     13679     13681     13682     13678     13679     13681     13683
     13678     13679     13681     13693     13679     13678     13676     13684
     13679     13681     13693     13694     13679     13681     13693     13695
     13679     13681     13693     13696     13680     13679     13681     13682
     13680     13679     13681     13683     13680     13679     13681     13693
     13681     13693     13696     13697     13681     13693     13696     13698
     13681     13693     13696     13699     13682     13681     13693     13694
     13682     13681     13693     13695     13682     13681     13693     13696
     13683     13681     13693     13694     13683     13681     13693     13695
     13683     13681     13693     13696     13684     13687     13688     13689
     13684     13687     13688     13690     13685     13684     13687     13688
     13686     13684     13687     13688     13687     13688     13690     13691
     13687     13688     13690     13692     13687     13688     13690     13740
     13688     13690     13740     13741     13688     13690     13740     13742
     13688     13690     13740     13743     13689     13688     13690     13691
     13689     13688     13690     13692     13689     13688     13690     13740
     13690     13740     13743     13744     13690     13740     13743     13745
     13690     13740     13743     13746     13691     13690     13740     13741
     13691     13690     13740     13742     13691     13690     13740     13743
     13692     13690     13740     13741     13692     13690     13740     13742
     13692     13690     13740     13743     13693     13696     13699     13700
     13693     13696     13699     13701     13693     13696     13699     13702
     13694     13693     13696     13697     13694     13693     13696     13698
     13694     13693     13696     13699     13695     13693     13696     13697
     13695     13693     13696     13698     13695     13693     13696     13699
     13696     13699     13702     13703     13696     13699     13702     13704
     13696     13699     13702     13705     13697     13696     13699     13700
     13697     13696     13699     13701     13697     13696     13699     13702
     13698     13696     13699     13700     13698     13696     13699     13701
     13698     13696     13699     13702     13699     13702     13705     13706
     13699     13702     13705     13707     13699     13702     13705     13708
     13700     13699     13702     13703     13700     13699     13702     13704
     13700     13699     13702     13705     13701     13699     13702     13703
     13701     13699     13702     13704     13701     13699     13702     13705
     13702     13705     13708     13709     13702     13705     13708     13710
     13702     13705     13708     13711     13703     13702     13705     13706
     13703     13702     13705     13707     13703     13702     13705     13708
     13704     13702     13705     13706     13704     13702     13705     13707
     13704     13702     13705     13708     13705     13708     13711     13712
     13705     13708     13711     13713     13706     13705     13708     13709
     13706     13705     13708     13710     13706     13705     13708     13711
     13707     13705     13708     13709     13707     13705     13708     13710
     13707     13705     13708     13711     13708     13711     13713     13714
     13708     13711     13713     13715     13709     13708     13711     13712
     13709     13708     13711     13713     13710     13708     13711     13712
     13710     13708     13711     13713     13711     13713     13715     13716
     13711     13713     13715     13717     13711     13713     13715     13718
     13712     13711     13713     13714     13712     13711     13713     13715
     13713     13715     13718     13719     13713     13715     13718     13720
     13713     13715     13718     13721     13714     13713     13715     13716
     13714     13713     13715     13717     13714     13713     13715     13718
     13715     13718     13721     13722     13715     13718     13721     13723
     13715     13718     13721     13724     13716     13715     13718     13719
     13716     13715     13718     13720     13716     13715     13718     13721
     13717     13715     13718     13719     13717     13715     13718     13720
     13717     13715     13718     13721     13718     13721     13724     13725
     13718     13721     13724     13726     13718     13721     13724     13727
     13719     13718     13721     13722     13719     13718     13721     13723
     13719     13718     13721     13724     13720     13718     13721     13722
     13720     13718     13721     13723     13720     13718     13721     13724
     13721     13724     13727     13728     13721     13724     13727     13729
     13721     13724     13727     13730     13722     13721     13724     13725
     13722     13721     13724     13726     13722     13721     13724     13727
     13723     13721     13724     13725     13723     13721     13724     13726
     13723     13721     13724     13727     13724     13727     13730     13731
     13724     13727     13730     13732     13724     13727     13730     13733
     13725     13724     13727     13728     13725     13724     13727     13729
     13725     13724     13727     13730     13726     13724     13727     13728
     13726     13724     13727     13729     13726     13724     13727     13730
     13727     13730     13733     13734     13727     13730     13733     13735
     13727     13730     13733     13736     13728     13727     13730     13731
     13728     13727     13730     13732     13728     13727     13730     13733
     13729     13727     13730     13731     13729     13727     13730     13732
     13729     13727     13730     13733     13730     13733     13736     13737
     13730     13733     13736     13738     13730     13733     13736     13739
     13731     13730     13733     13734     13731     13730     13733     13735
     13731     13730     13733     13736     13732     13730     13733     13734
     13732     13730     13733     13735     13732     13730     13733     13736
     13734     13733     13736     13737     13734     13733     13736     13738
     13734     13733     13736     13739     13735     13733     13736     13737
     13735     13733     13736     13738     13735     13733     13736     13739
     13740     13743     13746     13747     13740     13743     13746     13748
     13740     13743     13746     13749     13741     13740     13743     13744
     13741     13740     13743     13745     13741     13740     13743     13746
     13742     13740     13743     13744     13742     13740     13743     13745
     13742     13740     13743     13746     13743     13746     13749     13750
     13743     13746     13749     13751     13743     13746     13749     13752
     13744     13743     13746     13747     13744     13743     13746     13748
     13744     13743     13746     13749     13745     13743     13746     13747
     13745     13743     13746     13748     13745     13743     13746     13749
     13746     13749     13752     13753     13746     13749     13752     13754
     13746     13749     13752     13755     13747     13746     13749     13750
     13747     13746     13749     13751     13747     13746     13749     13752
     13748     13746     13749     13750     13748     13746     13749     13751
     13748     13746     13749     13752     13749     13752     13755     13756
     13749     13752     13755     13757     13749     13752     13755     13758
     13750     13749     13752     13753     13750     13749     13752     13754
     13750     13749     13752     13755     13751     13749     13752     13753
     13751     13749     13752     13754     13751     13749     13752     13755
     13752     13755     13758     13759     13752     13755     13758     13760
     13752     13755     13758     13761     13753     13752     13755     13756
     13753     13752     13755     13757     13753     13752     13755     13758
     13754     13752     13755     13756     13754     13752     13755     13757
     13754     13752     13755     13758     13755     13758     13761     13762
     13755     13758     13761     13763     13755     13758     13761     13764
     13756     13755     13758     13759     13756     13755     13758     13760
     13756     13755     13758     13761     13757     13755     13758     13759
     13757     13755     13758     13760     13757     13755     13758     13761
     13758     13761     13764     13765     13758     13761     13764     13766
     13758     13761     13764     13767     13759     13758     13761     13762
     13759     13758     13761     13763     13759     13758     13761     13764
     13760     13758     13761     13762     13760     13758     13761     13763
     13760     13758     13761     13764     13761     13764     13767     13768
     13761     13764     13767     13769     13761     13764     13767     13770
     13762     13761     13764     13765     13762     13761     13764     13766
     13762     13761     13764     13767     13763     13761     13764     13765
     13763     13761     13764     13766     13763     13761     13764     13767
     13764     13767     13770     13771     13764     13767     13770     13772
     13764     13767     13770     13773     13765     13764     13767     13768
     13765     13764     13767     13769     13765     13764     13767     13770
     13766     13764     13767     13768     13766     13764     13767     13769
     13766     13764     13767     13770     13767     13770     13773     13774
     13767     13770     13773     13775     13767     13770     13773     13776
     13768     13767     13770     13771     13768     13767     13770     13772
     13768     13767     13770     13773     13769     13767     13770     13771
     13769     13767     13770     13772     13769     13767     13770     13773
     13770     13773     13776     13777     13770     13773     13776     13778
     13770     13773     13776     13779     13771     13770     13773     13774
     13771     13770     13773     13775     13771     13770     13773     13776
     13772     13770     13773     13774     13772     13770     13773     13775
     13772     13770     13773     13776     13773     13776     13779     13780
     13773     13776     13779     13781     13773     13776     13779     13782
     13774     13773     13776     13777     13774     13773     13776     13778
     13774     13773     13776     13779     13775     13773     13776     13777
     13775     13773     13776     13778     13775     13773     13776     13779
     13777     13776     13779     13780     13777     13776     13779     13781
     13777     13776     13779     13782     13778     13776     13779     13780
     13778     13776     13779     13781     13778     13776     13779     13782
     13783     13784     13799     13800     13783     13784     13799     13801
     13783     13784     13799     13805     13784     13783     13787     13788
     13784     13783     13787     13789     13784     13783     13787     13790
     13784     13783     13791     13792     13784     13783     13791     13793
     13784     13783     13791     13794     13784     13783     13795     13796
     13784     13783     13795     13797     13784     13783     13795     13798
     13784     13799     13805     13802     13785     13784     13783     13787
     13785     13784     13783     13791     13785     13784     13783     13795
     13785     13784     13799     13800     13785     13784     13799     13801
     13785     13784     13799     13805     13786     13784     13783     13787
     13786     13784     13783     13791     13786     13784     13783     13795
     13786     13784     13799     13800     13786     13784     13799     13801
     13786     13784     13799     13805     13787     13783     13784     13799
     13787     13783     13791     13792     13787     13783     13791     13793
     13787     13783     13791     13794     13787     13783     13795     13796
     13787     13783     13795     13797     13787     13783     13795     13798
     13788     13787     13783     13791     13788     13787     13783     13795
     13789     13787     13783     13791     13789     13787     13783     13795
     13790     13787     13783     13791     13790     13787     13783     13795
     13791     13783     13784     13799     13791     13783     13795     13796
     13791     13783     13795     13797     13791     13783     13795     13798
     13792     13791     13783     13795     13793     13791     13783     13795
     13794     13791     13783     13795     13795     13783     13784     13799
     13799     13805     13802     13803     13799     13805     13802     13804
     13799     13805     13802     13806     13800     13799     13805     13802
     13801     13799     13805     13802     13802     13806     13807     13808
     13802     13806     13807     13809     13802     13806     13807     13810
     13803     13802     13806     13807     13804     13802     13806     13807
     13805     13802     13806     13807     13806     13807     13810     13811
     13806     13807     13810     13812     13806     13807     13810     13818
     13807     13810     13812     13813     13807     13810     13818     13819
     13807     13810     13818     13820     13807     13810     13818     13821
     13808     13807     13810     13811     13808     13807     13810     13812
     13808     13807     13810     13818     13809     13807     13810     13811
     13809     13807     13810     13812     13809     13807     13810     13818
     13810     13812     13813     13814     13810     13812     13813     13815
     13810     13818     13821     13822     13811     13810     13812     13813
     13811     13810     13818     13819     13811     13810     13818     13820
     13811     13810     13818     13821     13812     13810     13818     13819
     13812     13810     13818     13820     13812     13810     13818     13821
     13812     13813     13815     13816     13812     13813     13815     13817
     13812     13813     13815     13827     13813     13812     13810     13818
     13813     13815     13827     13828     13813     13815     13827     13829
     13813     13815     13827     13830     13814     13813     13815     13816
     13814     13813     13815     13817     13814     13813     13815     13827
     13815     13827     13830     13831     13815     13827     13830     13832
     13815     13827     13830     13833     13816     13815     13827     13828
     13816     13815     13827     13829     13816     13815     13827     13830
     13817     13815     13827     13828     13817     13815     13827     13829
     13817     13815     13827     13830     13818     13821     13822     13823
     13818     13821     13822     13824     13819     13818     13821     13822
     13820     13818     13821     13822     13821     13822     13824     13825
     13821     13822     13824     13826     13821     13822     13824     13874
     13822     13824     13874     13875     13822     13824     13874     13876
     13822     13824     13874     13877     13823     13822     13824     13825
     13823     13822     13824     13826     13823     13822     13824     13874
     13824     13874     13877     13878     13824     13874     13877     13879
     13824     13874     13877     13880     13825     13824     13874     13875
     13825     13824     13874     13876     13825     13824     13874     13877
     13826     13824     13874     13875     13826     13824     13874     13876
     13826     13824     13874     13877     13827     13830     13833     13834
     13827     13830     13833     13835     13827     13830     13833     13836
     13828     13827     13830     13831     13828     13827     13830     13832
     13828     13827     13830     13833     13829     13827     13830     13831
     13829     13827     13830     13832     13829     13827     13830     13833
     13830     13833     13836     13837     13830     13833     13836     13838
     13830     13833     13836     13839     13831     13830     13833     13834
     13831     13830     13833     13835     13831     13830     13833     13836
     13832     13830     13833     13834     13832     13830     13833     13835
     13832     13830     13833     13836     13833     13836     13839     13840
     13833     13836     13839     13841     13833     13836     13839     13842
     13834     13833     13836     13837     13834     13833     13836     13838
     13834     13833     13836     13839     13835     13833     13836     13837
     13835     13833     13836     13838     13835     13833     13836     13839
     13836     13839     13842     13843     13836     13839     13842     13844
     13836     13839     13842     13845     13837     13836     13839     13840
     13837     13836     13839     13841     13837     13836     13839     13842
     13838     13836     13839     13840     13838     13836     13839     13841
     13838     13836     13839     13842     13839     13842     13845     13846
     13839     13842     13845     13847     13840     13839     13842     13843
     13840     13839     13842     13844     13840     13839     13842     13845
     13841     13839     13842     13843     13841     13839     13842     13844
     13841     13839     13842     13845     13842     13845     13847     13848
     13842     13845     13847     13849     13843     13842     13845     13846
     13843     13842     13845     13847     13844     13842     13845     13846
     13844     13842     13845     13847     13845     13847     13849     13850
     13845     13847     13849     13851     13845     13847     13849     13852
     13846     13845     13847     13848     13846     13845     13847     13849
     13847     13849     13852     13853     13847     13849     13852     13854
     13847     13849     13852     13855     13848     13847     13849     13850
     13848     13847     13849     13851     13848     13847     13849     13852
     13849     13852     13855     13856     13849     13852     13855     13857
     13849     13852     13855     13858     13850     13849     13852     13853
     13850     13849     13852     13854     13850     13849     13852     13855
     13851     13849     13852     13853     13851     13849     13852     13854
     13851     13849     13852     13855     13852     13855     13858     13859
     13852     13855     13858     13860     13852     13855     13858     13861
     13853     13852     13855     13856     13853     13852     13855     13857
     13853     13852     13855     13858     13854     13852     13855     13856
     13854     13852     13855     13857     13854     13852     13855     13858
     13855     13858     13861     13862     13855     13858     13861     13863
     13855     13858     13861     13864     13856     13855     13858     13859
     13856     13855     13858     13860     13856     13855     13858     13861
     13857     13855     13858     13859     13857     13855     13858     13860
     13857     13855     13858     13861     13858     13861     13864     13865
     13858     13861     13864     13866     13858     13861     13864     13867
     13859     13858     13861     13862     13859     13858     13861     13863
     13859     13858     13861     13864     13860     13858     13861     13862
     13860     13858     13861     13863     13860     13858     13861     13864
     13861     13864     13867     13868     13861     13864     13867     13869
     13861     13864     13867     13870     13862     13861     13864     13865
     13862     13861     13864     13866     13862     13861     13864     13867
     13863     13861     13864     13865     13863     13861     13864     13866
     13863     13861     13864     13867     13864     13867     13870     13871
     13864     13867     13870     13872     13864     13867     13870     13873
     13865     13864     13867     13868     13865     13864     13867     13869
     13865     13864     13867     13870     13866     13864     13867     13868
     13866     13864     13867     13869     13866     13864     13867     13870
     13868     13867     13870     13871     13868     13867     13870     13872
     13868     13867     13870     13873     13869     13867     13870     13871
     13869     13867     13870     13872     13869     13867     13870     13873
     13874     13877     13880     13881     13874     13877     13880     13882
     13874     13877     13880     13883     13875     13874     13877     13878
     13875     13874     13877     13879     13875     13874     13877     13880
     13876     13874     13877     13878     13876     13874     13877     13879
     13876     13874     13877     13880     13877     13880     13883     13884
     13877     13880     13883     13885     13877     13880     13883     13886
     13878     13877     13880     13881     13878     13877     13880     13882
     13878     13877     13880     13883     13879     13877     13880     13881
     13879     13877     13880     13882     13879     13877     13880     13883
     13880     13883     13886     13887     13880     13883     13886     13888
     13880     13883     13886     13889     13881     13880     13883     13884
     13881     13880     13883     13885     13881     13880     13883     13886
     13882     13880     13883     13884     13882     13880     13883     13885
     13882     13880     13883     13886     13883     13886     13889     13890
     13883     13886     13889     13891     13883     13886     13889     13892
     13884     13883     13886     13887     13884     13883     13886     13888
     13884     13883     13886     13889     13885     13883     13886     13887
     13885     13883     13886     13888     13885     13883     13886     13889
     13886     13889     13892     13893     13886     13889     13892     13894
     13886     13889     13892     13895     13887     13886     13889     13890
     13887     13886     13889     13891     13887     13886     13889     13892
     13888     13886     13889     13890     13888     13886     13889     13891
     13888     13886     13889     13892     13889     13892     13895     13896
     13889     13892     13895     13897     13889     13892     13895     13898
     13890     13889     13892     13893     13890     13889     13892     13894
     13890     13889     13892     13895     13891     13889     13892     13893
     13891     13889     13892     13894     13891     13889     13892     13895
     13892     13895     13898     13899     13892     13895     13898     13900
     13892     13895     13898     13901     13893     13892     13895     13896
     13893     13892     13895     13897     13893     13892     13895     13898
     13894     13892     13895     13896     13894     13892     13895     13897
     13894     13892     13895     13898     13895     13898     13901     13902
     13895     13898     13901     13903     13895     13898     13901     13904
     13896     13895     13898     13899     13896     13895     13898     13900
     13896     13895     13898     13901     13897     13895     13898     13899
     13897     13895     13898     13900     13897     13895     13898     13901
     13898     13901     13904     13905     13898     13901     13904     13906
     13898     13901     13904     13907     13899     13898     13901     13902
     13899     13898     13901     13903     13899     13898     13901     13904
     13900     13898     13901     13902     13900     13898     13901     13903
     13900     13898     13901     13904     13901     13904     13907     13908
     13901     13904     13907     13909     13901     13904     13907     13910
     13902     13901     13904     13905     13902     13901     13904     13906
     13902     13901     13904     13907     13903     13901     13904     13905
     13903     13901     13904     13906     13903     13901     13904     13907
     13904     13907     13910     13911     13904     13907     13910     13912
     13904     13907     13910     13913     13905     13904     13907     13908
     13905     13904     13907     13909     13905     13904     13907     13910
     13906     13904     13907     13908     13906     13904     13907     13909
     13906     13904     13907     13910     13907     13910     13913     13914
     13907     13910     13913     13915     13907     13910     13913     13916
     13908     13907     13910     13911     13908     13907     13910     13912
     13908     13907     13910     13913     13909     13907     13910     13911
     13909     13907     13910     13912     13909     13907     13910     13913
     13911     13910     13913     13914     13911     13910     13913     13915
     13911     13910     13913     13916     13912     13910     13913     13914
     13912     13910     13913     13915     13912     13910     13913     13916
     13917     13918     13933     13934     13917     13918     13933     13935
     13917     13918     13933     13939     13918     13917     13921     13922
     13918     13917     13921     13923     13918     13917     13921     13924
     13918     13917     13925     13926     13918     13917     13925     13927
     13918     13917     13925     13928     13918     13917     13929     13930
     13918     13917     13929     13931     13918     13917     13929     13932
     13918     13933     13939     13936     13919     13918     13917     13921
     13919     13918     13917     13925     13919     13918     13917     13929
     13919     13918     13933     13934     13919     13918     13933     13935
     13919     13918     13933     13939     13920     13918     13917     13921
     13920     13918     13917     13925     13920     13918     13917     13929
     13920     13918     13933     13934     13920     13918     13933     13935
     13920     13918     13933     13939     13921     13917     13918     13933
     13921     13917     13925     13926     13921     13917     13925     13927
     13921     13917     13925     13928     13921     13917     13929     13930
     13921     13917     13929     13931     13921     13917     13929     13932
     13922     13921     13917     13925     13922     13921     13917     13929
     13923     13921     13917     13925     13923     13921     13917     13929
     13924     13921     13917     13925     13924     13921     13917     13929
     13925     13917     13918     13933     13925     13917     13929     13930
     13925     13917     13929     13931     13925     13917     13929     13932
     13926     13925     13917     13929     13927     13925     13917     13929
     13928     13925     13917     13929     13929     13917     13918     13933
     13933     13939     13936     13937     13933     13939     13936     13938
     13933     13939     13936     13940     13934     13933     13939     13936
     13935     13933     13939     13936     13936     13940     13941     13942
     13936     13940     13941     13943     13936     13940     13941     13944
     13937     13936     13940     13941     13938     13936     13940     13941
     13939     13936     13940     13941     13940     13941     13944     13945
     13940     13941     13944     13946     13940     13941     13944     13952
     13941     13944     13946     13947     13941     13944     13952     13953
     13941     13944     13952     13954     13941     13944     13952     13955
     13942     13941     13944     13945     13942     13941     13944     13946
     13942     13941     13944     13952     13943     13941     13944     13945
     13943     13941     13944     13946     13943     13941     13944     13952
     13944     13946     13947     13948     13944     13946     13947     13949
     13944     13952     13955     13956     13945     13944     13946     13947
     13945     13944     13952     13953     13945     13944     13952     13954
     13945     13944     13952     13955     13946     13944     13952     13953
     13946     13944     13952     13954     13946     13944     13952     13955
     13946     13947     13949     13950     13946     13947     13949     13951
     13946     13947     13949     13961     13947     13946     13944     13952
     13947     13949     13961     13962     13947     13949     13961     13963
     13947     13949     13961     13964     13948     13947     13949     13950
     13948     13947     13949     13951     13948     13947     13949     13961
     13949     13961     13964     13965     13949     13961     13964     13966
     13949     13961     13964     13967     13950     13949     13961     13962
     13950     13949     13961     13963     13950     13949     13961     13964
     13951     13949     13961     13962     13951     13949     13961     13963
     13951     13949     13961     13964     13952     13955     13956     13957
     13952     13955     13956     13958     13953     13952     13955     13956
     13954     13952     13955     13956     13955     13956     13958     13959
     13955     13956     13958     13960     13955     13956     13958     14008
     13956     13958     14008     14009     13956     13958     14008     14010
     13956     13958     14008     14011     13957     13956     13958     13959
     13957     13956     13958     13960     13957     13956     13958     14008
     13958     14008     14011     14012     13958     14008     14011     14013
     13958     14008     14011     14014     13959     13958     14008     14009
     13959     13958     14008     14010     13959     13958     14008     14011
     13960     13958     14008     14009     13960     13958     14008     14010
     13960     13958     14008     14011     13961     13964     13967     13968
     13961     13964     13967     13969     13961     13964     13967     13970
     13962     13961     13964     13965     13962     13961     13964     13966
     13962     13961     13964     13967     13963     13961     13964     13965
     13963     13961     13964     13966     13963     13961     13964     13967
     13964     13967     13970     13971     13964     13967     13970     13972
     13964     13967     13970     13973     13965     13964     13967     13968
     13965     13964     13967     13969     13965     13964     13967     13970
     13966     13964     13967     13968     13966     13964     13967     13969
     13966     13964     13967     13970     13967     13970     13973     13974
     13967     13970     13973     13975     13967     13970     13973     13976
     13968     13967     13970     13971     13968     13967     13970     13972
     13968     13967     13970     13973     13969     13967     13970     13971
     13969     13967     13970     13972     13969     13967     13970     13973
     13970     13973     13976     13977     13970     13973     13976     13978
     13970     13973     13976     13979     13971     13970     13973     13974
     13971     13970     13973     13975     13971     13970     13973     13976
     13972     13970     13973     13974     13972     13970     13973     13975
     13972     13970     13973     13976     13973     13976     13979     13980
     13973     13976     13979     13981     13974     13973     13976     13977
     13974     13973     13976     13978     13974     13973     13976     13979
     13975     13973     13976     13977     13975     13973     13976     13978
     13975     13973     13976     13979     13976     13979     13981     13982
     13976     13979     13981     13983     13977     13976     13979     13980
     13977     13976     13979     13981     13978     13976     13979     13980
     13978     13976     13979     13981     13979     13981     13983     13984
     13979     13981     13983     13985     13979     13981     13983     13986
     13980     13979     13981     13982     13980     13979     13981     13983
     13981     13983     13986     13987     13981     13983     13986     13988
     13981     13983     13986     13989     13982     13981     13983     13984
     13982     13981     13983     13985     13982     13981     13983     13986
     13983     13986     13989     13990     13983     13986     13989     13991
     13983     13986     13989     13992     13984     13983     13986     13987
     13984     13983     13986     13988     13984     13983     13986     13989
     13985     13983     13986     13987     13985     13983     13986     13988
     13985     13983     13986     13989     13986     13989     13992     13993
     13986     13989     13992     13994     13986     13989     13992     13995
     13987     13986     13989     13990     13987     13986     13989     13991
     13987     13986     13989     13992     13988     13986     13989     13990
     13988     13986     13989     13991     13988     13986     13989     13992
     13989     13992     13995     13996     13989     13992     13995     13997
     13989     13992     13995     13998     13990     13989     13992     13993
     13990     13989     13992     13994     13990     13989     13992     13995
     13991     13989     13992     13993     13991     13989     13992     13994
     13991     13989     13992     13995     13992     13995     13998     13999
     13992     13995     13998     14000     13992     13995     13998     14001
     13993     13992     13995     13996     13993     13992     13995     13997
     13993     13992     13995     13998     13994     13992     13995     13996
     13994     13992     13995     13997     13994     13992     13995     13998
     13995     13998     14001     14002     13995     13998     14001     14003
     13995     13998     14001     14004     13996     13995     13998     13999
     13996     13995     13998     14000     13996     13995     13998     14001
     13997     13995     13998     13999     13997     13995     13998     14000
     13997     13995     13998     14001     13998     14001     14004     14005
     13998     14001     14004     14006     13998     14001     14004     14007
     13999     13998     14001     14002     13999     13998     14001     14003
     13999     13998     14001     14004     14000     13998     14001     14002
     14000     13998     14001     14003     14000     13998     14001     14004
     14002     14001     14004     14005     14002     14001     14004     14006
     14002     14001     14004     14007     14003     14001     14004     14005
     14003     14001     14004     14006     14003     14001     14004     14007
     14008     14011     14014     14015     14008     14011     14014     14016
     14008     14011     14014     14017     14009     14008     14011     14012
     14009     14008     14011     14013     14009     14008     14011     14014
     14010     14008     14011     14012     14010     14008     14011     14013
     14010     14008     14011     14014     14011     14014     14017     14018
     14011     14014     14017     14019     14011     14014     14017     14020
     14012     14011     14014     14015     14012     14011     14014     14016
     14012     14011     14014     14017     14013     14011     14014     14015
     14013     14011     14014     14016     14013     14011     14014     14017
     14014     14017     14020     14021     14014     14017     14020     14022
     14014     14017     14020     14023     14015     14014     14017     14018
     14015     14014     14017     14019     14015     14014     14017     14020
     14016     14014     14017     14018     14016     14014     14017     14019
     14016     14014     14017     14020     14017     14020     14023     14024
     14017     14020     14023     14025     14017     14020     14023     14026
     14018     14017     14020     14021     14018     14017     14020     14022
     14018     14017     14020     14023     14019     14017     14020     14021
     14019     14017     14020     14022     14019     14017     14020     14023
     14020     14023     14026     14027     14020     14023     14026     14028
     14020     14023     14026     14029     14021     14020     14023     14024
     14021     14020     14023     14025     14021     14020     14023     14026
     14022     14020     14023     14024     14022     14020     14023     14025
     14022     14020     14023     14026     14023     14026     14029     14030
     14023     14026     14029     14031     14023     14026     14029     14032
     14024     14023     14026     14027     14024     14023     14026     14028
     14024     14023     14026     14029     14025     14023     14026     14027
     14025     14023     14026     14028     14025     14023     14026     14029
     14026     14029     14032     14033     14026     14029     14032     14034
     14026     14029     14032     14035     14027     14026     14029     14030
     14027     14026     14029     14031     14027     14026     14029     14032
     14028     14026     14029     14030     14028     14026     14029     14031
     14028     14026     14029     14032     14029     14032     14035     14036
     14029     14032     14035     14037     14029     14032     14035     14038
     14030     14029     14032     14033     14030     14029     14032     14034
     14030     14029     14032     14035     14031     14029     14032     14033
     14031     14029     14032     14034     14031     14029     14032     14035
     14032     14035     14038     14039     14032     14035     14038     14040
     14032     14035     14038     14041     14033     14032     14035     14036
     14033     14032     14035     14037     14033     14032     14035     14038
     14034     14032     14035     14036     14034     14032     14035     14037
     14034     14032     14035     14038     14035     14038     14041     14042
     14035     14038     14041     14043     14035     14038     14041     14044
     14036     14035     14038     14039     14036     14035     14038     14040
     14036     14035     14038     14041     14037     14035     14038     14039
     14037     14035     14038     14040     14037     14035     14038     14041
     14038     14041     14044     14045     14038     14041     14044     14046
     14038     14041     14044     14047     14039     14038     14041     14042
     14039     14038     14041     14043     14039     14038     14041     14044
     14040     14038     14041     14042     14040     14038     14041     14043
     14040     14038     14041     14044     14041     14044     14047     14048
     14041     14044     14047     14049     14041     14044     14047     14050
     14042     14041     14044     14045     14042     14041     14044     14046
     14042     14041     14044     14047     14043     14041     14044     14045
     14043     14041     14044     14046     14043     14041     14044     14047
     14045     14044     14047     14048     14045     14044     14047     14049
     14045     14044     14047     14050     14046     14044     14047     14048
     14046     14044     14047     14049     14046     14044     14047     14050
     14051     14052     14067     14068     14051     14052     14067     14069
     14051     14052     14067     14073     14052     14051     14055     14056
     14052     14051     14055     14057     14052     14051     14055     14058
     14052     14051     14059     14060     14052     14051     14059     14061
     14052     14051     14059     14062     14052     14051     14063     14064
     14052     14051     14063     14065     14052     14051     14063     14066
     14052     14067     14073     14070     14053     14052     14051     14055
     14053     14052     14051     14059     14053     14052     14051     14063
     14053     14052     14067     14068     14053     14052     14067     14069
     14053     14052     14067     14073     14054     14052     14051     14055
     14054     14052     14051     14059     14054     14052     14051     14063
     14054     14052     14067     14068     14054     14052     14067     14069
     14054     14052     14067     14073     14055     14051     14052     14067
     14055     14051     14059     14060     14055     14051     14059     14061
     14055     14051     14059     14062     14055     14051     14063     14064
     14055     14051     14063     14065     14055     14051     14063     14066
     14056     14055     14051     14059     14056     14055     14051     14063
     14057     14055     14051     14059     14057     14055     14051     14063
     14058     14055     14051     14059     14058     14055     14051     14063
     14059     14051     14052     14067     14059     14051     14063     14064
     14059     14051     14063     14065     14059     14051     14063     14066
     14060     14059     14051     14063     14061     14059     14051     14063
     14062     14059     14051     14063     14063     14051     14052     14067
     14067     14073     14070     14071     14067     14073     14070     14072
     14067     14073     14070     14074     14068     14067     14073     14070
     14069     14067     14073     14070     14070     14074     14075     14076
     14070     14074     14075     14077     14070     14074     14075     14078
     14071     14070     14074     14075     14072     14070     14074     14075
     14073     14070     14074     14075     14074     14075     14078     14079
     14074     14075     14078     14080     14074     14075     14078     14086
     14075     14078     14080     14081     14075     14078     14086     14087
     14075     14078     14086     14088     14075     14078     14086     14089
     14076     14075     14078     14079     14076     14075     14078     14080
     14076     14075     14078     14086     14077     14075     14078     14079
     14077     14075     14078     14080     14077     14075     14078     14086
     14078     14080     14081     14082     14078     14080     14081     14083
     14078     14086     14089     14090     14079     14078     14080     14081
     14079     14078     14086     14087     14079     14078     14086     14088
     14079     14078     14086     14089     14080     14078     14086     14087
     14080     14078     14086     14088     14080     14078     14086     14089
     14080     14081     14083     14084     14080     14081     14083     14085
     14080     14081     14083     14095     14081     14080     14078     14086
     14081     14083     14095     14096     14081     14083     14095     14097
     14081     14083     14095     14098     14082     14081     14083     14084
     14082     14081     14083     14085     14082     14081     14083     14095
     14083     14095     14098     14099     14083     14095     14098     14100
     14083     14095     14098     14101     14084     14083     14095     14096
     14084     14083     14095     14097     14084     14083     14095     14098
     14085     14083     14095     14096     14085     14083     14095     14097
     14085     14083     14095     14098     14086     14089     14090     14091
     14086     14089     14090     14092     14087     14086     14089     14090
     14088     14086     14089     14090     14089     14090     14092     14093
     14089     14090     14092     14094     14089     14090     14092     14142
     14090     14092     14142     14143     14090     14092     14142     14144
     14090     14092     14142     14145     14091     14090     14092     14093
     14091     14090     14092     14094     14091     14090     14092     14142
     14092     14142     14145     14146     14092     14142     14145     14147
     14092     14142     14145     14148     14093     14092     14142     14143
     14093     14092     14142     14144     14093     14092     14142     14145
     14094     14092     14142     14143     14094     14092     14142     14144
     14094     14092     14142     14145     14095     14098     14101     14102
     14095     14098     14101     14103     14095     14098     14101     14104
     14096     14095     14098     14099     14096     14095     14098     14100
     14096     14095     14098     14101     14097     14095     14098     14099
     14097     14095     14098     14100     14097     14095     14098     14101
     14098     14101     14104     14105     14098     14101     14104     14106
     14098     14101     14104     14107     14099     14098     14101     14102
     14099     14098     14101     14103     14099     14098     14101     14104
     14100     14098     14101     14102     14100     14098     14101     14103
     14100     14098     14101     14104     14101     14104     14107     14108
     14101     14104     14107     14109     14101     14104     14107     14110
     14102     14101     14104     14105     14102     14101     14104     14106
     14102     14101     14104     14107     14103     14101     14104     14105
     14103     14101     14104     14106     14103     14101     14104     14107
     14104     14107     14110     14111     14104     14107     14110     14112
     14104     14107     14110     14113     14105     14104     14107     14108
     14105     14104     14107     14109     14105     14104     14107     14110
     14106     14104     14107     14108     14106     14104     14107     14109
     14106     14104     14107     14110     14107     14110     14113     14114
     14107     14110     14113     14115     14108     14107     14110     14111
     14108     14107     14110     14112     14108     14107     14110     14113
     14109     14107     14110     14111     14109     14107     14110     14112
     14109     14107     14110     14113     14110     14113     14115     14116
     14110     14113     14115     14117     14111     14110     14113     14114
     14111     14110     14113     14115     14112     14110     14113     14114
     14112     14110     14113     14115     14113     14115     14117     14118
     14113     14115     14117     14119     14113     14115     14117     14120
     14114     14113     14115     14116     14114     14113     14115     14117
     14115     14117     14120     14121     14115     14117     14120     14122
     14115     14117     14120     14123     14116     14115     14117     14118
     14116     14115     14117     14119     14116     14115     14117     14120
     14117     14120     14123     14124     14117     14120     14123     14125
     14117     14120     14123     14126     14118     14117     14120     14121
     14118     14117     14120     14122     14118     14117     14120     14123
     14119     14117     14120     14121     14119     14117     14120     14122
     14119     14117     14120     14123     14120     14123     14126     14127
     14120     14123     14126     14128     14120     14123     14126     14129
     14121     14120     14123     14124     14121     14120     14123     14125
     14121     14120     14123     14126     14122     14120     14123     14124
     14122     14120     14123     14125     14122     14120     14123     14126
     14123     14126     14129     14130     14123     14126     14129     14131
     14123     14126     14129     14132     14124     14123     14126     14127
     14124     14123     14126     14128     14124     14123     14126     14129
     14125     14123     14126     14127     14125     14123     14126     14128
     14125     14123     14126     14129     14126     14129     14132     14133
     14126     14129     14132     14134     14126     14129     14132     14135
     14127     14126     14129     14130     14127     14126     14129     14131
     14127     14126     14129     14132     14128     14126     14129     14130
     14128     14126     14129     14131     14128     14126     14129     14132
     14129     14132     14135     14136     14129     14132     14135     14137
     14129     14132     14135     14138     14130     14129     14132     14133
     14130     14129     14132     14134     14130     14129     14132     14135
     14131     14129     14132     14133     14131     14129     14132     14134
     14131     14129     14132     14135     14132     14135     14138     14139
     14132     14135     14138     14140     14132     14135     14138     14141
     14133     14132     14135     14136     14133     14132     14135     14137
     14133     14132     14135     14138     14134     14132     14135     14136
     14134     14132     14135     14137     14134     14132     14135     14138
     14136     14135     14138     14139     14136     14135     14138     14140
     14136     14135     14138     14141     14137     14135     14138     14139
     14137     14135     14138     14140     14137     14135     14138     14141
     14142     14145     14148     14149     14142     14145     14148     14150
     14142     14145     14148     14151     14143     14142     14145     14146
     14143     14142     14145     14147     14143     14142     14145     14148
     14144     14142     14145     14146     14144     14142     14145     14147
     14144     14142     14145     14148     14145     14148     14151     14152
     14145     14148     14151     14153     14145     14148     14151     14154
     14146     14145     14148     14149     14146     14145     14148     14150
     14146     14145     14148     14151     14147     14145     14148     14149
     14147     14145     14148     14150     14147     14145     14148     14151
     14148     14151     14154     14155     14148     14151     14154     14156
     14148     14151     14154     14157     14149     14148     14151     14152
     14149     14148     14151     14153     14149     14148     14151     14154
     14150     14148     14151     14152     14150     14148     14151     14153
     14150     14148     14151     14154     14151     14154     14157     14158
     14151     14154     14157     14159     14151     14154     14157     14160
     14152     14151     14154     14155     14152     14151     14154     14156
     14152     14151     14154     14157     14153     14151     14154     14155
     14153     14151     14154     14156     14153     14151     14154     14157
     14154     14157     14160     14161     14154     14157     14160     14162
     14154     14157     14160     14163     14155     14154     14157     14158
     14155     14154     14157     14159     14155     14154     14157     14160
     14156     14154     14157     14158     14156     14154     14157     14159
     14156     14154     14157     14160     14157     14160     14163     14164
     14157     14160     14163     14165     14157     14160     14163     14166
     14158     14157     14160     14161     14158     14157     14160     14162
     14158     14157     14160     14163     14159     14157     14160     14161
     14159     14157     14160     14162     14159     14157     14160     14163
     14160     14163     14166     14167     14160     14163     14166     14168
     14160     14163     14166     14169     14161     14160     14163     14164
     14161     14160     14163     14165     14161     14160     14163     14166
     14162     14160     14163     14164     14162     14160     14163     14165
     14162     14160     14163     14166     14163     14166     14169     14170
     14163     14166     14169     14171     14163     14166     14169     14172
     14164     14163     14166     14167     14164     14163     14166     14168
     14164     14163     14166     14169     14165     14163     14166     14167
     14165     14163     14166     14168     14165     14163     14166     14169
     14166     14169     14172     14173     14166     14169     14172     14174
     14166     14169     14172     14175     14167     14166     14169     14170
     14167     14166     14169     14171     14167     14166     14169     14172
     14168     14166     14169     14170     14168     14166     14169     14171
     14168     14166     14169     14172     14169     14172     14175     14176
     14169     14172     14175     14177     14169     14172     14175     14178
     14170     14169     14172     14173     14170     14169     14172     14174
     14170     14169     14172     14175     14171     14169     14172     14173
     14171     14169     14172     14174     14171     14169     14172     14175
     14172     14175     14178     14179     14172     14175     14178     14180
     14172     14175     14178     14181     14173     14172     14175     14176
     14173     14172     14175     14177     14173     14172     14175     14178
     14174     14172     14175     14176     14174     14172     14175     14177
     14174     14172     14175     14178     14175     14178     14181     14182
     14175     14178     14181     14183     14175     14178     14181     14184
     14176     14175     14178     14179     14176     14175     14178     14180
     14176     14175     14178     14181     14177     14175     14178     14179
     14177     14175     14178     14180     14177     14175     14178     14181
     14179     14178     14181     14182     14179     14178     14181     14183
     14179     14178     14181     14184     14180     14178     14181     14182
     14180     14178     14181     14183     14180     14178     14181     14184
     14185     14186     14201     14202     14185     14186     14201     14203
     14185     14186     14201     14207     14186     14185     14189     14190
     14186     14185     14189     14191     14186     14185     14189     14192
     14186     14185     14193     14194     14186     14185     14193     14195
     14186     14185     14193     14196     14186     14185     14197     14198
     14186     14185     14197     14199     14186     14185     14197     14200
     14186     14201     14207     14204     14187     14186     14185     14189
     14187     14186     14185     14193     14187     14186     14185     14197
     14187     14186     14201     14202     14187     14186     14201     14203
     14187     14186     14201     14207     14188     14186     14185     14189
     14188     14186     14185     14193     14188     14186     14185     14197
     14188     14186     14201     14202     14188     14186     14201     14203
     14188     14186     14201     14207     14189     14185     14186     14201
     14189     14185     14193     14194     14189     14185     14193     14195
     14189     14185     14193     14196     14189     14185     14197     14198
     14189     14185     14197     14199     14189     14185     14197     14200
     14190     14189     14185     14193     14190     14189     14185     14197
     14191     14189     14185     14193     14191     14189     14185     14197
     14192     14189     14185     14193     14192     14189     14185     14197
     14193     14185     14186     14201     14193     14185     14197     14198
     14193     14185     14197     14199     14193     14185     14197     14200
     14194     14193     14185     14197     14195     14193     14185     14197
     14196     14193     14185     14197     14197     14185     14186     14201
     14201     14207     14204     14205     14201     14207     14204     14206
     14201     14207     14204     14208     14202     14201     14207     14204
     14203     14201     14207     14204     14204     14208     14209     14210
     14204     14208     14209     14211     14204     14208     14209     14212
     14205     14204     14208     14209     14206     14204     14208     14209
     14207     14204     14208     14209     14208     14209     14212     14213
     14208     14209     14212     14214     14208     14209     14212     14220
     14209     14212     14214     14215     14209     14212     14220     14221
     14209     14212     14220     14222     14209     14212     14220     14223
     14210     14209     14212     14213     14210     14209     14212     14214
     14210     14209     14212     14220     14211     14209     14212     14213
     14211     14209     14212     14214     14211     14209     14212     14220
     14212     14214     14215     14216     14212     14214     14215     14217
     14212     14220     14223     14224     14213     14212     14214     14215
     14213     14212     14220     14221     14213     14212     14220     14222
     14213     14212     14220     14223     14214     14212     14220     14221
     14214     14212     14220     14222     14214     14212     14220     14223
     14214     14215     14217     14218     14214     14215     14217     14219
     14214     14215     14217     14229     14215     14214     14212     14220
     14215     14217     14229     14230     14215     14217     14229     14231
     14215     14217     14229     14232     14216     14215     14217     14218
     14216     14215     14217     14219     14216     14215     14217     14229
     14217     14229     14232     14233     14217     14229     14232     14234
     14217     14229     14232     14235     14218     14217     14229     14230
     14218     14217     14229     14231     14218     14217     14229     14232
     14219     14217     14229     14230     14219     14217     14229     14231
     14219     14217     14229     14232     14220     14223     14224     14225
     14220     14223     14224     14226     14221     14220     14223     14224
     14222     14220     14223     14224     14223     14224     14226     14227
     14223     14224     14226     14228     14223     14224     14226     14276
     14224     14226     14276     14277     14224     14226     14276     14278
     14224     14226     14276     14279     14225     14224     14226     14227
     14225     14224     14226     14228     14225     14224     14226     14276
     14226     14276     14279     14280     14226     14276     14279     14281
     14226     14276     14279     14282     14227     14226     14276     14277
     14227     14226     14276     14278     14227     14226     14276     14279
     14228     14226     14276     14277     14228     14226     14276     14278
     14228     14226     14276     14279     14229     14232     14235     14236
     14229     14232     14235     14237     14229     14232     14235     14238
     14230     14229     14232     14233     14230     14229     14232     14234
     14230     14229     14232     14235     14231     14229     14232     14233
     14231     14229     14232     14234     14231     14229     14232     14235
     14232     14235     14238     14239     14232     14235     14238     14240
     14232     14235     14238     14241     14233     14232     14235     14236
     14233     14232     14235     14237     14233     14232     14235     14238
     14234     14232     14235     14236     14234     14232     14235     14237
     14234     14232     14235     14238     14235     14238     14241     14242
     14235     14238     14241     14243     14235     14238     14241     14244
     14236     14235     14238     14239     14236     14235     14238     14240
     14236     14235     14238     14241     14237     14235     14238     14239
     14237     14235     14238     14240     14237     14235     14238     14241
     14238     14241     14244     14245     14238     14241     14244     14246
     14238     14241     14244     14247     14239     14238     14241     14242
     14239     14238     14241     14243     14239     14238     14241     14244
     14240     14238     14241     14242     14240     14238     14241     14243
     14240     14238     14241     14244     14241     14244     14247     14248
     14241     14244     14247     14249     14242     14241     14244     14245
     14242     14241     14244     14246     14242     14241     14244     14247
     14243     14241     14244     14245     14243     14241     14244     14246
     14243     14241     14244     14247     14244     14247     14249     14250
     14244     14247     14249     14251     14245     14244     14247     14248
     14245     14244     14247     14249     14246     14244     14247     14248
     14246     14244     14247     14249     14247     14249     14251     14252
     14247     14249     14251     14253     14247     14249     14251     14254
     14248     14247     14249     14250     14248     14247     14249     14251
     14249     14251     14254     14255     14249     14251     14254     14256
     14249     14251     14254     14257     14250     14249     14251     14252
     14250     14249     14251     14253     14250     14249     14251     14254
     14251     14254     14257     14258     14251     14254     14257     14259
     14251     14254     14257     14260     14252     14251     14254     14255
     14252     14251     14254     14256     14252     14251     14254     14257
     14253     14251     14254     14255     14253     14251     14254     14256
     14253     14251     14254     14257     14254     14257     14260     14261
     14254     14257     14260     14262     14254     14257     14260     14263
     14255     14254     14257     14258     14255     14254     14257     14259
     14255     14254     14257     14260     14256     14254     14257     14258
     14256     14254     14257     14259     14256     14254     14257     14260
     14257     14260     14263     14264     14257     14260     14263     14265
     14257     14260     14263     14266     14258     14257     14260     14261
     14258     14257     14260     14262     14258     14257     14260     14263
     14259     14257     14260     14261     14259     14257     14260     14262
     14259     14257     14260     14263     14260     14263     14266     14267
     14260     14263     14266     14268     14260     14263     14266     14269
     14261     14260     14263     14264     14261     14260     14263     14265
     14261     14260     14263     14266     14262     14260     14263     14264
     14262     14260     14263     14265     14262     14260     14263     14266
     14263     14266     14269     14270     14263     14266     14269     14271
     14263     14266     14269     14272     14264     14263     14266     14267
     14264     14263     14266     14268     14264     14263     14266     14269
     14265     14263     14266     14267     14265     14263     14266     14268
     14265     14263     14266     14269     14266     14269     14272     14273
     14266     14269     14272     14274     14266     14269     14272     14275
     14267     14266     14269     14270     14267     14266     14269     14271
     14267     14266     14269     14272     14268     14266     14269     14270
     14268     14266     14269     14271     14268     14266     14269     14272
     14270     14269     14272     14273     14270     14269     14272     14274
     14270     14269     14272     14275     14271     14269     14272     14273
     14271     14269     14272     14274     14271     14269     14272     14275
     14276     14279     14282     14283     14276     14279     14282     14284
     14276     14279     14282     14285     14277     14276     14279     14280
     14277     14276     14279     14281     14277     14276     14279     14282
     14278     14276     14279     14280     14278     14276     14279     14281
     14278     14276     14279     14282     14279     14282     14285     14286
     14279     14282     14285     14287     14279     14282     14285     14288
     14280     14279     14282     14283     14280     14279     14282     14284
     14280     14279     14282     14285     14281     14279     14282     14283
     14281     14279     14282     14284     14281     14279     14282     14285
     14282     14285     14288     14289     14282     14285     14288     14290
     14282     14285     14288     14291     14283     14282     14285     14286
     14283     14282     14285     14287     14283     14282     14285     14288
     14284     14282     14285     14286     14284     14282     14285     14287
     14284     14282     14285     14288     14285     14288     14291     14292
     14285     14288     14291     14293     14285     14288     14291     14294
     14286     14285     14288     14289     14286     14285     14288     14290
     14286     14285     14288     14291     14287     14285     14288     14289
     14287     14285     14288     14290     14287     14285     14288     14291
     14288     14291     14294     14295     14288     14291     14294     14296
     14288     14291     14294     14297     14289     14288     14291     14292
     14289     14288     14291     14293     14289     14288     14291     14294
     14290     14288     14291     14292     14290     14288     14291     14293
     14290     14288     14291     14294     14291     14294     14297     14298
     14291     14294     14297     14299     14291     14294     14297     14300
     14292     14291     14294     14295     14292     14291     14294     14296
     14292     14291     14294     14297     14293     14291     14294     14295
     14293     14291     14294     14296     14293     14291     14294     14297
     14294     14297     14300     14301     14294     14297     14300     14302
     14294     14297     14300     14303     14295     14294     14297     14298
     14295     14294     14297     14299     14295     14294     14297     14300
     14296     14294     14297     14298     14296     14294     14297     14299
     14296     14294     14297     14300     14297     14300     14303     14304
     14297     14300     14303     14305     14297     14300     14303     14306
     14298     14297     14300     14301     14298     14297     14300     14302
     14298     14297     14300     14303     14299     14297     14300     14301
     14299     14297     14300     14302     14299     14297     14300     14303
     14300     14303     14306     14307     14300     14303     14306     14308
     14300     14303     14306     14309     14301     14300     14303     14304
     14301     14300     14303     14305     14301     14300     14303     14306
     14302     14300     14303     14304     14302     14300     14303     14305
     14302     14300     14303     14306     14303     14306     14309     14310
     14303     14306     14309     14311     14303     14306     14309     14312
     14304     14303     14306     14307     14304     14303     14306     14308
     14304     14303     14306     14309     14305     14303     14306     14307
     14305     14303     14306     14308     14305     14303     14306     14309
     14306     14309     14312     14313     14306     14309     14312     14314
     14306     14309     14312     14315     14307     14306     14309     14310
     14307     14306     14309     14311     14307     14306     14309     14312
     14308     14306     14309     14310     14308     14306     14309     14311
     14308     14306     14309     14312     14309     14312     14315     14316
     14309     14312     14315     14317     14309     14312     14315     14318
     14310     14309     14312     14313     14310     14309     14312     14314
     14310     14309     14312     14315     14311     14309     14312     14313
     14311     14309     14312     14314     14311     14309     14312     14315
     14313     14312     14315     14316     14313     14312     14315     14317
     14313     14312     14315     14318     14314     14312     14315     14316
     14314     14312     14315     14317     14314     14312     14315     14318
     14319     14320     14335     14336     14319     14320     14335     14337
     14319     14320     14335     14341     14320     14319     14323     14324
     14320     14319     14323     14325     14320     14319     14323     14326
     14320     14319     14327     14328     14320     14319     14327     14329
     14320     14319     14327     14330     14320     14319     14331     14332
     14320     14319     14331     14333     14320     14319     14331     14334
     14320     14335     14341     14338     14321     14320     14319     14323
     14321     14320     14319     14327     14321     14320     14319     14331
     14321     14320     14335     14336     14321     14320     14335     14337
     14321     14320     14335     14341     14322     14320     14319     14323
     14322     14320     14319     14327     14322     14320     14319     14331
     14322     14320     14335     14336     14322     14320     14335     14337
     14322     14320     14335     14341     14323     14319     14320     14335
     14323     14319     14327     14328     14323     14319     14327     14329
     14323     14319     14327     14330     14323     14319     14331     14332
     14323     14319     14331     14333     14323     14319     14331     14334
     14324     14323     14319     14327     14324     14323     14319     14331
     14325     14323     14319     14327     14325     14323     14319     14331
     14326     14323     14319     14327     14326     14323     14319     14331
     14327     14319     14320     14335     14327     14319     14331     14332
     14327     14319     14331     14333     14327     14319     14331     14334
     14328     14327     14319     14331     14329     14327     14319     14331
     14330     14327     14319     14331     14331     14319     14320     14335
     14335     14341     14338     14339     14335     14341     14338     14340
     14335     14341     14338     14342     14336     14335     14341     14338
     14337     14335     14341     14338     14338     14342     14343     14344
     14338     14342     14343     14345     14338     14342     14343     14346
     14339     14338     14342     14343     14340     14338     14342     14343
     14341     14338     14342     14343     14342     14343     14346     14347
     14342     14343     14346     14348     14342     14343     14346     14354
     14343     14346     14348     14349     14343     14346     14354     14355
     14343     14346     14354     14356     14343     14346     14354     14357
     14344     14343     14346     14347     14344     14343     14346     14348
     14344     14343     14346     14354     14345     14343     14346     14347
     14345     14343     14346     14348     14345     14343     14346     14354
     14346     14348     14349     14350     14346     14348     14349     14351
     14346     14354     14357     14358     14347     14346     14348     14349
     14347     14346     14354     14355     14347     14346     14354     14356
     14347     14346     14354     14357     14348     14346     14354     14355
     14348     14346     14354     14356     14348     14346     14354     14357
     14348     14349     14351     14352     14348     14349     14351     14353
     14348     14349     14351     14363     14349     14348     14346     14354
     14349     14351     14363     14364     14349     14351     14363     14365
     14349     14351     14363     14366     14350     14349     14351     14352
     14350     14349     14351     14353     14350     14349     14351     14363
     14351     14363     14366     14367     14351     14363     14366     14368
     14351     14363     14366     14369     14352     14351     14363     14364
     14352     14351     14363     14365     14352     14351     14363     14366
     14353     14351     14363     14364     14353     14351     14363     14365
     14353     14351     14363     14366     14354     14357     14358     14359
     14354     14357     14358     14360     14355     14354     14357     14358
     14356     14354     14357     14358     14357     14358     14360     14361
     14357     14358     14360     14362     14357     14358     14360     14410
     14358     14360     14410     14411     14358     14360     14410     14412
     14358     14360     14410     14413     14359     14358     14360     14361
     14359     14358     14360     14362     14359     14358     14360     14410
     14360     14410     14413     14414     14360     14410     14413     14415
     14360     14410     14413     14416     14361     14360     14410     14411
     14361     14360     14410     14412     14361     14360     14410     14413
     14362     14360     14410     14411     14362     14360     14410     14412
     14362     14360     14410     14413     14363     14366     14369     14370
     14363     14366     14369     14371     14363     14366     14369     14372
     14364     14363     14366     14367     14364     14363     14366     14368
     14364     14363     14366     14369     14365     14363     14366     14367
     14365     14363     14366     14368     14365     14363     14366     14369
     14366     14369     14372     14373     14366     14369     14372     14374
     14366     14369     14372     14375     14367     14366     14369     14370
     14367     14366     14369     14371     14367     14366     14369     14372
     14368     14366     14369     14370     14368     14366     14369     14371
     14368     14366     14369     14372     14369     14372     14375     14376
     14369     14372     14375     14377     14369     14372     14375     14378
     14370     14369     14372     14373     14370     14369     14372     14374
     14370     14369     14372     14375     14371     14369     14372     14373
     14371     14369     14372     14374     14371     14369     14372     14375
     14372     14375     14378     14379     14372     14375     14378     14380
     14372     14375     14378     14381     14373     14372     14375     14376
     14373     14372     14375     14377     14373     14372     14375     14378
     14374     14372     14375     14376     14374     14372     14375     14377
     14374     14372     14375     14378     14375     14378     14381     14382
     14375     14378     14381     14383     14376     14375     14378     14379
     14376     14375     14378     14380     14376     14375     14378     14381
     14377     14375     14378     14379     14377     14375     14378     14380
     14377     14375     14378     14381     14378     14381     14383     14384
     14378     14381     14383     14385     14379     14378     14381     14382
     14379     14378     14381     14383     14380     14378     14381     14382
     14380     14378     14381     14383     14381     14383     14385     14386
     14381     14383     14385     14387     14381     14383     14385     14388
     14382     14381     14383     14384     14382     14381     14383     14385
     14383     14385     14388     14389     14383     14385     14388     14390
     14383     14385     14388     14391     14384     14383     14385     14386
     14384     14383     14385     14387     14384     14383     14385     14388
     14385     14388     14391     14392     14385     14388     14391     14393
     14385     14388     14391     14394     14386     14385     14388     14389
     14386     14385     14388     14390     14386     14385     14388     14391
     14387     14385     14388     14389     14387     14385     14388     14390
     14387     14385     14388     14391     14388     14391     14394     14395
     14388     14391     14394     14396     14388     14391     14394     14397
     14389     14388     14391     14392     14389     14388     14391     14393
     14389     14388     14391     14394     14390     14388     14391     14392
     14390     14388     14391     14393     14390     14388     14391     14394
     14391     14394     14397     14398     14391     14394     14397     14399
     14391     14394     14397     14400     14392     14391     14394     14395
     14392     14391     14394     14396     14392     14391     14394     14397
     14393     14391     14394     14395     14393     14391     14394     14396
     14393     14391     14394     14397     14394     14397     14400     14401
     14394     14397     14400     14402     14394     14397     14400     14403
     14395     14394     14397     14398     14395     14394     14397     14399
     14395     14394     14397     14400     14396     14394     14397     14398
     14396     14394     14397     14399     14396     14394     14397     14400
     14397     14400     14403     14404     14397     14400     14403     14405
     14397     14400     14403     14406     14398     14397     14400     14401
     14398     14397     14400     14402     14398     14397     14400     14403
     14399     14397     14400     14401     14399     14397     14400     14402
     14399     14397     14400     14403     14400     14403     14406     14407
     14400     14403     14406     14408     14400     14403     14406     14409
     14401     14400     14403     14404     14401     14400     14403     14405
     14401     14400     14403     14406     14402     14400     14403     14404
     14402     14400     14403     14405     14402     14400     14403     14406
     14404     14403     14406     14407     14404     14403     14406     14408
     14404     14403     14406     14409     14405     14403     14406     14407
     14405     14403     14406     14408     14405     14403     14406     14409
     14410     14413     14416     14417     14410     14413     14416     14418
     14410     14413     14416     14419     14411     14410     14413     14414
     14411     14410     14413     14415     14411     14410     14413     14416
     14412     14410     14413     14414     14412     14410     14413     14415
     14412     14410     14413     14416     14413     14416     14419     14420
     14413     14416     14419     14421     14413     14416     14419     14422
     14414     14413     14416     14417     14414     14413     14416     14418
     14414     14413     14416     14419     14415     14413     14416     14417
     14415     14413     14416     14418     14415     14413     14416     14419
     14416     14419     14422     14423     14416     14419     14422     14424
     14416     14419     14422     14425     14417     14416     14419     14420
     14417     14416     14419     14421     14417     14416     14419     14422
     14418     14416     14419     14420     14418     14416     14419     14421
     14418     14416     14419     14422     14419     14422     14425     14426
     14419     14422     14425     14427     14419     14422     14425     14428
     14420     14419     14422     14423     14420     14419     14422     14424
     14420     14419     14422     14425     14421     14419     14422     14423
     14421     14419     14422     14424     14421     14419     14422     14425
     14422     14425     14428     14429     14422     14425     14428     14430
     14422     14425     14428     14431     14423     14422     14425     14426
     14423     14422     14425     14427     14423     14422     14425     14428
     14424     14422     14425     14426     14424     14422     14425     14427
     14424     14422     14425     14428     14425     14428     14431     14432
     14425     14428     14431     14433     14425     14428     14431     14434
     14426     14425     14428     14429     14426     14425     14428     14430
     14426     14425     14428     14431     14427     14425     14428     14429
     14427     14425     14428     14430     14427     14425     14428     14431
     14428     14431     14434     14435     14428     14431     14434     14436
     14428     14431     14434     14437     14429     14428     14431     14432
     14429     14428     14431     14433     14429     14428     14431     14434
     14430     14428     14431     14432     14430     14428     14431     14433
     14430     14428     14431     14434     14431     14434     14437     14438
     14431     14434     14437     14439     14431     14434     14437     14440
     14432     14431     14434     14435     14432     14431     14434     14436
     14432     14431     14434     14437     14433     14431     14434     14435
     14433     14431     14434     14436     14433     14431     14434     14437
     14434     14437     14440     14441     14434     14437     14440     14442
     14434     14437     14440     14443     14435     14434     14437     14438
     14435     14434     14437     14439     14435     14434     14437     14440
     14436     14434     14437     14438     14436     14434     14437     14439
     14436     14434     14437     14440     14437     14440     14443     14444
     14437     14440     14443     14445     14437     14440     14443     14446
     14438     14437     14440     14441     14438     14437     14440     14442
     14438     14437     14440     14443     14439     14437     14440     14441
     14439     14437     14440     14442     14439     14437     14440     14443
     14440     14443     14446     14447     14440     14443     14446     14448
     14440     14443     14446     14449     14441     14440     14443     14444
     14441     14440     14443     14445     14441     14440     14443     14446
     14442     14440     14443     14444     14442     14440     14443     14445
     14442     14440     14443     14446     14443     14446     14449     14450
     14443     14446     14449     14451     14443     14446     14449     14452
     14444     14443     14446     14447     14444     14443     14446     14448
     14444     14443     14446     14449     14445     14443     14446     14447
     14445     14443     14446     14448     14445     14443     14446     14449
     14447     14446     14449     14450     14447     14446     14449     14451
     14447     14446     14449     14452     14448     14446     14449     14450
     14448     14446     14449     14451     14448     14446     14449     14452
     14453     14454     14469     14470     14453     14454     14469     14471
     14453     14454     14469     14475     14454     14453     14457     14458
     14454     14453     14457     14459     14454     14453     14457     14460
     14454     14453     14461     14462     14454     14453     14461     14463
     14454     14453     14461     14464     14454     14453     14465     14466
     14454     14453     14465     14467     14454     14453     14465     14468
     14454     14469     14475     14472     14455     14454     14453     14457
     14455     14454     14453     14461     14455     14454     14453     14465
     14455     14454     14469     14470     14455     14454     14469     14471
     14455     14454     14469     14475     14456     14454     14453     14457
     14456     14454     14453     14461     14456     14454     14453     14465
     14456     14454     14469     14470     14456     14454     14469     14471
     14456     14454     14469     14475     14457     14453     14454     14469
     14457     14453     14461     14462     14457     14453     14461     14463
     14457     14453     14461     14464     14457     14453     14465     14466
     14457     14453     14465     14467     14457     14453     14465     14468
     14458     14457     14453     14461     14458     14457     14453     14465
     14459     14457     14453     14461     14459     14457     14453     14465
     14460     14457     14453     14461     14460     14457     14453     14465
     14461     14453     14454     14469     14461     14453     14465     14466
     14461     14453     14465     14467     14461     14453     14465     14468
     14462     14461     14453     14465     14463     14461     14453     14465
     14464     14461     14453     14465     14465     14453     14454     14469
     14469     14475     14472     14473     14469     14475     14472     14474
     14469     14475     14472     14476     14470     14469     14475     14472
     14471     14469     14475     14472     14472     14476     14477     14478
     14472     14476     14477     14479     14472     14476     14477     14480
     14473     14472     14476     14477     14474     14472     14476     14477
     14475     14472     14476     14477     14476     14477     14480     14481
     14476     14477     14480     14482     14476     14477     14480     14488
     14477     14480     14482     14483     14477     14480     14488     14489
     14477     14480     14488     14490     14477     14480     14488     14491
     14478     14477     14480     14481     14478     14477     14480     14482
     14478     14477     14480     14488     14479     14477     14480     14481
     14479     14477     14480     14482     14479     14477     14480     14488
     14480     14482     14483     14484     14480     14482     14483     14485
     14480     14488     14491     14492     14481     14480     14482     14483
     14481     14480     14488     14489     14481     14480     14488     14490
     14481     14480     14488     14491     14482     14480     14488     14489
     14482     14480     14488     14490     14482     14480     14488     14491
     14482     14483     14485     14486     14482     14483     14485     14487
     14482     14483     14485     14497     14483     14482     14480     14488
     14483     14485     14497     14498     14483     14485     14497     14499
     14483     14485     14497     14500     14484     14483     14485     14486
     14484     14483     14485     14487     14484     14483     14485     14497
     14485     14497     14500     14501     14485     14497     14500     14502
     14485     14497     14500     14503     14486     14485     14497     14498
     14486     14485     14497     14499     14486     14485     14497     14500
     14487     14485     14497     14498     14487     14485     14497     14499
     14487     14485     14497     14500     14488     14491     14492     14493
     14488     14491     14492     14494     14489     14488     14491     14492
     14490     14488     14491     14492     14491     14492     14494     14495
     14491     14492     14494     14496     14491     14492     14494     14544
     14492     14494     14544     14545     14492     14494     14544     14546
     14492     14494     14544     14547     14493     14492     14494     14495
     14493     14492     14494     14496     14493     14492     14494     14544
     14494     14544     14547     14548     14494     14544     14547     14549
     14494     14544     14547     14550     14495     14494     14544     14545
     14495     14494     14544     14546     14495     14494     14544     14547
     14496     14494     14544     14545     14496     14494     14544     14546
     14496     14494     14544     14547     14497     14500     14503     14504
     14497     14500     14503     14505     14497     14500     14503     14506
     14498     14497     14500     14501     14498     14497     14500     14502
     14498     14497     14500     14503     14499     14497     14500     14501
     14499     14497     14500     14502     14499     14497     14500     14503
     14500     14503     14506     14507     14500     14503     14506     14508
     14500     14503     14506     14509     14501     14500     14503     14504
     14501     14500     14503     14505     14501     14500     14503     14506
     14502     14500     14503     14504     14502     14500     14503     14505
     14502     14500     14503     14506     14503     14506     14509     14510
     14503     14506     14509     14511     14503     14506     14509     14512
     14504     14503     14506     14507     14504     14503     14506     14508
     14504     14503     14506     14509     14505     14503     14506     14507
     14505     14503     14506     14508     14505     14503     14506     14509
     14506     14509     14512     14513     14506     14509     14512     14514
     14506     14509     14512     14515     14507     14506     14509     14510
     14507     14506     14509     14511     14507     14506     14509     14512
     14508     14506     14509     14510     14508     14506     14509     14511
     14508     14506     14509     14512     14509     14512     14515     14516
     14509     14512     14515     14517     14510     14509     14512     14513
     14510     14509     14512     14514     14510     14509     14512     14515
     14511     14509     14512     14513     14511     14509     14512     14514
     14511     14509     14512     14515     14512     14515     14517     14518
     14512     14515     14517     14519     14513     14512     14515     14516
     14513     14512     14515     14517     14514     14512     14515     14516
     14514     14512     14515     14517     14515     14517     14519     14520
     14515     14517     14519     14521     14515     14517     14519     14522
     14516     14515     14517     14518     14516     14515     14517     14519
     14517     14519     14522     14523     14517     14519     14522     14524
     14517     14519     14522     14525     14518     14517     14519     14520
     14518     14517     14519     14521     14518     14517     14519     14522
     14519     14522     14525     14526     14519     14522     14525     14527
     14519     14522     14525     14528     14520     14519     14522     14523
     14520     14519     14522     14524     14520     14519     14522     14525
     14521     14519     14522     14523     14521     14519     14522     14524
     14521     14519     14522     14525     14522     14525     14528     14529
     14522     14525     14528     14530     14522     14525     14528     14531
     14523     14522     14525     14526     14523     14522     14525     14527
     14523     14522     14525     14528     14524     14522     14525     14526
     14524     14522     14525     14527     14524     14522     14525     14528
     14525     14528     14531     14532     14525     14528     14531     14533
     14525     14528     14531     14534     14526     14525     14528     14529
     14526     14525     14528     14530     14526     14525     14528     14531
     14527     14525     14528     14529     14527     14525     14528     14530
     14527     14525     14528     14531     14528     14531     14534     14535
     14528     14531     14534     14536     14528     14531     14534     14537
     14529     14528     14531     14532     14529     14528     14531     14533
     14529     14528     14531     14534     14530     14528     14531     14532
     14530     14528     14531     14533     14530     14528     14531     14534
     14531     14534     14537     14538     14531     14534     14537     14539
     14531     14534     14537     14540     14532     14531     14534     14535
     14532     14531     14534     14536     14532     14531     14534     14537
     14533     14531     14534     14535     14533     14531     14534     14536
     14533     14531     14534     14537     14534     14537     14540     14541
     14534     14537     14540     14542     14534     14537     14540     14543
     14535     14534     14537     14538     14535     14534     14537     14539
     14535     14534     14537     14540     14536     14534     14537     14538
     14536     14534     14537     14539     14536     14534     14537     14540
     14538     14537     14540     14541     14538     14537     14540     14542
     14538     14537     14540     14543     14539     14537     14540     14541
     14539     14537     14540     14542     14539     14537     14540     14543
     14544     14547     14550     14551     14544     14547     14550     14552
     14544     14547     14550     14553     14545     14544     14547     14548
     14545     14544     14547     14549     14545     14544     14547     14550
     14546     14544     14547     14548     14546     14544     14547     14549
     14546     14544     14547     14550     14547     14550     14553     14554
     14547     14550     14553     14555     14547     14550     14553     14556
     14548     14547     14550     14551     14548     14547     14550     14552
     14548     14547     14550     14553     14549     14547     14550     14551
     14549     14547     14550     14552     14549     14547     14550     14553
     14550     14553     14556     14557     14550     14553     14556     14558
     14550     14553     14556     14559     14551     14550     14553     14554
     14551     14550     14553     14555     14551     14550     14553     14556
     14552     14550     14553     14554     14552     14550     14553     14555
     14552     14550     14553     14556     14553     14556     14559     14560
     14553     14556     14559     14561     14553     14556     14559     14562
     14554     14553     14556     14557     14554     14553     14556     14558
     14554     14553     14556     14559     14555     14553     14556     14557
     14555     14553     14556     14558     14555     14553     14556     14559
     14556     14559     14562     14563     14556     14559     14562     14564
     14556     14559     14562     14565     14557     14556     14559     14560
     14557     14556     14559     14561     14557     14556     14559     14562
     14558     14556     14559     14560     14558     14556     14559     14561
     14558     14556     14559     14562     14559     14562     14565     14566
     14559     14562     14565     14567     14559     14562     14565     14568
     14560     14559     14562     14563     14560     14559     14562     14564
     14560     14559     14562     14565     14561     14559     14562     14563
     14561     14559     14562     14564     14561     14559     14562     14565
     14562     14565     14568     14569     14562     14565     14568     14570
     14562     14565     14568     14571     14563     14562     14565     14566
     14563     14562     14565     14567     14563     14562     14565     14568
     14564     14562     14565     14566     14564     14562     14565     14567
     14564     14562     14565     14568     14565     14568     14571     14572
     14565     14568     14571     14573     14565     14568     14571     14574
     14566     14565     14568     14569     14566     14565     14568     14570
     14566     14565     14568     14571     14567     14565     14568     14569
     14567     14565     14568     14570     14567     14565     14568     14571
     14568     14571     14574     14575     14568     14571     14574     14576
     14568     14571     14574     14577     14569     14568     14571     14572
     14569     14568     14571     14573     14569     14568     14571     14574
     14570     14568     14571     14572     14570     14568     14571     14573
     14570     14568     14571     14574     14571     14574     14577     14578
     14571     14574     14577     14579     14571     14574     14577     14580
     14572     14571     14574     14575     14572     14571     14574     14576
     14572     14571     14574     14577     14573     14571     14574     14575
     14573     14571     14574     14576     14573     14571     14574     14577
     14574     14577     14580     14581     14574     14577     14580     14582
     14574     14577     14580     14583     14575     14574     14577     14578
     14575     14574     14577     14579     14575     14574     14577     14580
     14576     14574     14577     14578     14576     14574     14577     14579
     14576     14574     14577     14580     14577     14580     14583     14584
     14577     14580     14583     14585     14577     14580     14583     14586
     14578     14577     14580     14581     14578     14577     14580     14582
     14578     14577     14580     14583     14579     14577     14580     14581
     14579     14577     14580     14582     14579     14577     14580     14583
     14581     14580     14583     14584     14581     14580     14583     14585
     14581     14580     14583     14586     14582     14580     14583     14584
     14582     14580     14583     14585     14582     14580     14583     14586
     14587     14588     14603     14604     14587     14588     14603     14605
     14587     14588     14603     14609     14588     14587     14591     14592
     14588     14587     14591     14593     14588     14587     14591     14594
     14588     14587     14595     14596     14588     14587     14595     14597
     14588     14587     14595     14598     14588     14587     14599     14600
     14588     14587     14599     14601     14588     14587     14599     14602
     14588     14603     14609     14606     14589     14588     14587     14591
     14589     14588     14587     14595     14589     14588     14587     14599
     14589     14588     14603     14604     14589     14588     14603     14605
     14589     14588     14603     14609     14590     14588     14587     14591
     14590     14588     14587     14595     14590     14588     14587     14599
     14590     14588     14603     14604     14590     14588     14603     14605
     14590     14588     14603     14609     14591     14587     14588     14603
     14591     14587     14595     14596     14591     14587     14595     14597
     14591     14587     14595     14598     14591     14587     14599     14600
     14591     14587     14599     14601     14591     14587     14599     14602
     14592     14591     14587     14595     14592     14591     14587     14599
     14593     14591     14587     14595     14593     14591     14587     14599
     14594     14591     14587     14595     14594     14591     14587     14599
     14595     14587     14588     14603     14595     14587     14599     14600
     14595     14587     14599     14601     14595     14587     14599     14602
     14596     14595     14587     14599     14597     14595     14587     14599
     14598     14595     14587     14599     14599     14587     14588     14603
     14603     14609     14606     14607     14603     14609     14606     14608
     14603     14609     14606     14610     14604     14603     14609     14606
     14605     14603     14609     14606     14606     14610     14611     14612
     14606     14610     14611     14613     14606     14610     14611     14614
     14607     14606     14610     14611     14608     14606     14610     14611
     14609     14606     14610     14611     14610     14611     14614     14615
     14610     14611     14614     14616     14610     14611     14614     14622
     14611     14614     14616     14617     14611     14614     14622     14623
     14611     14614     14622     14624     14611     14614     14622     14625
     14612     14611     14614     14615     14612     14611     14614     14616
     14612     14611     14614     14622     14613     14611     14614     14615
     14613     14611     14614     14616     14613     14611     14614     14622
     14614     14616     14617     14618     14614     14616     14617     14619
     14614     14622     14625     14626     14615     14614     14616     14617
     14615     14614     14622     14623     14615     14614     14622     14624
     14615     14614     14622     14625     14616     14614     14622     14623
     14616     14614     14622     14624     14616     14614     14622     14625
     14616     14617     14619     14620     14616     14617     14619     14621
     14616     14617     14619     14631     14617     14616     14614     14622
     14617     14619     14631     14632     14617     14619     14631     14633
     14617     14619     14631     14634     14618     14617     14619     14620
     14618     14617     14619     14621     14618     14617     14619     14631
     14619     14631     14634     14635     14619     14631     14634     14636
     14619     14631     14634     14637     14620     14619     14631     14632
     14620     14619     14631     14633     14620     14619     14631     14634
     14621     14619     14631     14632     14621     14619     14631     14633
     14621     14619     14631     14634     14622     14625     14626     14627
     14622     14625     14626     14628     14623     14622     14625     14626
     14624     14622     14625     14626     14625     14626     14628     14629
     14625     14626     14628     14630     14625     14626     14628     14678
     14626     14628     14678     14679     14626     14628     14678     14680
     14626     14628     14678     14681     14627     14626     14628     14629
     14627     14626     14628     14630     14627     14626     14628     14678
     14628     14678     14681     14682     14628     14678     14681     14683
     14628     14678     14681     14684     14629     14628     14678     14679
     14629     14628     14678     14680     14629     14628     14678     14681
     14630     14628     14678     14679     14630     14628     14678     14680
     14630     14628     14678     14681     14631     14634     14637     14638
     14631     14634     14637     14639     14631     14634     14637     14640
     14632     14631     14634     14635     14632     14631     14634     14636
     14632     14631     14634     14637     14633     14631     14634     14635
     14633     14631     14634     14636     14633     14631     14634     14637
     14634     14637     14640     14641     14634     14637     14640     14642
     14634     14637     14640     14643     14635     14634     14637     14638
     14635     14634     14637     14639     14635     14634     14637     14640
     14636     14634     14637     14638     14636     14634     14637     14639
     14636     14634     14637     14640     14637     14640     14643     14644
     14637     14640     14643     14645     14637     14640     14643     14646
     14638     14637     14640     14641     14638     14637     14640     14642
     14638     14637     14640     14643     14639     14637     14640     14641
     14639     14637     14640     14642     14639     14637     14640     14643
     14640     14643     14646     14647     14640     14643     14646     14648
     14640     14643     14646     14649     14641     14640     14643     14644
     14641     14640     14643     14645     14641     14640     14643     14646
     14642     14640     14643     14644     14642     14640     14643     14645
     14642     14640     14643     14646     14643     14646     14649     14650
     14643     14646     14649     14651     14644     14643     14646     14647
     14644     14643     14646     14648     14644     14643     14646     14649
     14645     14643     14646     14647     14645     14643     14646     14648
     14645     14643     14646     14649     14646     14649     14651     14652
     14646     14649     14651     14653     14647     14646     14649     14650
     14647     14646     14649     14651     14648     14646     14649     14650
     14648     14646     14649     14651     14649     14651     14653     14654
     14649     14651     14653     14655     14649     14651     14653     14656
     14650     14649     14651     14652     14650     14649     14651     14653
     14651     14653     14656     14657     14651     14653     14656     14658
     14651     14653     14656     14659     14652     14651     14653     14654
     14652     14651     14653     14655     14652     14651     14653     14656
     14653     14656     14659     14660     14653     14656     14659     14661
     14653     14656     14659     14662     14654     14653     14656     14657
     14654     14653     14656     14658     14654     14653     14656     14659
     14655     14653     14656     14657     14655     14653     14656     14658
     14655     14653     14656     14659     14656     14659     14662     14663
     14656     14659     14662     14664     14656     14659     14662     14665
     14657     14656     14659     14660     14657     14656     14659     14661
     14657     14656     14659     14662     14658     14656     14659     14660
     14658     14656     14659     14661     14658     14656     14659     14662
     14659     14662     14665     14666     14659     14662     14665     14667
     14659     14662     14665     14668     14660     14659     14662     14663
     14660     14659     14662     14664     14660     14659     14662     14665
     14661     14659     14662     14663     14661     14659     14662     14664
     14661     14659     14662     14665     14662     14665     14668     14669
     14662     14665     14668     14670     14662     14665     14668     14671
     14663     14662     14665     14666     14663     14662     14665     14667
     14663     14662     14665     14668     14664     14662     14665     14666
     14664     14662     14665     14667     14664     14662     14665     14668
     14665     14668     14671     14672     14665     14668     14671     14673
     14665     14668     14671     14674     14666     14665     14668     14669
     14666     14665     14668     14670     14666     14665     14668     14671
     14667     14665     14668     14669     14667     14665     14668     14670
     14667     14665     14668     14671     14668     14671     14674     14675
     14668     14671     14674     14676     14668     14671     14674     14677
     14669     14668     14671     14672     14669     14668     14671     14673
     14669     14668     14671     14674     14670     14668     14671     14672
     14670     14668     14671     14673     14670     14668     14671     14674
     14672     14671     14674     14675     14672     14671     14674     14676
     14672     14671     14674     14677     14673     14671     14674     14675
     14673     14671     14674     14676     14673     14671     14674     14677
     14678     14681     14684     14685     14678     14681     14684     14686
     14678     14681     14684     14687     14679     14678     14681     14682
     14679     14678     14681     14683     14679     14678     14681     14684
     14680     14678     14681     14682     14680     14678     14681     14683
     14680     14678     14681     14684     14681     14684     14687     14688
     14681     14684     14687     14689     14681     14684     14687     14690
     14682     14681     14684     14685     14682     14681     14684     14686
     14682     14681     14684     14687     14683     14681     14684     14685
     14683     14681     14684     14686     14683     14681     14684     14687
     14684     14687     14690     14691     14684     14687     14690     14692
     14684     14687     14690     14693     14685     14684     14687     14688
     14685     14684     14687     14689     14685     14684     14687     14690
     14686     14684     14687     14688     14686     14684     14687     14689
     14686     14684     14687     14690     14687     14690     14693     14694
     14687     14690     14693     14695     14687     14690     14693     14696
     14688     14687     14690     14691     14688     14687     14690     14692
     14688     14687     14690     14693     14689     14687     14690     14691
     14689     14687     14690     14692     14689     14687     14690     14693
     14690     14693     14696     14697     14690     14693     14696     14698
     14690     14693     14696     14699     14691     14690     14693     14694
     14691     14690     14693     14695     14691     14690     14693     14696
     14692     14690     14693     14694     14692     14690     14693     14695
     14692     14690     14693     14696     14693     14696     14699     14700
     14693     14696     14699     14701     14693     14696     14699     14702
     14694     14693     14696     14697     14694     14693     14696     14698
     14694     14693     14696     14699     14695     14693     14696     14697
     14695     14693     14696     14698     14695     14693     14696     14699
     14696     14699     14702     14703     14696     14699     14702     14704
     14696     14699     14702     14705     14697     14696     14699     14700
     14697     14696     14699     14701     14697     14696     14699     14702
     14698     14696     14699     14700     14698     14696     14699     14701
     14698     14696     14699     14702     14699     14702     14705     14706
     14699     14702     14705     14707     14699     14702     14705     14708
     14700     14699     14702     14703     14700     14699     14702     14704
     14700     14699     14702     14705     14701     14699     14702     14703
     14701     14699     14702     14704     14701     14699     14702     14705
     14702     14705     14708     14709     14702     14705     14708     14710
     14702     14705     14708     14711     14703     14702     14705     14706
     14703     14702     14705     14707     14703     14702     14705     14708
     14704     14702     14705     14706     14704     14702     14705     14707
     14704     14702     14705     14708     14705     14708     14711     14712
     14705     14708     14711     14713     14705     14708     14711     14714
     14706     14705     14708     14709     14706     14705     14708     14710
     14706     14705     14708     14711     14707     14705     14708     14709
     14707     14705     14708     14710     14707     14705     14708     14711
     14708     14711     14714     14715     14708     14711     14714     14716
     14708     14711     14714     14717     14709     14708     14711     14712
     14709     14708     14711     14713     14709     14708     14711     14714
     14710     14708     14711     14712     14710     14708     14711     14713
     14710     14708     14711     14714     14711     14714     14717     14718
     14711     14714     14717     14719     14711     14714     14717     14720
     14712     14711     14714     14715     14712     14711     14714     14716
     14712     14711     14714     14717     14713     14711     14714     14715
     14713     14711     14714     14716     14713     14711     14714     14717
     14715     14714     14717     14718     14715     14714     14717     14719
     14715     14714     14717     14720     14716     14714     14717     14718
     14716     14714     14717     14719     14716     14714     14717     14720
     14721     14722     14737     14738     14721     14722     14737     14739
     14721     14722     14737     14743     14722     14721     14725     14726
     14722     14721     14725     14727     14722     14721     14725     14728
     14722     14721     14729     14730     14722     14721     14729     14731
     14722     14721     14729     14732     14722     14721     14733     14734
     14722     14721     14733     14735     14722     14721     14733     14736
     14722     14737     14743     14740     14723     14722     14721     14725
     14723     14722     14721     14729     14723     14722     14721     14733
     14723     14722     14737     14738     14723     14722     14737     14739
     14723     14722     14737     14743     14724     14722     14721     14725
     14724     14722     14721     14729     14724     14722     14721     14733
     14724     14722     14737     14738     14724     14722     14737     14739
     14724     14722     14737     14743     14725     14721     14722     14737
     14725     14721     14729     14730     14725     14721     14729     14731
     14725     14721     14729     14732     14725     14721     14733     14734
     14725     14721     14733     14735     14725     14721     14733     14736
     14726     14725     14721     14729     14726     14725     14721     14733
     14727     14725     14721     14729     14727     14725     14721     14733
     14728     14725     14721     14729     14728     14725     14721     14733
     14729     14721     14722     14737     14729     14721     14733     14734
     14729     14721     14733     14735     14729     14721     14733     14736
     14730     14729     14721     14733     14731     14729     14721     14733
     14732     14729     14721     14733     14733     14721     14722     14737
     14737     14743     14740     14741     14737     14743     14740     14742
     14737     14743     14740     14744     14738     14737     14743     14740
     14739     14737     14743     14740     14740     14744     14745     14746
     14740     14744     14745     14747     14740     14744     14745     14748
     14741     14740     14744     14745     14742     14740     14744     14745
     14743     14740     14744     14745     14744     14745     14748     14749
     14744     14745     14748     14750     14744     14745     14748     14756
     14745     14748     14750     14751     14745     14748     14756     14757
     14745     14748     14756     14758     14745     14748     14756     14759
     14746     14745     14748     14749     14746     14745     14748     14750
     14746     14745     14748     14756     14747     14745     14748     14749
     14747     14745     14748     14750     14747     14745     14748     14756
     14748     14750     14751     14752     14748     14750     14751     14753
     14748     14756     14759     14760     14749     14748     14750     14751
     14749     14748     14756     14757     14749     14748     14756     14758
     14749     14748     14756     14759     14750     14748     14756     14757
     14750     14748     14756     14758     14750     14748     14756     14759
     14750     14751     14753     14754     14750     14751     14753     14755
     14750     14751     14753     14765     14751     14750     14748     14756
     14751     14753     14765     14766     14751     14753     14765     14767
     14751     14753     14765     14768     14752     14751     14753     14754
     14752     14751     14753     14755     14752     14751     14753     14765
     14753     14765     14768     14769     14753     14765     14768     14770
     14753     14765     14768     14771     14754     14753     14765     14766
     14754     14753     14765     14767     14754     14753     14765     14768
     14755     14753     14765     14766     14755     14753     14765     14767
     14755     14753     14765     14768     14756     14759     14760     14761
     14756     14759     14760     14762     14757     14756     14759     14760
     14758     14756     14759     14760     14759     14760     14762     14763
     14759     14760     14762     14764     14759     14760     14762     14812
     14760     14762     14812     14813     14760     14762     14812     14814
     14760     14762     14812     14815     14761     14760     14762     14763
     14761     14760     14762     14764     14761     14760     14762     14812
     14762     14812     14815     14816     14762     14812     14815     14817
     14762     14812     14815     14818     14763     14762     14812     14813
     14763     14762     14812     14814     14763     14762     14812     14815
     14764     14762     14812     14813     14764     14762     14812     14814
     14764     14762     14812     14815     14765     14768     14771     14772
     14765     14768     14771     14773     14765     14768     14771     14774
     14766     14765     14768     14769     14766     14765     14768     14770
     14766     14765     14768     14771     14767     14765     14768     14769
     14767     14765     14768     14770     14767     14765     14768     14771
     14768     14771     14774     14775     14768     14771     14774     14776
     14768     14771     14774     14777     14769     14768     14771     14772
     14769     14768     14771     14773     14769     14768     14771     14774
     14770     14768     14771     14772     14770     14768     14771     14773
     14770     14768     14771     14774     14771     14774     14777     14778
     14771     14774     14777     14779     14771     14774     14777     14780
     14772     14771     14774     14775     14772     14771     14774     14776
     14772     14771     14774     14777     14773     14771     14774     14775
     14773     14771     14774     14776     14773     14771     14774     14777
     14774     14777     14780     14781     14774     14777     14780     14782
     14774     14777     14780     14783     14775     14774     14777     14778
     14775     14774     14777     14779     14775     14774     14777     14780
     14776     14774     14777     14778     14776     14774     14777     14779
     14776     14774     14777     14780     14777     14780     14783     14784
     14777     14780     14783     14785     14778     14777     14780     14781
     14778     14777     14780     14782     14778     14777     14780     14783
     14779     14777     14780     14781     14779     14777     14780     14782
     14779     14777     14780     14783     14780     14783     14785     14786
     14780     14783     14785     14787     14781     14780     14783     14784
     14781     14780     14783     14785     14782     14780     14783     14784
     14782     14780     14783     14785     14783     14785     14787     14788
     14783     14785     14787     14789     14783     14785     14787     14790
     14784     14783     14785     14786     14784     14783     14785     14787
     14785     14787     14790     14791     14785     14787     14790     14792
     14785     14787     14790     14793     14786     14785     14787     14788
     14786     14785     14787     14789     14786     14785     14787     14790
     14787     14790     14793     14794     14787     14790     14793     14795
     14787     14790     14793     14796     14788     14787     14790     14791
     14788     14787     14790     14792     14788     14787     14790     14793
     14789     14787     14790     14791     14789     14787     14790     14792
     14789     14787     14790     14793     14790     14793     14796     14797
     14790     14793     14796     14798     14790     14793     14796     14799
     14791     14790     14793     14794     14791     14790     14793     14795
     14791     14790     14793     14796     14792     14790     14793     14794
     14792     14790     14793     14795     14792     14790     14793     14796
     14793     14796     14799     14800     14793     14796     14799     14801
     14793     14796     14799     14802     14794     14793     14796     14797
     14794     14793     14796     14798     14794     14793     14796     14799
     14795     14793     14796     14797     14795     14793     14796     14798
     14795     14793     14796     14799     14796     14799     14802     14803
     14796     14799     14802     14804     14796     14799     14802     14805
     14797     14796     14799     14800     14797     14796     14799     14801
     14797     14796     14799     14802     14798     14796     14799     14800
     14798     14796     14799     14801     14798     14796     14799     14802
     14799     14802     14805     14806     14799     14802     14805     14807
     14799     14802     14805     14808     14800     14799     14802     14803
     14800     14799     14802     14804     14800     14799     14802     14805
     14801     14799     14802     14803     14801     14799     14802     14804
     14801     14799     14802     14805     14802     14805     14808     14809
     14802     14805     14808     14810     14802     14805     14808     14811
     14803     14802     14805     14806     14803     14802     14805     14807
     14803     14802     14805     14808     14804     14802     14805     14806
     14804     14802     14805     14807     14804     14802     14805     14808
     14806     14805     14808     14809     14806     14805     14808     14810
     14806     14805     14808     14811     14807     14805     14808     14809
     14807     14805     14808     14810     14807     14805     14808     14811
     14812     14815     14818     14819     14812     14815     14818     14820
     14812     14815     14818     14821     14813     14812     14815     14816
     14813     14812     14815     14817     14813     14812     14815     14818
     14814     14812     14815     14816     14814     14812     14815     14817
     14814     14812     14815     14818     14815     14818     14821     14822
     14815     14818     14821     14823     14815     14818     14821     14824
     14816     14815     14818     14819     14816     14815     14818     14820
     14816     14815     14818     14821     14817     14815     14818     14819
     14817     14815     14818     14820     14817     14815     14818     14821
     14818     14821     14824     14825     14818     14821     14824     14826
     14818     14821     14824     14827     14819     14818     14821     14822
     14819     14818     14821     14823     14819     14818     14821     14824
     14820     14818     14821     14822     14820     14818     14821     14823
     14820     14818     14821     14824     14821     14824     14827     14828
     14821     14824     14827     14829     14821     14824     14827     14830
     14822     14821     14824     14825     14822     14821     14824     14826
     14822     14821     14824     14827     14823     14821     14824     14825
     14823     14821     14824     14826     14823     14821     14824     14827
     14824     14827     14830     14831     14824     14827     14830     14832
     14824     14827     14830     14833     14825     14824     14827     14828
     14825     14824     14827     14829     14825     14824     14827     14830
     14826     14824     14827     14828     14826     14824     14827     14829
     14826     14824     14827     14830     14827     14830     14833     14834
     14827     14830     14833     14835     14827     14830     14833     14836
     14828     14827     14830     14831     14828     14827     14830     14832
     14828     14827     14830     14833     14829     14827     14830     14831
     14829     14827     14830     14832     14829     14827     14830     14833
     14830     14833     14836     14837     14830     14833     14836     14838
     14830     14833     14836     14839     14831     14830     14833     14834
     14831     14830     14833     14835     14831     14830     14833     14836
     14832     14830     14833     14834     14832     14830     14833     14835
     14832     14830     14833     14836     14833     14836     14839     14840
     14833     14836     14839     14841     14833     14836     14839     14842
     14834     14833     14836     14837     14834     14833     14836     14838
     14834     14833     14836     14839     14835     14833     14836     14837
     14835     14833     14836     14838     14835     14833     14836     14839
     14836     14839     14842     14843     14836     14839     14842     14844
     14836     14839     14842     14845     14837     14836     14839     14840
     14837     14836     14839     14841     14837     14836     14839     14842
     14838     14836     14839     14840     14838     14836     14839     14841
     14838     14836     14839     14842     14839     14842     14845     14846
     14839     14842     14845     14847     14839     14842     14845     14848
     14840     14839     14842     14843     14840     14839     14842     14844
     14840     14839     14842     14845     14841     14839     14842     14843
     14841     14839     14842     14844     14841     14839     14842     14845
     14842     14845     14848     14849     14842     14845     14848     14850
     14842     14845     14848     14851     14843     14842     14845     14846
     14843     14842     14845     14847     14843     14842     14845     14848
     14844     14842     14845     14846     14844     14842     14845     14847
     14844     14842     14845     14848     14845     14848     14851     14852
     14845     14848     14851     14853     14845     14848     14851     14854
     14846     14845     14848     14849     14846     14845     14848     14850
     14846     14845     14848     14851     14847     14845     14848     14849
     14847     14845     14848     14850     14847     14845     14848     14851
     14849     14848     14851     14852     14849     14848     14851     14853
     14849     14848     14851     14854     14850     14848     14851     14852
     14850     14848     14851     14853     14850     14848     14851     14854
     14855     14856     14871     14872     14855     14856     14871     14873
     14855     14856     14871     14877     14856     14855     14859     14860
     14856     14855     14859     14861     14856     14855     14859     14862
     14856     14855     14863     14864     14856     14855     14863     14865
     14856     14855     14863     14866     14856     14855     14867     14868
     14856     14855     14867     14869     14856     14855     14867     14870
     14856     14871     14877     14874     14857     14856     14855     14859
     14857     14856     14855     14863     14857     14856     14855     14867
     14857     14856     14871     14872     14857     14856     14871     14873
     14857     14856     14871     14877     14858     14856     14855     14859
     14858     14856     14855     14863     14858     14856     14855     14867
     14858     14856     14871     14872     14858     14856     14871     14873
     14858     14856     14871     14877     14859     14855     14856     14871
     14859     14855     14863     14864     14859     14855     14863     14865
     14859     14855     14863     14866     14859     14855     14867     14868
     14859     14855     14867     14869     14859     14855     14867     14870
     14860     14859     14855     14863     14860     14859     14855     14867
     14861     14859     14855     14863     14861     14859     14855     14867
     14862     14859     14855     14863     14862     14859     14855     14867
     14863     14855     14856     14871     14863     14855     14867     14868
     14863     14855     14867     14869     14863     14855     14867     14870
     14864     14863     14855     14867     14865     14863     14855     14867
     14866     14863     14855     14867     14867     14855     14856     14871
     14871     14877     14874     14875     14871     14877     14874     14876
     14871     14877     14874     14878     14872     14871     14877     14874
     14873     14871     14877     14874     14874     14878     14879     14880
     14874     14878     14879     14881     14874     14878     14879     14882
     14875     14874     14878     14879     14876     14874     14878     14879
     14877     14874     14878     14879     14878     14879     14882     14883
     14878     14879     14882     14884     14878     14879     14882     14890
     14879     14882     14884     14885     14879     14882     14890     14891
     14879     14882     14890     14892     14879     14882     14890     14893
     14880     14879     14882     14883     14880     14879     14882     14884
     14880     14879     14882     14890     14881     14879     14882     14883
     14881     14879     14882     14884     14881     14879     14882     14890
     14882     14884     14885     14886     14882     14884     14885     14887
     14882     14890     14893     14894     14883     14882     14884     14885
     14883     14882     14890     14891     14883     14882     14890     14892
     14883     14882     14890     14893     14884     14882     14890     14891
     14884     14882     14890     14892     14884     14882     14890     14893
     14884     14885     14887     14888     14884     14885     14887     14889
     14884     14885     14887     14899     14885     14884     14882     14890
     14885     14887     14899     14900     14885     14887     14899     14901
     14885     14887     14899     14902     14886     14885     14887     14888
     14886     14885     14887     14889     14886     14885     14887     14899
     14887     14899     14902     14903     14887     14899     14902     14904
     14887     14899     14902     14905     14888     14887     14899     14900
     14888     14887     14899     14901     14888     14887     14899     14902
     14889     14887     14899     14900     14889     14887     14899     14901
     14889     14887     14899     14902     14890     14893     14894     14895
     14890     14893     14894     14896     14891     14890     14893     14894
     14892     14890     14893     14894     14893     14894     14896     14897
     14893     14894     14896     14898     14893     14894     14896     14946
     14894     14896     14946     14947     14894     14896     14946     14948
     14894     14896     14946     14949     14895     14894     14896     14897
     14895     14894     14896     14898     14895     14894     14896     14946
     14896     14946     14949     14950     14896     14946     14949     14951
     14896     14946     14949     14952     14897     14896     14946     14947
     14897     14896     14946     14948     14897     14896     14946     14949
     14898     14896     14946     14947     14898     14896     14946     14948
     14898     14896     14946     14949     14899     14902     14905     14906
     14899     14902     14905     14907     14899     14902     14905     14908
     14900     14899     14902     14903     14900     14899     14902     14904
     14900     14899     14902     14905     14901     14899     14902     14903
     14901     14899     14902     14904     14901     14899     14902     14905
     14902     14905     14908     14909     14902     14905     14908     14910
     14902     14905     14908     14911     14903     14902     14905     14906
     14903     14902     14905     14907     14903     14902     14905     14908
     14904     14902     14905     14906     14904     14902     14905     14907
     14904     14902     14905     14908     14905     14908     14911     14912
     14905     14908     14911     14913     14905     14908     14911     14914
     14906     14905     14908     14909     14906     14905     14908     14910
     14906     14905     14908     14911     14907     14905     14908     14909
     14907     14905     14908     14910     14907     14905     14908     14911
     14908     14911     14914     14915     14908     14911     14914     14916
     14908     14911     14914     14917     14909     14908     14911     14912
     14909     14908     14911     14913     14909     14908     14911     14914
     14910     14908     14911     14912     14910     14908     14911     14913
     14910     14908     14911     14914     14911     14914     14917     14918
     14911     14914     14917     14919     14912     14911     14914     14915
     14912     14911     14914     14916     14912     14911     14914     14917
     14913     14911     14914     14915     14913     14911     14914     14916
     14913     14911     14914     14917     14914     14917     14919     14920
     14914     14917     14919     14921     14915     14914     14917     14918
     14915     14914     14917     14919     14916     14914     14917     14918
     14916     14914     14917     14919     14917     14919     14921     14922
     14917     14919     14921     14923     14917     14919     14921     14924
     14918     14917     14919     14920     14918     14917     14919     14921
     14919     14921     14924     14925     14919     14921     14924     14926
     14919     14921     14924     14927     14920     14919     14921     14922
     14920     14919     14921     14923     14920     14919     14921     14924
     14921     14924     14927     14928     14921     14924     14927     14929
     14921     14924     14927     14930     14922     14921     14924     14925
     14922     14921     14924     14926     14922     14921     14924     14927
     14923     14921     14924     14925     14923     14921     14924     14926
     14923     14921     14924     14927     14924     14927     14930     14931
     14924     14927     14930     14932     14924     14927     14930     14933
     14925     14924     14927     14928     14925     14924     14927     14929
     14925     14924     14927     14930     14926     14924     14927     14928
     14926     14924     14927     14929     14926     14924     14927     14930
     14927     14930     14933     14934     14927     14930     14933     14935
     14927     14930     14933     14936     14928     14927     14930     14931
     14928     14927     14930     14932     14928     14927     14930     14933
     14929     14927     14930     14931     14929     14927     14930     14932
     14929     14927     14930     14933     14930     14933     14936     14937
     14930     14933     14936     14938     14930     14933     14936     14939
     14931     14930     14933     14934     14931     14930     14933     14935
     14931     14930     14933     14936     14932     14930     14933     14934
     14932     14930     14933     14935     14932     14930     14933     14936
     14933     14936     14939     14940     14933     14936     14939     14941
     14933     14936     14939     14942     14934     14933     14936     14937
     14934     14933     14936     14938     14934     14933     14936     14939
     14935     14933     14936     14937     14935     14933     14936     14938
     14935     14933     14936     14939     14936     14939     14942     14943
     14936     14939     14942     14944     14936     14939     14942     14945
     14937     14936     14939     14940     14937     14936     14939     14941
     14937     14936     14939     14942     14938     14936     14939     14940
     14938     14936     14939     14941     14938     14936     14939     14942
     14940     14939     14942     14943     14940     14939     14942     14944
     14940     14939     14942     14945     14941     14939     14942     14943
     14941     14939     14942     14944     14941     14939     14942     14945
     14946     14949     14952     14953     14946     14949     14952     14954
     14946     14949     14952     14955     14947     14946     14949     14950
     14947     14946     14949     14951     14947     14946     14949     14952
     14948     14946     14949     14950     14948     14946     14949     14951
     14948     14946     14949     14952     14949     14952     14955     14956
     14949     14952     14955     14957     14949     14952     14955     14958
     14950     14949     14952     14953     14950     14949     14952     14954
     14950     14949     14952     14955     14951     14949     14952     14953
     14951     14949     14952     14954     14951     14949     14952     14955
     14952     14955     14958     14959     14952     14955     14958     14960
     14952     14955     14958     14961     14953     14952     14955     14956
     14953     14952     14955     14957     14953     14952     14955     14958
     14954     14952     14955     14956     14954     14952     14955     14957
     14954     14952     14955     14958     14955     14958     14961     14962
     14955     14958     14961     14963     14955     14958     14961     14964
     14956     14955     14958     14959     14956     14955     14958     14960
     14956     14955     14958     14961     14957     14955     14958     14959
     14957     14955     14958     14960     14957     14955     14958     14961
     14958     14961     14964     14965     14958     14961     14964     14966
     14958     14961     14964     14967     14959     14958     14961     14962
     14959     14958     14961     14963     14959     14958     14961     14964
     14960     14958     14961     14962     14960     14958     14961     14963
     14960     14958     14961     14964     14961     14964     14967     14968
     14961     14964     14967     14969     14961     14964     14967     14970
     14962     14961     14964     14965     14962     14961     14964     14966
     14962     14961     14964     14967     14963     14961     14964     14965
     14963     14961     14964     14966     14963     14961     14964     14967
     14964     14967     14970     14971     14964     14967     14970     14972
     14964     14967     14970     14973     14965     14964     14967     14968
     14965     14964     14967     14969     14965     14964     14967     14970
     14966     14964     14967     14968     14966     14964     14967     14969
     14966     14964     14967     14970     14967     14970     14973     14974
     14967     14970     14973     14975     14967     14970     14973     14976
     14968     14967     14970     14971     14968     14967     14970     14972
     14968     14967     14970     14973     14969     14967     14970     14971
     14969     14967     14970     14972     14969     14967     14970     14973
     14970     14973     14976     14977     14970     14973     14976     14978
     14970     14973     14976     14979     14971     14970     14973     14974
     14971     14970     14973     14975     14971     14970     14973     14976
     14972     14970     14973     14974     14972     14970     14973     14975
     14972     14970     14973     14976     14973     14976     14979     14980
     14973     14976     14979     14981     14973     14976     14979     14982
     14974     14973     14976     14977     14974     14973     14976     14978
     14974     14973     14976     14979     14975     14973     14976     14977
     14975     14973     14976     14978     14975     14973     14976     14979
     14976     14979     14982     14983     14976     14979     14982     14984
     14976     14979     14982     14985     14977     14976     14979     14980
     14977     14976     14979     14981     14977     14976     14979     14982
     14978     14976     14979     14980     14978     14976     14979     14981
     14978     14976     14979     14982     14979     14982     14985     14986
     14979     14982     14985     14987     14979     14982     14985     14988
     14980     14979     14982     14983     14980     14979     14982     14984
     14980     14979     14982     14985     14981     14979     14982     14983
     14981     14979     14982     14984     14981     14979     14982     14985
     14983     14982     14985     14986     14983     14982     14985     14987
     14983     14982     14985     14988     14984     14982     14985     14986
     14984     14982     14985     14987     14984     14982     14985     14988
     14989     14993     14995     14996     14989     14993     14995     14997
     14989     14993     14998     14999     14989     14993     14998     15000
     14989     14993     14998     15004     14990     14989     14993     14994
     14990     14989     14993     14995     14990     14989     14993     14998
     14991     14989     14993     14994     14991     14989     14993     14995
     14991     14989     14993     14998     14992     14989     14993     14994
     14992     14989     14993     14995     14992     14989     14993     14998
     14993     14998     15004     15001     14994     14993     14995     14996
     14994     14993     14995     14997     14994     14993     14998     14999
     14994     14993     14998     15000     14994     14993     14998     15004
     14995     14993     14998     14999     14995     14993     14998     15000
     14995     14993     14998     15004     14996     14995     14993     14998
     14997     14995     14993     14998     14998     15004     15001     15002
     14998     15004     15001     15003     14998     15004     15001     15005
     14999     14998     15004     15001     15000     14998     15004     15001
     15001     15005     15006     15007     15001     15005     15006     15008
     15001     15005     15006     15009     15002     15001     15005     15006
     15003     15001     15005     15006     15004     15001     15005     15006
     15005     15006     15009     15010     15005     15006     15009     15011
     15005     15006     15009     15017     15006     15009     15011     15012
     15006     15009     15017     15018     15006     15009     15017     15019
     15006     15009     15017     15020     15007     15006     15009     15010
     15007     15006     15009     15011     15007     15006     15009     15017
     15008     15006     15009     15010     15008     15006     15009     15011
     15008     15006     15009     15017     15009     15011     15012     15013
     15009     15011     15012     15014     15009     15017     15020     15021
     15010     15009     15011     15012     15010     15009     15017     15018
     15010     15009     15017     15019     15010     15009     15017     15020
     15011     15009     15017     15018     15011     15009     15017     15019
     15011     15009     15017     15020     15011     15012     15014     15015
     15011     15012     15014     15016     15011     15012     15014     15026
     15012     15011     15009     15017     15012     15014     15026     15027
     15012     15014     15026     15028     15012     15014     15026     15029
     15013     15012     15014     15015     15013     15012     15014     15016
     15013     15012     15014     15026     15014     15026     15029     15030
     15014     15026     15029     15031     15014     15026     15029     15032
     15015     15014     15026     15027     15015     15014     15026     15028
     15015     15014     15026     15029     15016     15014     15026     15027
     15016     15014     15026     15028     15016     15014     15026     15029
     15017     15020     15021     15022     15017     15020     15021     15023
     15018     15017     15020     15021     15019     15017     15020     15021
     15020     15021     15023     15024     15020     15021     15023     15025
     15020     15021     15023     15073     15021     15023     15073     15074
     15021     15023     15073     15075     15021     15023     15073     15076
     15022     15021     15023     15024     15022     15021     15023     15025
     15022     15021     15023     15073     15023     15073     15076     15077
     15023     15073     15076     15078     15023     15073     15076     15079
     15024     15023     15073     15074     15024     15023     15073     15075
     15024     15023     15073     15076     15025     15023     15073     15074
     15025     15023     15073     15075     15025     15023     15073     15076
     15026     15029     15032     15033     15026     15029     15032     15034
     15026     15029     15032     15035     15027     15026     15029     15030
     15027     15026     15029     15031     15027     15026     15029     15032
     15028     15026     15029     15030     15028     15026     15029     15031
     15028     15026     15029     15032     15029     15032     15035     15036
     15029     15032     15035     15037     15029     15032     15035     15038
     15030     15029     15032     15033     15030     15029     15032     15034
     15030     15029     15032     15035     15031     15029     15032     15033
     15031     15029     15032     15034     15031     15029     15032     15035
     15032     15035     15038     15039     15032     15035     15038     15040
     15032     15035     15038     15041     15033     15032     15035     15036
     15033     15032     15035     15037     15033     15032     15035     15038
     15034     15032     15035     15036     15034     15032     15035     15037
     15034     15032     15035     15038     15035     15038     15041     15042
     15035     15038     15041     15043     15035     15038     15041     15044
     15036     15035     15038     15039     15036     15035     15038     15040
     15036     15035     15038     15041     15037     15035     15038     15039
     15037     15035     15038     15040     15037     15035     15038     15041
     15038     15041     15044     15045     15038     15041     15044     15046
     15039     15038     15041     15042     15039     15038     15041     15043
     15039     15038     15041     15044     15040     15038     15041     15042
     15040     15038     15041     15043     15040     15038     15041     15044
     15041     15044     15046     15047     15041     15044     15046     15048
     15042     15041     15044     15045     15042     15041     15044     15046
     15043     15041     15044     15045     15043     15041     15044     15046
     15044     15046     15048     15049     15044     15046     15048     15050
     15044     15046     15048     15051     15045     15044     15046     15047
     15045     15044     15046     15048     15046     15048     15051     15052
     15046     15048     15051     15053     15046     15048     15051     15054
     15047     15046     15048     15049     15047     15046     15048     15050
     15047     15046     15048     15051     15048     15051     15054     15055
     15048     15051     15054     15056     15048     15051     15054     15057
     15049     15048     15051     15052     15049     15048     15051     15053
     15049     15048     15051     15054     15050     15048     15051     15052
     15050     15048     15051     15053     15050     15048     15051     15054
     15051     15054     15057     15058     15051     15054     15057     15059
     15051     15054     15057     15060     15052     15051     15054     15055
     15052     15051     15054     15056     15052     15051     15054     15057
     15053     15051     15054     15055     15053     15051     15054     15056
     15053     15051     15054     15057     15054     15057     15060     15061
     15054     15057     15060     15062     15054     15057     15060     15063
     15055     15054     15057     15058     15055     15054     15057     15059
     15055     15054     15057     15060     15056     15054     15057     15058
     15056     15054     15057     15059     15056     15054     15057     15060
     15057     15060     15063     15064     15057     15060     15063     15065
     15057     15060     15063     15066     15058     15057     15060     15061
     15058     15057     15060     15062     15058     15057     15060     15063
     15059     15057     15060     15061     15059     15057     15060     15062
     15059     15057     15060     15063     15060     15063     15066     15067
     15060     15063     15066     15068     15060     15063     15066     15069
     15061     15060     15063     15064     15061     15060     15063     15065
     15061     15060     15063     15066     15062     15060     15063     15064
     15062     15060     15063     15065     15062     15060     15063     15066
     15063     15066     15069     15070     15063     15066     15069     15071
     15063     15066     15069     15072     15064     15063     15066     15067
     15064     15063     15066     15068     15064     15063     15066     15069
     15065     15063     15066     15067     15065     15063     15066     15068
     15065     15063     15066     15069     15067     15066     15069     15070
     15067     15066     15069     15071     15067     15066     15069     15072
     15068     15066     15069     15070     15068     15066     15069     15071
     15068     15066     15069     15072     15073     15076     15079     15080
     15073     15076     15079     15081     15073     15076     15079     15082
     15074     15073     15076     15077     15074     15073     15076     15078
     15074     15073     15076     15079     15075     15073     15076     15077
     15075     15073     15076     15078     15075     15073     15076     15079
     15076     15079     15082     15083     15076     15079     15082     15084
     15076     15079     15082     15085     15077     15076     15079     15080
     15077     15076     15079     15081     15077     15076     15079     15082
     15078     15076     15079     15080     15078     15076     15079     15081
     15078     15076     15079     15082     15079     15082     15085     15086
     15079     15082     15085     15087     15079     15082     15085     15088
     15080     15079     15082     15083     15080     15079     15082     15084
     15080     15079     15082     15085     15081     15079     15082     15083
     15081     15079     15082     15084     15081     15079     15082     15085
     15082     15085     15088     15089     15082     15085     15088     15090
     15082     15085     15088     15091     15083     15082     15085     15086
     15083     15082     15085     15087     15083     15082     15085     15088
     15084     15082     15085     15086     15084     15082     15085     15087
     15084     15082     15085     15088     15085     15088     15091     15092
     15085     15088     15091     15093     15085     15088     15091     15094
     15086     15085     15088     15089     15086     15085     15088     15090
     15086     15085     15088     15091     15087     15085     15088     15089
     15087     15085     15088     15090     15087     15085     15088     15091
     15088     15091     15094     15095     15088     15091     15094     15096
     15088     15091     15094     15097     15089     15088     15091     15092
     15089     15088     15091     15093     15089     15088     15091     15094
     15090     15088     15091     15092     15090     15088     15091     15093
     15090     15088     15091     15094     15091     15094     15097     15098
     15091     15094     15097     15099     15091     15094     15097     15100
     15092     15091     15094     15095     15092     15091     15094     15096
     15092     15091     15094     15097     15093     15091     15094     15095
     15093     15091     15094     15096     15093     15091     15094     15097
     15094     15097     15100     15101     15094     15097     15100     15102
     15094     15097     15100     15103     15095     15094     15097     15098
     15095     15094     15097     15099     15095     15094     15097     15100
     15096     15094     15097     15098     15096     15094     15097     15099
     15096     15094     15097     15100     15097     15100     15103     15104
     15097     15100     15103     15105     15097     15100     15103     15106
     15098     15097     15100     15101     15098     15097     15100     15102
     15098     15097     15100     15103     15099     15097     15100     15101
     15099     15097     15100     15102     15099     15097     15100     15103
     15100     15103     15106     15107     15100     15103     15106     15108
     15100     15103     15106     15109     15101     15100     15103     15104
     15101     15100     15103     15105     15101     15100     15103     15106
     15102     15100     15103     15104     15102     15100     15103     15105
     15102     15100     15103     15106     15103     15106     15109     15110
     15103     15106     15109     15111     15103     15106     15109     15112
     15104     15103     15106     15107     15104     15103     15106     15108
     15104     15103     15106     15109     15105     15103     15106     15107
     15105     15103     15106     15108     15105     15103     15106     15109
     15106     15109     15112     15113     15106     15109     15112     15114
     15106     15109     15112     15115     15107     15106     15109     15110
     15107     15106     15109     15111     15107     15106     15109     15112
     15108     15106     15109     15110     15108     15106     15109     15111
     15108     15106     15109     15112     15110     15109     15112     15113
     15110     15109     15112     15114     15110     15109     15112     15115
     15111     15109     15112     15113     15111     15109     15112     15114
     15111     15109     15112     15115     15116     15117     15132     15133
     15116     15117     15132     15134     15116     15117     15132     15138
     15117     15116     15120     15121     15117     15116     15120     15122
     15117     15116     15120     15123     15117     15116     15124     15125
     15117     15116     15124     15126     15117     15116     15124     15127
     15117     15116     15128     15129     15117     15116     15128     15130
     15117     15116     15128     15131     15117     15132     15138     15135
     15118     15117     15116     15120     15118     15117     15116     15124
     15118     15117     15116     15128     15118     15117     15132     15133
     15118     15117     15132     15134     15118     15117     15132     15138
     15119     15117     15116     15120     15119     15117     15116     15124
     15119     15117     15116     15128     15119     15117     15132     15133
     15119     15117     15132     15134     15119     15117     15132     15138
     15120     15116     15117     15132     15120     15116     15124     15125
     15120     15116     15124     15126     15120     15116     15124     15127
     15120     15116     15128     15129     15120     15116     15128     15130
     15120     15116     15128     15131     15121     15120     15116     15124
     15121     15120     15116     15128     15122     15120     15116     15124
     15122     15120     15116     15128     15123     15120     15116     15124
     15123     15120     15116     15128     15124     15116     15117     15132
     15124     15116     15128     15129     15124     15116     15128     15130
     15124     15116     15128     15131     15125     15124     15116     15128
     15126     15124     15116     15128     15127     15124     15116     15128
     15128     15116     15117     15132     15132     15138     15135     15136
     15132     15138     15135     15137     15132     15138     15135     15139
     15133     15132     15138     15135     15134     15132     15138     15135
     15135     15139     15140     15141     15135     15139     15140     15142
     15135     15139     15140     15143     15136     15135     15139     15140
     15137     15135     15139     15140     15138     15135     15139     15140
     15139     15140     15143     15144     15139     15140     15143     15145
     15139     15140     15143     15151     15140     15143     15145     15146
     15140     15143     15151     15152     15140     15143     15151     15153
     15140     15143     15151     15154     15141     15140     15143     15144
     15141     15140     15143     15145     15141     15140     15143     15151
     15142     15140     15143     15144     15142     15140     15143     15145
     15142     15140     15143     15151     15143     15145     15146     15147
     15143     15145     15146     15148     15143     15151     15154     15155
     15144     15143     15145     15146     15144     15143     15151     15152
     15144     15143     15151     15153     15144     15143     15151     15154
     15145     15143     15151     15152     15145     15143     15151     15153
     15145     15143     15151     15154     15145     15146     15148     15149
     15145     15146     15148     15150     15145     15146     15148     15160
     15146     15145     15143     15151     15146     15148     15160     15161
     15146     15148     15160     15162     15146     15148     15160     15163
     15147     15146     15148     15149     15147     15146     15148     15150
     15147     15146     15148     15160     15148     15160     15163     15164
     15148     15160     15163     15165     15148     15160     15163     15166
     15149     15148     15160     15161     15149     15148     15160     15162
     15149     15148     15160     15163     15150     15148     15160     15161
     15150     15148     15160     15162     15150     15148     15160     15163
     15151     15154     15155     15156     15151     15154     15155     15157
     15152     15151     15154     15155     15153     15151     15154     15155
     15154     15155     15157     15158     15154     15155     15157     15159
     15154     15155     15157     15207     15155     15157     15207     15208
     15155     15157     15207     15209     15155     15157     15207     15210
     15156     15155     15157     15158     15156     15155     15157     15159
     15156     15155     15157     15207     15157     15207     15210     15211
     15157     15207     15210     15212     15157     15207     15210     15213
     15158     15157     15207     15208     15158     15157     15207     15209
     15158     15157     15207     15210     15159     15157     15207     15208
     15159     15157     15207     15209     15159     15157     15207     15210
     15160     15163     15166     15167     15160     15163     15166     15168
     15160     15163     15166     15169     15161     15160     15163     15164
     15161     15160     15163     15165     15161     15160     15163     15166
     15162     15160     15163     15164     15162     15160     15163     15165
     15162     15160     15163     15166     15163     15166     15169     15170
     15163     15166     15169     15171     15163     15166     15169     15172
     15164     15163     15166     15167     15164     15163     15166     15168
     15164     15163     15166     15169     15165     15163     15166     15167
     15165     15163     15166     15168     15165     15163     15166     15169
     15166     15169     15172     15173     15166     15169     15172     15174
     15166     15169     15172     15175     15167     15166     15169     15170
     15167     15166     15169     15171     15167     15166     15169     15172
     15168     15166     15169     15170     15168     15166     15169     15171
     15168     15166     15169     15172     15169     15172     15175     15176
     15169     15172     15175     15177     15169     15172     15175     15178
     15170     15169     15172     15173     15170     15169     15172     15174
     15170     15169     15172     15175     15171     15169     15172     15173
     15171     15169     15172     15174     15171     15169     15172     15175
     15172     15175     15178     15179     15172     15175     15178     15180
     15173     15172     15175     15176     15173     15172     15175     15177
     15173     15172     15175     15178     15174     15172     15175     15176
     15174     15172     15175     15177     15174     15172     15175     15178
     15175     15178     15180     15181     15175     15178     15180     15182
     15176     15175     15178     15179     15176     15175     15178     15180
     15177     15175     15178     15179     15177     15175     15178     15180
     15178     15180     15182     15183     15178     15180     15182     15184
     15178     15180     15182     15185     15179     15178     15180     15181
     15179     15178     15180     15182     15180     15182     15185     15186
     15180     15182     15185     15187     15180     15182     15185     15188
     15181     15180     15182     15183     15181     15180     15182     15184
     15181     15180     15182     15185     15182     15185     15188     15189
     15182     15185     15188     15190     15182     15185     15188     15191
     15183     15182     15185     15186     15183     15182     15185     15187
     15183     15182     15185     15188     15184     15182     15185     15186
     15184     15182     15185     15187     15184     15182     15185     15188
     15185     15188     15191     15192     15185     15188     15191     15193
     15185     15188     15191     15194     15186     15185     15188     15189
     15186     15185     15188     15190     15186     15185     15188     15191
     15187     15185     15188     15189     15187     15185     15188     15190
     15187     15185     15188     15191     15188     15191     15194     15195
     15188     15191     15194     15196     15188     15191     15194     15197
     15189     15188     15191     15192     15189     15188     15191     15193
     15189     15188     15191     15194     15190     15188     15191     15192
     15190     15188     15191     15193     15190     15188     15191     15194
     15191     15194     15197     15198     15191     15194     15197     15199
     15191     15194     15197     15200     15192     15191     15194     15195
     15192     15191     15194     15196     15192     15191     15194     15197
     15193     15191     15194     15195     15193     15191     15194     15196
     15193     15191     15194     15197     15194     15197     15200     15201
     15194     15197     15200     15202     15194     15197     15200     15203
     15195     15194     15197     15198     15195     15194     15197     15199
     15195     15194     15197     15200     15196     15194     15197     15198
     15196     15194     15197     15199     15196     15194     15197     15200
     15197     15200     15203     15204     15197     15200     15203     15205
     15197     15200     15203     15206     15198     15197     15200     15201
     15198     15197     15200     15202     15198     15197     15200     15203
     15199     15197     15200     15201     15199     15197     15200     15202
     15199     15197     15200     15203     15201     15200     15203     15204
     15201     15200     15203     15205     15201     15200     15203     15206
     15202     15200     15203     15204     15202     15200     15203     15205
     15202     15200     15203     15206     15207     15210     15213     15214
     15207     15210     15213     15215     15207     15210     15213     15216
     15208     15207     15210     15211     15208     15207     15210     15212
     15208     15207     15210     15213     15209     15207     15210     15211
     15209     15207     15210     15212     15209     15207     15210     15213
     15210     15213     15216     15217     15210     15213     15216     15218
     15210     15213     15216     15219     15211     15210     15213     15214
     15211     15210     15213     15215     15211     15210     15213     15216
     15212     15210     15213     15214     15212     15210     15213     15215
     15212     15210     15213     15216     15213     15216     15219     15220
     15213     15216     15219     15221     15213     15216     15219     15222
     15214     15213     15216     15217     15214     15213     15216     15218
     15214     15213     15216     15219     15215     15213     15216     15217
     15215     15213     15216     15218     15215     15213     15216     15219
     15216     15219     15222     15223     15216     15219     15222     15224
     15216     15219     15222     15225     15217     15216     15219     15220
     15217     15216     15219     15221     15217     15216     15219     15222
     15218     15216     15219     15220     15218     15216     15219     15221
     15218     15216     15219     15222     15219     15222     15225     15226
     15219     15222     15225     15227     15219     15222     15225     15228
     15220     15219     15222     15223     15220     15219     15222     15224
     15220     15219     15222     15225     15221     15219     15222     15223
     15221     15219     15222     15224     15221     15219     15222     15225
     15222     15225     15228     15229     15222     15225     15228     15230
     15222     15225     15228     15231     15223     15222     15225     15226
     15223     15222     15225     15227     15223     15222     15225     15228
     15224     15222     15225     15226     15224     15222     15225     15227
     15224     15222     15225     15228     15225     15228     15231     15232
     15225     15228     15231     15233     15225     15228     15231     15234
     15226     15225     15228     15229     15226     15225     15228     15230
     15226     15225     15228     15231     15227     15225     15228     15229
     15227     15225     15228     15230     15227     15225     15228     15231
     15228     15231     15234     15235     15228     15231     15234     15236
     15228     15231     15234     15237     15229     15228     15231     15232
     15229     15228     15231     15233     15229     15228     15231     15234
     15230     15228     15231     15232     15230     15228     15231     15233
     15230     15228     15231     15234     15231     15234     15237     15238
     15231     15234     15237     15239     15231     15234     15237     15240
     15232     15231     15234     15235     15232     15231     15234     15236
     15232     15231     15234     15237     15233     15231     15234     15235
     15233     15231     15234     15236     15233     15231     15234     15237
     15234     15237     15240     15241     15234     15237     15240     15242
     15234     15237     15240     15243     15235     15234     15237     15238
     15235     15234     15237     15239     15235     15234     15237     15240
     15236     15234     15237     15238     15236     15234     15237     15239
     15236     15234     15237     15240     15237     15240     15243     15244
     15237     15240     15243     15245     15237     15240     15243     15246
     15238     15237     15240     15241     15238     15237     15240     15242
     15238     15237     15240     15243     15239     15237     15240     15241
     15239     15237     15240     15242     15239     15237     15240     15243
     15240     15243     15246     15247     15240     15243     15246     15248
     15240     15243     15246     15249     15241     15240     15243     15244
     15241     15240     15243     15245     15241     15240     15243     15246
     15242     15240     15243     15244     15242     15240     15243     15245
     15242     15240     15243     15246     15244     15243     15246     15247
     15244     15243     15246     15248     15244     15243     15246     15249
     15245     15243     15246     15247     15245     15243     15246     15248
     15245     15243     15246     15249     15250     15254     15256     15257
     15250     15254     15256     15258     15250     15254     15259     15260
     15250     15254     15259     15261     15250     15254     15259     15265
     15251     15250     15254     15255     15251     15250     15254     15256
     15251     15250     15254     15259     15252     15250     15254     15255
     15252     15250     15254     15256     15252     15250     15254     15259
     15253     15250     15254     15255     15253     15250     15254     15256
     15253     15250     15254     15259     15254     15259     15265     15262
     15255     15254     15256     15257     15255     15254     15256     15258
     15255     15254     15259     15260     15255     15254     15259     15261
     15255     15254     15259     15265     15256     15254     15259     15260
     15256     15254     15259     15261     15256     15254     15259     15265
     15257     15256     15254     15259     15258     15256     15254     15259
     15259     15265     15262     15263     15259     15265     15262     15264
     15259     15265     15262     15266     15260     15259     15265     15262
     15261     15259     15265     15262     15262     15266     15267     15268
     15262     15266     15267     15269     15262     15266     15267     15270
     15263     15262     15266     15267     15264     15262     15266     15267
     15265     15262     15266     15267     15266     15267     15270     15271
     15266     15267     15270     15272     15266     15267     15270     15278
     15267     15270     15272     15273     15267     15270     15278     15279
     15267     15270     15278     15280     15267     15270     15278     15281
     15268     15267     15270     15271     15268     15267     15270     15272
     15268     15267     15270     15278     15269     15267     15270     15271
     15269     15267     15270     15272     15269     15267     15270     15278
     15270     15272     15273     15274     15270     15272     15273     15275
     15270     15278     15281     15282     15271     15270     15272     15273
     15271     15270     15278     15279     15271     15270     15278     15280
     15271     15270     15278     15281     15272     15270     15278     15279
     15272     15270     15278     15280     15272     15270     15278     15281
     15272     15273     15275     15276     15272     15273     15275     15277
     15272     15273     15275     15287     15273     15272     15270     15278
     15273     15275     15287     15288     15273     15275     15287     15289
     15273     15275     15287     15290     15274     15273     15275     15276
     15274     15273     15275     15277     15274     15273     15275     15287
     15275     15287     15290     15291     15275     15287     15290     15292
     15275     15287     15290     15293     15276     15275     15287     15288
     15276     15275     15287     15289     15276     15275     15287     15290
     15277     15275     15287     15288     15277     15275     15287     15289
     15277     15275     15287     15290     15278     15281     15282     15283
     15278     15281     15282     15284     15279     15278     15281     15282
     15280     15278     15281     15282     15281     15282     15284     15285
     15281     15282     15284     15286     15281     15282     15284     15334
     15282     15284     15334     15335     15282     15284     15334     15336
     15282     15284     15334     15337     15283     15282     15284     15285
     15283     15282     15284     15286     15283     15282     15284     15334
     15284     15334     15337     15338     15284     15334     15337     15339
     15284     15334     15337     15340     15285     15284     15334     15335
     15285     15284     15334     15336     15285     15284     15334     15337
     15286     15284     15334     15335     15286     15284     15334     15336
     15286     15284     15334     15337     15287     15290     15293     15294
     15287     15290     15293     15295     15287     15290     15293     15296
     15288     15287     15290     15291     15288     15287     15290     15292
     15288     15287     15290     15293     15289     15287     15290     15291
     15289     15287     15290     15292     15289     15287     15290     15293
     15290     15293     15296     15297     15290     15293     15296     15298
     15290     15293     15296     15299     15291     15290     15293     15294
     15291     15290     15293     15295     15291     15290     15293     15296
     15292     15290     15293     15294     15292     15290     15293     15295
     15292     15290     15293     15296     15293     15296     15299     15300
     15293     15296     15299     15301     15293     15296     15299     15302
     15294     15293     15296     15297     15294     15293     15296     15298
     15294     15293     15296     15299     15295     15293     15296     15297
     15295     15293     15296     15298     15295     15293     15296     15299
     15296     15299     15302     15303     15296     15299     15302     15304
     15296     15299     15302     15305     15297     15296     15299     15300
     15297     15296     15299     15301     15297     15296     15299     15302
     15298     15296     15299     15300     15298     15296     15299     15301
     15298     15296     15299     15302     15299     15302     15305     15306
     15299     15302     15305     15307     15300     15299     15302     15303
     15300     15299     15302     15304     15300     15299     15302     15305
     15301     15299     15302     15303     15301     15299     15302     15304
     15301     15299     15302     15305     15302     15305     15307     15308
     15302     15305     15307     15309     15303     15302     15305     15306
     15303     15302     15305     15307     15304     15302     15305     15306
     15304     15302     15305     15307     15305     15307     15309     15310
     15305     15307     15309     15311     15305     15307     15309     15312
     15306     15305     15307     15308     15306     15305     15307     15309
     15307     15309     15312     15313     15307     15309     15312     15314
     15307     15309     15312     15315     15308     15307     15309     15310
     15308     15307     15309     15311     15308     15307     15309     15312
     15309     15312     15315     15316     15309     15312     15315     15317
     15309     15312     15315     15318     15310     15309     15312     15313
     15310     15309     15312     15314     15310     15309     15312     15315
     15311     15309     15312     15313     15311     15309     15312     15314
     15311     15309     15312     15315     15312     15315     15318     15319
     15312     15315     15318     15320     15312     15315     15318     15321
     15313     15312     15315     15316     15313     15312     15315     15317
     15313     15312     15315     15318     15314     15312     15315     15316
     15314     15312     15315     15317     15314     15312     15315     15318
     15315     15318     15321     15322     15315     15318     15321     15323
     15315     15318     15321     15324     15316     15315     15318     15319
     15316     15315     15318     15320     15316     15315     15318     15321
     15317     15315     15318     15319     15317     15315     15318     15320
     15317     15315     15318     15321     15318     15321     15324     15325
     15318     15321     15324     15326     15318     15321     15324     15327
     15319     15318     15321     15322     15319     15318     15321     15323
     15319     15318     15321     15324     15320     15318     15321     15322
     15320     15318     15321     15323     15320     15318     15321     15324
     15321     15324     15327     15328     15321     15324     15327     15329
     15321     15324     15327     15330     15322     15321     15324     15325
     15322     15321     15324     15326     15322     15321     15324     15327
     15323     15321     15324     15325     15323     15321     15324     15326
     15323     15321     15324     15327     15324     15327     15330     15331
     15324     15327     15330     15332     15324     15327     15330     15333
     15325     15324     15327     15328     15325     15324     15327     15329
     15325     15324     15327     15330     15326     15324     15327     15328
     15326     15324     15327     15329     15326     15324     15327     15330
     15328     15327     15330     15331     15328     15327     15330     15332
     15328     15327     15330     15333     15329     15327     15330     15331
     15329     15327     15330     15332     15329     15327     15330     15333
     15334     15337     15340     15341     15334     15337     15340     15342
     15334     15337     15340     15343     15335     15334     15337     15338
     15335     15334     15337     15339     15335     15334     15337     15340
     15336     15334     15337     15338     15336     15334     15337     15339
     15336     15334     15337     15340     15337     15340     15343     15344
     15337     15340     15343     15345     15337     15340     15343     15346
     15338     15337     15340     15341     15338     15337     15340     15342
     15338     15337     15340     15343     15339     15337     15340     15341
     15339     15337     15340     15342     15339     15337     15340     15343
     15340     15343     15346     15347     15340     15343     15346     15348
     15340     15343     15346     15349     15341     15340     15343     15344
     15341     15340     15343     15345     15341     15340     15343     15346
     15342     15340     15343     15344     15342     15340     15343     15345
     15342     15340     15343     15346     15343     15346     15349     15350
     15343     15346     15349     15351     15343     15346     15349     15352
     15344     15343     15346     15347     15344     15343     15346     15348
     15344     15343     15346     15349     15345     15343     15346     15347
     15345     15343     15346     15348     15345     15343     15346     15349
     15346     15349     15352     15353     15346     15349     15352     15354
     15346     15349     15352     15355     15347     15346     15349     15350
     15347     15346     15349     15351     15347     15346     15349     15352
     15348     15346     15349     15350     15348     15346     15349     15351
     15348     15346     15349     15352     15349     15352     15355     15356
     15349     15352     15355     15357     15349     15352     15355     15358
     15350     15349     15352     15353     15350     15349     15352     15354
     15350     15349     15352     15355     15351     15349     15352     15353
     15351     15349     15352     15354     15351     15349     15352     15355
     15352     15355     15358     15359     15352     15355     15358     15360
     15352     15355     15358     15361     15353     15352     15355     15356
     15353     15352     15355     15357     15353     15352     15355     15358
     15354     15352     15355     15356     15354     15352     15355     15357
     15354     15352     15355     15358     15355     15358     15361     15362
     15355     15358     15361     15363     15355     15358     15361     15364
     15356     15355     15358     15359     15356     15355     15358     15360
     15356     15355     15358     15361     15357     15355     15358     15359
     15357     15355     15358     15360     15357     15355     15358     15361
     15358     15361     15364     15365     15358     15361     15364     15366
     15358     15361     15364     15367     15359     15358     15361     15362
     15359     15358     15361     15363     15359     15358     15361     15364
     15360     15358     15361     15362     15360     15358     15361     15363
     15360     15358     15361     15364     15361     15364     15367     15368
     15361     15364     15367     15369     15361     15364     15367     15370
     15362     15361     15364     15365     15362     15361     15364     15366
     15362     15361     15364     15367     15363     15361     15364     15365
     15363     15361     15364     15366     15363     15361     15364     15367
     15364     15367     15370     15371     15364     15367     15370     15372
     15364     15367     15370     15373     15365     15364     15367     15368
     15365     15364     15367     15369     15365     15364     15367     15370
     15366     15364     15367     15368     15366     15364     15367     15369
     15366     15364     15367     15370     15367     15370     15373     15374
     15367     15370     15373     15375     15367     15370     15373     15376
     15368     15367     15370     15371     15368     15367     15370     15372
     15368     15367     15370     15373     15369     15367     15370     15371
     15369     15367     15370     15372     15369     15367     15370     15373
     15371     15370     15373     15374     15371     15370     15373     15375
     15371     15370     15373     15376     15372     15370     15373     15374
     15372     15370     15373     15375     15372     15370     15373     15376
     15377     15378     15393     15394     15377     15378     15393     15395
     15377     15378     15393     15399     15378     15377     15381     15382
     15378     15377     15381     15383     15378     15377     15381     15384
     15378     15377     15385     15386     15378     15377     15385     15387
     15378     15377     15385     15388     15378     15377     15389     15390
     15378     15377     15389     15391     15378     15377     15389     15392
     15378     15393     15399     15396     15379     15378     15377     15381
     15379     15378     15377     15385     15379     15378     15377     15389
     15379     15378     15393     15394     15379     15378     15393     15395
     15379     15378     15393     15399     15380     15378     15377     15381
     15380     15378     15377     15385     15380     15378     15377     15389
     15380     15378     15393     15394     15380     15378     15393     15395
     15380     15378     15393     15399     15381     15377     15378     15393
     15381     15377     15385     15386     15381     15377     15385     15387
     15381     15377     15385     15388     15381     15377     15389     15390
     15381     15377     15389     15391     15381     15377     15389     15392
     15382     15381     15377     15385     15382     15381     15377     15389
     15383     15381     15377     15385     15383     15381     15377     15389
     15384     15381     15377     15385     15384     15381     15377     15389
     15385     15377     15378     15393     15385     15377     15389     15390
     15385     15377     15389     15391     15385     15377     15389     15392
     15386     15385     15377     15389     15387     15385     15377     15389
     15388     15385     15377     15389     15389     15377     15378     15393
     15393     15399     15396     15397     15393     15399     15396     15398
     15393     15399     15396     15400     15394     15393     15399     15396
     15395     15393     15399     15396     15396     15400     15401     15402
     15396     15400     15401     15403     15396     15400     15401     15404
     15397     15396     15400     15401     15398     15396     15400     15401
     15399     15396     15400     15401     15400     15401     15404     15405
     15400     15401     15404     15406     15400     15401     15404     15412
     15401     15404     15406     15407     15401     15404     15412     15413
     15401     15404     15412     15414     15401     15404     15412     15415
     15402     15401     15404     15405     15402     15401     15404     15406
     15402     15401     15404     15412     15403     15401     15404     15405
     15403     15401     15404     15406     15403     15401     15404     15412
     15404     15406     15407     15408     15404     15406     15407     15409
     15404     15412     15415     15416     15405     15404     15406     15407
     15405     15404     15412     15413     15405     15404     15412     15414
     15405     15404     15412     15415     15406     15404     15412     15413
     15406     15404     15412     15414     15406     15404     15412     15415
     15406     15407     15409     15410     15406     15407     15409     15411
     15406     15407     15409     15421     15407     15406     15404     15412
     15407     15409     15421     15422     15407     15409     15421     15423
     15407     15409     15421     15424     15408     15407     15409     15410
     15408     15407     15409     15411     15408     15407     15409     15421
     15409     15421     15424     15425     15409     15421     15424     15426
     15409     15421     15424     15427     15410     15409     15421     15422
     15410     15409     15421     15423     15410     15409     15421     15424
     15411     15409     15421     15422     15411     15409     15421     15423
     15411     15409     15421     15424     15412     15415     15416     15417
     15412     15415     15416     15418     15413     15412     15415     15416
     15414     15412     15415     15416     15415     15416     15418     15419
     15415     15416     15418     15420     15415     15416     15418     15468
     15416     15418     15468     15469     15416     15418     15468     15470
     15416     15418     15468     15471     15417     15416     15418     15419
     15417     15416     15418     15420     15417     15416     15418     15468
     15418     15468     15471     15472     15418     15468     15471     15473
     15418     15468     15471     15474     15419     15418     15468     15469
     15419     15418     15468     15470     15419     15418     15468     15471
     15420     15418     15468     15469     15420     15418     15468     15470
     15420     15418     15468     15471     15421     15424     15427     15428
     15421     15424     15427     15429     15421     15424     15427     15430
     15422     15421     15424     15425     15422     15421     15424     15426
     15422     15421     15424     15427     15423     15421     15424     15425
     15423     15421     15424     15426     15423     15421     15424     15427
     15424     15427     15430     15431     15424     15427     15430     15432
     15424     15427     15430     15433     15425     15424     15427     15428
     15425     15424     15427     15429     15425     15424     15427     15430
     15426     15424     15427     15428     15426     15424     15427     15429
     15426     15424     15427     15430     15427     15430     15433     15434
     15427     15430     15433     15435     15427     15430     15433     15436
     15428     15427     15430     15431     15428     15427     15430     15432
     15428     15427     15430     15433     15429     15427     15430     15431
     15429     15427     15430     15432     15429     15427     15430     15433
     15430     15433     15436     15437     15430     15433     15436     15438
     15430     15433     15436     15439     15431     15430     15433     15434
     15431     15430     15433     15435     15431     15430     15433     15436
     15432     15430     15433     15434     15432     15430     15433     15435
     15432     15430     15433     15436     15433     15436     15439     15440
     15433     15436     15439     15441     15434     15433     15436     15437
     15434     15433     15436     15438     15434     15433     15436     15439
     15435     15433     15436     15437     15435     15433     15436     15438
     15435     15433     15436     15439     15436     15439     15441     15442
     15436     15439     15441     15443     15437     15436     15439     15440
     15437     15436     15439     15441     15438     15436     15439     15440
     15438     15436     15439     15441     15439     15441     15443     15444
     15439     15441     15443     15445     15439     15441     15443     15446
     15440     15439     15441     15442     15440     15439     15441     15443
     15441     15443     15446     15447     15441     15443     15446     15448
     15441     15443     15446     15449     15442     15441     15443     15444
     15442     15441     15443     15445     15442     15441     15443     15446
     15443     15446     15449     15450     15443     15446     15449     15451
     15443     15446     15449     15452     15444     15443     15446     15447
     15444     15443     15446     15448     15444     15443     15446     15449
     15445     15443     15446     15447     15445     15443     15446     15448
     15445     15443     15446     15449     15446     15449     15452     15453
     15446     15449     15452     15454     15446     15449     15452     15455
     15447     15446     15449     15450     15447     15446     15449     15451
     15447     15446     15449     15452     15448     15446     15449     15450
     15448     15446     15449     15451     15448     15446     15449     15452
     15449     15452     15455     15456     15449     15452     15455     15457
     15449     15452     15455     15458     15450     15449     15452     15453
     15450     15449     15452     15454     15450     15449     15452     15455
     15451     15449     15452     15453     15451     15449     15452     15454
     15451     15449     15452     15455     15452     15455     15458     15459
     15452     15455     15458     15460     15452     15455     15458     15461
     15453     15452     15455     15456     15453     15452     15455     15457
     15453     15452     15455     15458     15454     15452     15455     15456
     15454     15452     15455     15457     15454     15452     15455     15458
     15455     15458     15461     15462     15455     15458     15461     15463
     15455     15458     15461     15464     15456     15455     15458     15459
     15456     15455     15458     15460     15456     15455     15458     15461
     15457     15455     15458     15459     15457     15455     15458     15460
     15457     15455     15458     15461     15458     15461     15464     15465
     15458     15461     15464     15466     15458     15461     15464     15467
     15459     15458     15461     15462     15459     15458     15461     15463
     15459     15458     15461     15464     15460     15458     15461     15462
     15460     15458     15461     15463     15460     15458     15461     15464
     15462     15461     15464     15465     15462     15461     15464     15466
     15462     15461     15464     15467     15463     15461     15464     15465
     15463     15461     15464     15466     15463     15461     15464     15467
     15468     15471     15474     15475     15468     15471     15474     15476
     15468     15471     15474     15477     15469     15468     15471     15472
     15469     15468     15471     15473     15469     15468     15471     15474
     15470     15468     15471     15472     15470     15468     15471     15473
     15470     15468     15471     15474     15471     15474     15477     15478
     15471     15474     15477     15479     15471     15474     15477     15480
     15472     15471     15474     15475     15472     15471     15474     15476
     15472     15471     15474     15477     15473     15471     15474     15475
     15473     15471     15474     15476     15473     15471     15474     15477
     15474     15477     15480     15481     15474     15477     15480     15482
     15474     15477     15480     15483     15475     15474     15477     15478
     15475     15474     15477     15479     15475     15474     15477     15480
     15476     15474     15477     15478     15476     15474     15477     15479
     15476     15474     15477     15480     15477     15480     15483     15484
     15477     15480     15483     15485     15477     15480     15483     15486
     15478     15477     15480     15481     15478     15477     15480     15482
     15478     15477     15480     15483     15479     15477     15480     15481
     15479     15477     15480     15482     15479     15477     15480     15483
     15480     15483     15486     15487     15480     15483     15486     15488
     15480     15483     15486     15489     15481     15480     15483     15484
     15481     15480     15483     15485     15481     15480     15483     15486
     15482     15480     15483     15484     15482     15480     15483     15485
     15482     15480     15483     15486     15483     15486     15489     15490
     15483     15486     15489     15491     15483     15486     15489     15492
     15484     15483     15486     15487     15484     15483     15486     15488
     15484     15483     15486     15489     15485     15483     15486     15487
     15485     15483     15486     15488     15485     15483     15486     15489
     15486     15489     15492     15493     15486     15489     15492     15494
     15486     15489     15492     15495     15487     15486     15489     15490
     15487     15486     15489     15491     15487     15486     15489     15492
     15488     15486     15489     15490     15488     15486     15489     15491
     15488     15486     15489     15492     15489     15492     15495     15496
     15489     15492     15495     15497     15489     15492     15495     15498
     15490     15489     15492     15493     15490     15489     15492     15494
     15490     15489     15492     15495     15491     15489     15492     15493
     15491     15489     15492     15494     15491     15489     15492     15495
     15492     15495     15498     15499     15492     15495     15498     15500
     15492     15495     15498     15501     15493     15492     15495     15496
     15493     15492     15495     15497     15493     15492     15495     15498
     15494     15492     15495     15496     15494     15492     15495     15497
     15494     15492     15495     15498     15495     15498     15501     15502
     15495     15498     15501     15503     15495     15498     15501     15504
     15496     15495     15498     15499     15496     15495     15498     15500
     15496     15495     15498     15501     15497     15495     15498     15499
     15497     15495     15498     15500     15497     15495     15498     15501
     15498     15501     15504     15505     15498     15501     15504     15506
     15498     15501     15504     15507     15499     15498     15501     15502
     15499     15498     15501     15503     15499     15498     15501     15504
     15500     15498     15501     15502     15500     15498     15501     15503
     15500     15498     15501     15504     15501     15504     15507     15508
     15501     15504     15507     15509     15501     15504     15507     15510
     15502     15501     15504     15505     15502     15501     15504     15506
     15502     15501     15504     15507     15503     15501     15504     15505
     15503     15501     15504     15506     15503     15501     15504     15507
     15505     15504     15507     15508     15505     15504     15507     15509
     15505     15504     15507     15510     15506     15504     15507     15508
     15506     15504     15507     15509     15506     15504     15507     15510
     15511     15512     15527     15528     15511     15512     15527     15529
     15511     15512     15527     15533     15512     15511     15515     15516
     15512     15511     15515     15517     15512     15511     15515     15518
     15512     15511     15519     15520     15512     15511     15519     15521
     15512     15511     15519     15522     15512     15511     15523     15524
     15512     15511     15523     15525     15512     15511     15523     15526
     15512     15527     15533     15530     15513     15512     15511     15515
     15513     15512     15511     15519     15513     15512     15511     15523
     15513     15512     15527     15528     15513     15512     15527     15529
     15513     15512     15527     15533     15514     15512     15511     15515
     15514     15512     15511     15519     15514     15512     15511     15523
     15514     15512     15527     15528     15514     15512     15527     15529
     15514     15512     15527     15533     15515     15511     15512     15527
     15515     15511     15519     15520     15515     15511     15519     15521
     15515     15511     15519     15522     15515     15511     15523     15524
     15515     15511     15523     15525     15515     15511     15523     15526
     15516     15515     15511     15519     15516     15515     15511     15523
     15517     15515     15511     15519     15517     15515     15511     15523
     15518     15515     15511     15519     15518     15515     15511     15523
     15519     15511     15512     15527     15519     15511     15523     15524
     15519     15511     15523     15525     15519     15511     15523     15526
     15520     15519     15511     15523     15521     15519     15511     15523
     15522     15519     15511     15523     15523     15511     15512     15527
     15527     15533     15530     15531     15527     15533     15530     15532
     15527     15533     15530     15534     15528     15527     15533     15530
     15529     15527     15533     15530     15530     15534     15535     15536
     15530     15534     15535     15537     15530     15534     15535     15538
     15531     15530     15534     15535     15532     15530     15534     15535
     15533     15530     15534     15535     15534     15535     15538     15539
     15534     15535     15538     15540     15534     15535     15538     15546
     15535     15538     15540     15541     15535     15538     15546     15547
     15535     15538     15546     15548     15535     15538     15546     15549
     15536     15535     15538     15539     15536     15535     15538     15540
     15536     15535     15538     15546     15537     15535     15538     15539
     15537     15535     15538     15540     15537     15535     15538     15546
     15538     15540     15541     15542     15538     15540     15541     15543
     15538     15546     15549     15550     15539     15538     15540     15541
     15539     15538     15546     15547     15539     15538     15546     15548
     15539     15538     15546     15549     15540     15538     15546     15547
     15540     15538     15546     15548     15540     15538     15546     15549
     15540     15541     15543     15544     15540     15541     15543     15545
     15540     15541     15543     15555     15541     15540     15538     15546
     15541     15543     15555     15556     15541     15543     15555     15557
     15541     15543     15555     15558     15542     15541     15543     15544
     15542     15541     15543     15545     15542     15541     15543     15555
     15543     15555     15558     15559     15543     15555     15558     15560
     15543     15555     15558     15561     15544     15543     15555     15556
     15544     15543     15555     15557     15544     15543     15555     15558
     15545     15543     15555     15556     15545     15543     15555     15557
     15545     15543     15555     15558     15546     15549     15550     15551
     15546     15549     15550     15552     15547     15546     15549     15550
     15548     15546     15549     15550     15549     15550     15552     15553
     15549     15550     15552     15554     15549     15550     15552     15602
     15550     15552     15602     15603     15550     15552     15602     15604
     15550     15552     15602     15605     15551     15550     15552     15553
     15551     15550     15552     15554     15551     15550     15552     15602
     15552     15602     15605     15606     15552     15602     15605     15607
     15552     15602     15605     15608     15553     15552     15602     15603
     15553     15552     15602     15604     15553     15552     15602     15605
     15554     15552     15602     15603     15554     15552     15602     15604
     15554     15552     15602     15605     15555     15558     15561     15562
     15555     15558     15561     15563     15555     15558     15561     15564
     15556     15555     15558     15559     15556     15555     15558     15560
     15556     15555     15558     15561     15557     15555     15558     15559
     15557     15555     15558     15560     15557     15555     15558     15561
     15558     15561     15564     15565     15558     15561     15564     15566
     15558     15561     15564     15567     15559     15558     15561     15562
     15559     15558     15561     15563     15559     15558     15561     15564
     15560     15558     15561     15562     15560     15558     15561     15563
     15560     15558     15561     15564     15561     15564     15567     15568
     15561     15564     15567     15569     15561     15564     15567     15570
     15562     15561     15564     15565     15562     15561     15564     15566
     15562     15561     15564     15567     15563     15561     15564     15565
     15563     15561     15564     15566     15563     15561     15564     15567
     15564     15567     15570     15571     15564     15567     15570     15572
     15564     15567     15570     15573     15565     15564     15567     15568
     15565     15564     15567     15569     15565     15564     15567     15570
     15566     15564     15567     15568     15566     15564     15567     15569
     15566     15564     15567     15570     15567     15570     15573     15574
     15567     15570     15573     15575     15568     15567     15570     15571
     15568     15567     15570     15572     15568     15567     15570     15573
     15569     15567     15570     15571     15569     15567     15570     15572
     15569     15567     15570     15573     15570     15573     15575     15576
     15570     15573     15575     15577     15571     15570     15573     15574
     15571     15570     15573     15575     15572     15570     15573     15574
     15572     15570     15573     15575     15573     15575     15577     15578
     15573     15575     15577     15579     15573     15575     15577     15580
     15574     15573     15575     15576     15574     15573     15575     15577
     15575     15577     15580     15581     15575     15577     15580     15582
     15575     15577     15580     15583     15576     15575     15577     15578
     15576     15575     15577     15579     15576     15575     15577     15580
     15577     15580     15583     15584     15577     15580     15583     15585
     15577     15580     15583     15586     15578     15577     15580     15581
     15578     15577     15580     15582     15578     15577     15580     15583
     15579     15577     15580     15581     15579     15577     15580     15582
     15579     15577     15580     15583     15580     15583     15586     15587
     15580     15583     15586     15588     15580     15583     15586     15589
     15581     15580     15583     15584     15581     15580     15583     15585
     15581     15580     15583     15586     15582     15580     15583     15584
     15582     15580     15583     15585     15582     15580     15583     15586
     15583     15586     15589     15590     15583     15586     15589     15591
     15583     15586     15589     15592     15584     15583     15586     15587
     15584     15583     15586     15588     15584     15583     15586     15589
     15585     15583     15586     15587     15585     15583     15586     15588
     15585     15583     15586     15589     15586     15589     15592     15593
     15586     15589     15592     15594     15586     15589     15592     15595
     15587     15586     15589     15590     15587     15586     15589     15591
     15587     15586     15589     15592     15588     15586     15589     15590
     15588     15586     15589     15591     15588     15586     15589     15592
     15589     15592     15595     15596     15589     15592     15595     15597
     15589     15592     15595     15598     15590     15589     15592     15593
     15590     15589     15592     15594     15590     15589     15592     15595
     15591     15589     15592     15593     15591     15589     15592     15594
     15591     15589     15592     15595     15592     15595     15598     15599
     15592     15595     15598     15600     15592     15595     15598     15601
     15593     15592     15595     15596     15593     15592     15595     15597
     15593     15592     15595     15598     15594     15592     15595     15596
     15594     15592     15595     15597     15594     15592     15595     15598
     15596     15595     15598     15599     15596     15595     15598     15600
     15596     15595     15598     15601     15597     15595     15598     15599
     15597     15595     15598     15600     15597     15595     15598     15601
     15602     15605     15608     15609     15602     15605     15608     15610
     15602     15605     15608     15611     15603     15602     15605     15606
     15603     15602     15605     15607     15603     15602     15605     15608
     15604     15602     15605     15606     15604     15602     15605     15607
     15604     15602     15605     15608     15605     15608     15611     15612
     15605     15608     15611     15613     15605     15608     15611     15614
     15606     15605     15608     15609     15606     15605     15608     15610
     15606     15605     15608     15611     15607     15605     15608     15609
     15607     15605     15608     15610     15607     15605     15608     15611
     15608     15611     15614     15615     15608     15611     15614     15616
     15608     15611     15614     15617     15609     15608     15611     15612
     15609     15608     15611     15613     15609     15608     15611     15614
     15610     15608     15611     15612     15610     15608     15611     15613
     15610     15608     15611     15614     15611     15614     15617     15618
     15611     15614     15617     15619     15611     15614     15617     15620
     15612     15611     15614     15615     15612     15611     15614     15616
     15612     15611     15614     15617     15613     15611     15614     15615
     15613     15611     15614     15616     15613     15611     15614     15617
     15614     15617     15620     15621     15614     15617     15620     15622
     15614     15617     15620     15623     15615     15614     15617     15618
     15615     15614     15617     15619     15615     15614     15617     15620
     15616     15614     15617     15618     15616     15614     15617     15619
     15616     15614     15617     15620     15617     15620     15623     15624
     15617     15620     15623     15625     15617     15620     15623     15626
     15618     15617     15620     15621     15618     15617     15620     15622
     15618     15617     15620     15623     15619     15617     15620     15621
     15619     15617     15620     15622     15619     15617     15620     15623
     15620     15623     15626     15627     15620     15623     15626     15628
     15620     15623     15626     15629     15621     15620     15623     15624
     15621     15620     15623     15625     15621     15620     15623     15626
     15622     15620     15623     15624     15622     15620     15623     15625
     15622     15620     15623     15626     15623     15626     15629     15630
     15623     15626     15629     15631     15623     15626     15629     15632
     15624     15623     15626     15627     15624     15623     15626     15628
     15624     15623     15626     15629     15625     15623     15626     15627
     15625     15623     15626     15628     15625     15623     15626     15629
     15626     15629     15632     15633     15626     15629     15632     15634
     15626     15629     15632     15635     15627     15626     15629     15630
     15627     15626     15629     15631     15627     15626     15629     15632
     15628     15626     15629     15630     15628     15626     15629     15631
     15628     15626     15629     15632     15629     15632     15635     15636
     15629     15632     15635     15637     15629     15632     15635     15638
     15630     15629     15632     15633     15630     15629     15632     15634
     15630     15629     15632     15635     15631     15629     15632     15633
     15631     15629     15632     15634     15631     15629     15632     15635
     15632     15635     15638     15639     15632     15635     15638     15640
     15632     15635     15638     15641     15633     15632     15635     15636
     15633     15632     15635     15637     15633     15632     15635     15638
     15634     15632     15635     15636     15634     15632     15635     15637
     15634     15632     15635     15638     15635     15638     15641     15642
     15635     15638     15641     15643     15635     15638     15641     15644
     15636     15635     15638     15639     15636     15635     15638     15640
     15636     15635     15638     15641     15637     15635     15638     15639
     15637     15635     15638     15640     15637     15635     15638     15641
     15639     15638     15641     15642     15639     15638     15641     15643
     15639     15638     15641     15644     15640     15638     15641     15642
     15640     15638     15641     15643     15640     15638     15641     15644
     15645     15649     15651     15652     15645     15649     15651     15653
     15645     15649     15654     15655     15645     15649     15654     15656
     15645     15649     15654     15660     15646     15645     15649     15650
     15646     15645     15649     15651     15646     15645     15649     15654
     15647     15645     15649     15650     15647     15645     15649     15651
     15647     15645     15649     15654     15648     15645     15649     15650
     15648     15645     15649     15651     15648     15645     15649     15654
     15649     15654     15660     15657     15650     15649     15651     15652
     15650     15649     15651     15653     15650     15649     15654     15655
     15650     15649     15654     15656     15650     15649     15654     15660
     15651     15649     15654     15655     15651     15649     15654     15656
     15651     15649     15654     15660     15652     15651     15649     15654
     15653     15651     15649     15654     15654     15660     15657     15658
     15654     15660     15657     15659     15654     15660     15657     15661
     15655     15654     15660     15657     15656     15654     15660     15657
     15657     15661     15662     15663     15657     15661     15662     15664
     15657     15661     15662     15665     15658     15657     15661     15662
     15659     15657     15661     15662     15660     15657     15661     15662
     15661     15662     15665     15666     15661     15662     15665     15667
     15661     15662     15665     15673     15662     15665     15667     15668
     15662     15665     15673     15674     15662     15665     15673     15675
     15662     15665     15673     15676     15663     15662     15665     15666
     15663     15662     15665     15667     15663     15662     15665     15673
     15664     15662     15665     15666     15664     15662     15665     15667
     15664     15662     15665     15673     15665     15667     15668     15669
     15665     15667     15668     15670     15665     15673     15676     15677
     15666     15665     15667     15668     15666     15665     15673     15674
     15666     15665     15673     15675     15666     15665     15673     15676
     15667     15665     15673     15674     15667     15665     15673     15675
     15667     15665     15673     15676     15667     15668     15670     15671
     15667     15668     15670     15672     15667     15668     15670     15682
     15668     15667     15665     15673     15668     15670     15682     15683
     15668     15670     15682     15684     15668     15670     15682     15685
     15669     15668     15670     15671     15669     15668     15670     15672
     15669     15668     15670     15682     15670     15682     15685     15686
     15670     15682     15685     15687     15670     15682     15685     15688
     15671     15670     15682     15683     15671     15670     15682     15684
     15671     15670     15682     15685     15672     15670     15682     15683
     15672     15670     15682     15684     15672     15670     15682     15685
     15673     15676     15677     15678     15673     15676     15677     15679
     15674     15673     15676     15677     15675     15673     15676     15677
     15676     15677     15679     15680     15676     15677     15679     15681
     15676     15677     15679     15729     15677     15679     15729     15730
     15677     15679     15729     15731     15677     15679     15729     15732
     15678     15677     15679     15680     15678     15677     15679     15681
     15678     15677     15679     15729     15679     15729     15732     15733
     15679     15729     15732     15734     15679     15729     15732     15735
     15680     15679     15729     15730     15680     15679     15729     15731
     15680     15679     15729     15732     15681     15679     15729     15730
     15681     15679     15729     15731     15681     15679     15729     15732
     15682     15685     15688     15689     15682     15685     15688     15690
     15682     15685     15688     15691     15683     15682     15685     15686
     15683     15682     15685     15687     15683     15682     15685     15688
     15684     15682     15685     15686     15684     15682     15685     15687
     15684     15682     15685     15688     15685     15688     15691     15692
     15685     15688     15691     15693     15685     15688     15691     15694
     15686     15685     15688     15689     15686     15685     15688     15690
     15686     15685     15688     15691     15687     15685     15688     15689
     15687     15685     15688     15690     15687     15685     15688     15691
     15688     15691     15694     15695     15688     15691     15694     15696
     15688     15691     15694     15697     15689     15688     15691     15692
     15689     15688     15691     15693     15689     15688     15691     15694
     15690     15688     15691     15692     15690     15688     15691     15693
     15690     15688     15691     15694     15691     15694     15697     15698
     15691     15694     15697     15699     15691     15694     15697     15700
     15692     15691     15694     15695     15692     15691     15694     15696
     15692     15691     15694     15697     15693     15691     15694     15695
     15693     15691     15694     15696     15693     15691     15694     15697
     15694     15697     15700     15701     15694     15697     15700     15702
     15695     15694     15697     15698     15695     15694     15697     15699
     15695     15694     15697     15700     15696     15694     15697     15698
     15696     15694     15697     15699     15696     15694     15697     15700
     15697     15700     15702     15703     15697     15700     15702     15704
     15698     15697     15700     15701     15698     15697     15700     15702
     15699     15697     15700     15701     15699     15697     15700     15702
     15700     15702     15704     15705     15700     15702     15704     15706
     15700     15702     15704     15707     15701     15700     15702     15703
     15701     15700     15702     15704     15702     15704     15707     15708
     15702     15704     15707     15709     15702     15704     15707     15710
     15703     15702     15704     15705     15703     15702     15704     15706
     15703     15702     15704     15707     15704     15707     15710     15711
     15704     15707     15710     15712     15704     15707     15710     15713
     15705     15704     15707     15708     15705     15704     15707     15709
     15705     15704     15707     15710     15706     15704     15707     15708
     15706     15704     15707     15709     15706     15704     15707     15710
     15707     15710     15713     15714     15707     15710     15713     15715
     15707     15710     15713     15716     15708     15707     15710     15711
     15708     15707     15710     15712     15708     15707     15710     15713
     15709     15707     15710     15711     15709     15707     15710     15712
     15709     15707     15710     15713     15710     15713     15716     15717
     15710     15713     15716     15718     15710     15713     15716     15719
     15711     15710     15713     15714     15711     15710     15713     15715
     15711     15710     15713     15716     15712     15710     15713     15714
     15712     15710     15713     15715     15712     15710     15713     15716
     15713     15716     15719     15720     15713     15716     15719     15721
     15713     15716     15719     15722     15714     15713     15716     15717
     15714     15713     15716     15718     15714     15713     15716     15719
     15715     15713     15716     15717     15715     15713     15716     15718
     15715     15713     15716     15719     15716     15719     15722     15723
     15716     15719     15722     15724     15716     15719     15722     15725
     15717     15716     15719     15720     15717     15716     15719     15721
     15717     15716     15719     15722     15718     15716     15719     15720
     15718     15716     15719     15721     15718     15716     15719     15722
     15719     15722     15725     15726     15719     15722     15725     15727
     15719     15722     15725     15728     15720     15719     15722     15723
     15720     15719     15722     15724     15720     15719     15722     15725
     15721     15719     15722     15723     15721     15719     15722     15724
     15721     15719     15722     15725     15723     15722     15725     15726
     15723     15722     15725     15727     15723     15722     15725     15728
     15724     15722     15725     15726     15724     15722     15725     15727
     15724     15722     15725     15728     15729     15732     15735     15736
     15729     15732     15735     15737     15729     15732     15735     15738
     15730     15729     15732     15733     15730     15729     15732     15734
     15730     15729     15732     15735     15731     15729     15732     15733
     15731     15729     15732     15734     15731     15729     15732     15735
     15732     15735     15738     15739     15732     15735     15738     15740
     15732     15735     15738     15741     15733     15732     15735     15736
     15733     15732     15735     15737     15733     15732     15735     15738
     15734     15732     15735     15736     15734     15732     15735     15737
     15734     15732     15735     15738     15735     15738     15741     15742
     15735     15738     15741     15743     15735     15738     15741     15744
     15736     15735     15738     15739     15736     15735     15738     15740
     15736     15735     15738     15741     15737     15735     15738     15739
     15737     15735     15738     15740     15737     15735     15738     15741
     15738     15741     15744     15745     15738     15741     15744     15746
     15738     15741     15744     15747     15739     15738     15741     15742
     15739     15738     15741     15743     15739     15738     15741     15744
     15740     15738     15741     15742     15740     15738     15741     15743
     15740     15738     15741     15744     15741     15744     15747     15748
     15741     15744     15747     15749     15741     15744     15747     15750
     15742     15741     15744     15745     15742     15741     15744     15746
     15742     15741     15744     15747     15743     15741     15744     15745
     15743     15741     15744     15746     15743     15741     15744     15747
     15744     15747     15750     15751     15744     15747     15750     15752
     15744     15747     15750     15753     15745     15744     15747     15748
     15745     15744     15747     15749     15745     15744     15747     15750
     15746     15744     15747     15748     15746     15744     15747     15749
     15746     15744     15747     15750     15747     15750     15753     15754
     15747     15750     15753     15755     15747     15750     15753     15756
     15748     15747     15750     15751     15748     15747     15750     15752
     15748     15747     15750     15753     15749     15747     15750     15751
     15749     15747     15750     15752     15749     15747     15750     15753
     15750     15753     15756     15757     15750     15753     15756     15758
     15750     15753     15756     15759     15751     15750     15753     15754
     15751     15750     15753     15755     15751     15750     15753     15756
     15752     15750     15753     15754     15752     15750     15753     15755
     15752     15750     15753     15756     15753     15756     15759     15760
     15753     15756     15759     15761     15753     15756     15759     15762
     15754     15753     15756     15757     15754     15753     15756     15758
     15754     15753     15756     15759     15755     15753     15756     15757
     15755     15753     15756     15758     15755     15753     15756     15759
     15756     15759     15762     15763     15756     15759     15762     15764
     15756     15759     15762     15765     15757     15756     15759     15760
     15757     15756     15759     15761     15757     15756     15759     15762
     15758     15756     15759     15760     15758     15756     15759     15761
     15758     15756     15759     15762     15759     15762     15765     15766
     15759     15762     15765     15767     15759     15762     15765     15768
     15760     15759     15762     15763     15760     15759     15762     15764
     15760     15759     15762     15765     15761     15759     15762     15763
     15761     15759     15762     15764     15761     15759     15762     15765
     15762     15765     15768     15769     15762     15765     15768     15770
     15762     15765     15768     15771     15763     15762     15765     15766
     15763     15762     15765     15767     15763     15762     15765     15768
     15764     15762     15765     15766     15764     15762     15765     15767
     15764     15762     15765     15768     15766     15765     15768     15769
     15766     15765     15768     15770     15766     15765     15768     15771
     15767     15765     15768     15769     15767     15765     15768     15770
     15767     15765     15768     15771     15772     15773     15788     15789
     15772     15773     15788     15790     15772     15773     15788     15794
     15773     15772     15776     15777     15773     15772     15776     15778
     15773     15772     15776     15779     15773     15772     15780     15781
     15773     15772     15780     15782     15773     15772     15780     15783
     15773     15772     15784     15785     15773     15772     15784     15786
     15773     15772     15784     15787     15773     15788     15794     15791
     15774     15773     15772     15776     15774     15773     15772     15780
     15774     15773     15772     15784     15774     15773     15788     15789
     15774     15773     15788     15790     15774     15773     15788     15794
     15775     15773     15772     15776     15775     15773     15772     15780
     15775     15773     15772     15784     15775     15773     15788     15789
     15775     15773     15788     15790     15775     15773     15788     15794
     15776     15772     15773     15788     15776     15772     15780     15781
     15776     15772     15780     15782     15776     15772     15780     15783
     15776     15772     15784     15785     15776     15772     15784     15786
     15776     15772     15784     15787     15777     15776     15772     15780
     15777     15776     15772     15784     15778     15776     15772     15780
     15778     15776     15772     15784     15779     15776     15772     15780
     15779     15776     15772     15784     15780     15772     15773     15788
     15780     15772     15784     15785     15780     15772     15784     15786
     15780     15772     15784     15787     15781     15780     15772     15784
     15782     15780     15772     15784     15783     15780     15772     15784
     15784     15772     15773     15788     15788     15794     15791     15792
     15788     15794     15791     15793     15788     15794     15791     15795
     15789     15788     15794     15791     15790     15788     15794     15791
     15791     15795     15796     15797     15791     15795     15796     15798
     15791     15795     15796     15799     15792     15791     15795     15796
     15793     15791     15795     15796     15794     15791     15795     15796
     15795     15796     15799     15800     15795     15796     15799     15801
     15795     15796     15799     15807     15796     15799     15801     15802
     15796     15799     15807     15808     15796     15799     15807     15809
     15796     15799     15807     15810     15797     15796     15799     15800
     15797     15796     15799     15801     15797     15796     15799     15807
     15798     15796     15799     15800     15798     15796     15799     15801
     15798     15796     15799     15807     15799     15801     15802     15803
     15799     15801     15802     15804     15799     15807     15810     15811
     15800     15799     15801     15802     15800     15799     15807     15808
     15800     15799     15807     15809     15800     15799     15807     15810
     15801     15799     15807     15808     15801     15799     15807     15809
     15801     15799     15807     15810     15801     15802     15804     15805
     15801     15802     15804     15806     15801     15802     15804     15816
     15802     15801     15799     15807     15802     15804     15816     15817
     15802     15804     15816     15818     15802     15804     15816     15819
     15803     15802     15804     15805     15803     15802     15804     15806
     15803     15802     15804     15816     15804     15816     15819     15820
     15804     15816     15819     15821     15804     15816     15819     15822
     15805     15804     15816     15817     15805     15804     15816     15818
     15805     15804     15816     15819     15806     15804     15816     15817
     15806     15804     15816     15818     15806     15804     15816     15819
     15807     15810     15811     15812     15807     15810     15811     15813
     15808     15807     15810     15811     15809     15807     15810     15811
     15810     15811     15813     15814     15810     15811     15813     15815
     15810     15811     15813     15863     15811     15813     15863     15864
     15811     15813     15863     15865     15811     15813     15863     15866
     15812     15811     15813     15814     15812     15811     15813     15815
     15812     15811     15813     15863     15813     15863     15866     15867
     15813     15863     15866     15868     15813     15863     15866     15869
     15814     15813     15863     15864     15814     15813     15863     15865
     15814     15813     15863     15866     15815     15813     15863     15864
     15815     15813     15863     15865     15815     15813     15863     15866
     15816     15819     15822     15823     15816     15819     15822     15824
     15816     15819     15822     15825     15817     15816     15819     15820
     15817     15816     15819     15821     15817     15816     15819     15822
     15818     15816     15819     15820     15818     15816     15819     15821
     15818     15816     15819     15822     15819     15822     15825     15826
     15819     15822     15825     15827     15819     15822     15825     15828
     15820     15819     15822     15823     15820     15819     15822     15824
     15820     15819     15822     15825     15821     15819     15822     15823
     15821     15819     15822     15824     15821     15819     15822     15825
     15822     15825     15828     15829     15822     15825     15828     15830
     15822     15825     15828     15831     15823     15822     15825     15826
     15823     15822     15825     15827     15823     15822     15825     15828
     15824     15822     15825     15826     15824     15822     15825     15827
     15824     15822     15825     15828     15825     15828     15831     15832
     15825     15828     15831     15833     15825     15828     15831     15834
     15826     15825     15828     15829     15826     15825     15828     15830
     15826     15825     15828     15831     15827     15825     15828     15829
     15827     15825     15828     15830     15827     15825     15828     15831
     15828     15831     15834     15835     15828     15831     15834     15836
     15829     15828     15831     15832     15829     15828     15831     15833
     15829     15828     15831     15834     15830     15828     15831     15832
     15830     15828     15831     15833     15830     15828     15831     15834
     15831     15834     15836     15837     15831     15834     15836     15838
     15832     15831     15834     15835     15832     15831     15834     15836
     15833     15831     15834     15835     15833     15831     15834     15836
     15834     15836     15838     15839     15834     15836     15838     15840
     15834     15836     15838     15841     15835     15834     15836     15837
     15835     15834     15836     15838     15836     15838     15841     15842
     15836     15838     15841     15843     15836     15838     15841     15844
     15837     15836     15838     15839     15837     15836     15838     15840
     15837     15836     15838     15841     15838     15841     15844     15845
     15838     15841     15844     15846     15838     15841     15844     15847
     15839     15838     15841     15842     15839     15838     15841     15843
     15839     15838     15841     15844     15840     15838     15841     15842
     15840     15838     15841     15843     15840     15838     15841     15844
     15841     15844     15847     15848     15841     15844     15847     15849
     15841     15844     15847     15850     15842     15841     15844     15845
     15842     15841     15844     15846     15842     15841     15844     15847
     15843     15841     15844     15845     15843     15841     15844     15846
     15843     15841     15844     15847     15844     15847     15850     15851
     15844     15847     15850     15852     15844     15847     15850     15853
     15845     15844     15847     15848     15845     15844     15847     15849
     15845     15844     15847     15850     15846     15844     15847     15848
     15846     15844     15847     15849     15846     15844     15847     15850
     15847     15850     15853     15854     15847     15850     15853     15855
     15847     15850     15853     15856     15848     15847     15850     15851
     15848     15847     15850     15852     15848     15847     15850     15853
     15849     15847     15850     15851     15849     15847     15850     15852
     15849     15847     15850     15853     15850     15853     15856     15857
     15850     15853     15856     15858     15850     15853     15856     15859
     15851     15850     15853     15854     15851     15850     15853     15855
     15851     15850     15853     15856     15852     15850     15853     15854
     15852     15850     15853     15855     15852     15850     15853     15856
     15853     15856     15859     15860     15853     15856     15859     15861
     15853     15856     15859     15862     15854     15853     15856     15857
     15854     15853     15856     15858     15854     15853     15856     15859
     15855     15853     15856     15857     15855     15853     15856     15858
     15855     15853     15856     15859     15857     15856     15859     15860
     15857     15856     15859     15861     15857     15856     15859     15862
     15858     15856     15859     15860     15858     15856     15859     15861
     15858     15856     15859     15862     15863     15866     15869     15870
     15863     15866     15869     15871     15863     15866     15869     15872
     15864     15863     15866     15867     15864     15863     15866     15868
     15864     15863     15866     15869     15865     15863     15866     15867
     15865     15863     15866     15868     15865     15863     15866     15869
     15866     15869     15872     15873     15866     15869     15872     15874
     15866     15869     15872     15875     15867     15866     15869     15870
     15867     15866     15869     15871     15867     15866     15869     15872
     15868     15866     15869     15870     15868     15866     15869     15871
     15868     15866     15869     15872     15869     15872     15875     15876
     15869     15872     15875     15877     15869     15872     15875     15878
     15870     15869     15872     15873     15870     15869     15872     15874
     15870     15869     15872     15875     15871     15869     15872     15873
     15871     15869     15872     15874     15871     15869     15872     15875
     15872     15875     15878     15879     15872     15875     15878     15880
     15872     15875     15878     15881     15873     15872     15875     15876
     15873     15872     15875     15877     15873     15872     15875     15878
     15874     15872     15875     15876     15874     15872     15875     15877
     15874     15872     15875     15878     15875     15878     15881     15882
     15875     15878     15881     15883     15875     15878     15881     15884
     15876     15875     15878     15879     15876     15875     15878     15880
     15876     15875     15878     15881     15877     15875     15878     15879
     15877     15875     15878     15880     15877     15875     15878     15881
     15878     15881     15884     15885     15878     15881     15884     15886
     15878     15881     15884     15887     15879     15878     15881     15882
     15879     15878     15881     15883     15879     15878     15881     15884
     15880     15878     15881     15882     15880     15878     15881     15883
     15880     15878     15881     15884     15881     15884     15887     15888
     15881     15884     15887     15889     15881     15884     15887     15890
     15882     15881     15884     15885     15882     15881     15884     15886
     15882     15881     15884     15887     15883     15881     15884     15885
     15883     15881     15884     15886     15883     15881     15884     15887
     15884     15887     15890     15891     15884     15887     15890     15892
     15884     15887     15890     15893     15885     15884     15887     15888
     15885     15884     15887     15889     15885     15884     15887     15890
     15886     15884     15887     15888     15886     15884     15887     15889
     15886     15884     15887     15890     15887     15890     15893     15894
     15887     15890     15893     15895     15887     15890     15893     15896
     15888     15887     15890     15891     15888     15887     15890     15892
     15888     15887     15890     15893     15889     15887     15890     15891
     15889     15887     15890     15892     15889     15887     15890     15893
     15890     15893     15896     15897     15890     15893     15896     15898
     15890     15893     15896     15899     15891     15890     15893     15894
     15891     15890     15893     15895     15891     15890     15893     15896
     15892     15890     15893     15894     15892     15890     15893     15895
     15892     15890     15893     15896     15893     15896     15899     15900
     15893     15896     15899     15901     15893     15896     15899     15902
     15894     15893     15896     15897     15894     15893     15896     15898
     15894     15893     15896     15899     15895     15893     15896     15897
     15895     15893     15896     15898     15895     15893     15896     15899
     15896     15899     15902     15903     15896     15899     15902     15904
     15896     15899     15902     15905     15897     15896     15899     15900
     15897     15896     15899     15901     15897     15896     15899     15902
     15898     15896     15899     15900     15898     15896     15899     15901
     15898     15896     15899     15902     15900     15899     15902     15903
     15900     15899     15902     15904     15900     15899     15902     15905
     15901     15899     15902     15903     15901     15899     15902     15904
     15901     15899     15902     15905     15906     15907     15922     15923
     15906     15907     15922     15924     15906     15907     15922     15928
     15907     15906     15910     15911     15907     15906     15910     15912
     15907     15906     15910     15913     15907     15906     15914     15915
     15907     15906     15914     15916     15907     15906     15914     15917
     15907     15906     15918     15919     15907     15906     15918     15920
     15907     15906     15918     15921     15907     15922     15928     15925
     15908     15907     15906     15910     15908     15907     15906     15914
     15908     15907     15906     15918     15908     15907     15922     15923
     15908     15907     15922     15924     15908     15907     15922     15928
     15909     15907     15906     15910     15909     15907     15906     15914
     15909     15907     15906     15918     15909     15907     15922     15923
     15909     15907     15922     15924     15909     15907     15922     15928
     15910     15906     15907     15922     15910     15906     15914     15915
     15910     15906     15914     15916     15910     15906     15914     15917
     15910     15906     15918     15919     15910     15906     15918     15920
     15910     15906     15918     15921     15911     15910     15906     15914
     15911     15910     15906     15918     15912     15910     15906     15914
     15912     15910     15906     15918     15913     15910     15906     15914
     15913     15910     15906     15918     15914     15906     15907     15922
     15914     15906     15918     15919     15914     15906     15918     15920
     15914     15906     15918     15921     15915     15914     15906     15918
     15916     15914     15906     15918     15917     15914     15906     15918
     15918     15906     15907     15922     15922     15928     15925     15926
     15922     15928     15925     15927     15922     15928     15925     15929
     15923     15922     15928     15925     15924     15922     15928     15925
     15925     15929     15930     15931     15925     15929     15930     15932
     15925     15929     15930     15933     15926     15925     15929     15930
     15927     15925     15929     15930     15928     15925     15929     15930
     15929     15930     15933     15934     15929     15930     15933     15935
     15929     15930     15933     15941     15930     15933     15935     15936
     15930     15933     15941     15942     15930     15933     15941     15943
     15930     15933     15941     15944     15931     15930     15933     15934
     15931     15930     15933     15935     15931     15930     15933     15941
     15932     15930     15933     15934     15932     15930     15933     15935
     15932     15930     15933     15941     15933     15935     15936     15937
     15933     15935     15936     15938     15933     15941     15944     15945
     15934     15933     15935     15936     15934     15933     15941     15942
     15934     15933     15941     15943     15934     15933     15941     15944
     15935     15933     15941     15942     15935     15933     15941     15943
     15935     15933     15941     15944     15935     15936     15938     15939
     15935     15936     15938     15940     15935     15936     15938     15950
     15936     15935     15933     15941     15936     15938     15950     15951
     15936     15938     15950     15952     15936     15938     15950     15953
     15937     15936     15938     15939     15937     15936     15938     15940
     15937     15936     15938     15950     15938     15950     15953     15954
     15938     15950     15953     15955     15938     15950     15953     15956
     15939     15938     15950     15951     15939     15938     15950     15952
     15939     15938     15950     15953     15940     15938     15950     15951
     15940     15938     15950     15952     15940     15938     15950     15953
     15941     15944     15945     15946     15941     15944     15945     15947
     15942     15941     15944     15945     15943     15941     15944     15945
     15944     15945     15947     15948     15944     15945     15947     15949
     15944     15945     15947     15997     15945     15947     15997     15998
     15945     15947     15997     15999     15945     15947     15997     16000
     15946     15945     15947     15948     15946     15945     15947     15949
     15946     15945     15947     15997     15947     15997     16000     16001
     15947     15997     16000     16002     15947     15997     16000     16003
     15948     15947     15997     15998     15948     15947     15997     15999
     15948     15947     15997     16000     15949     15947     15997     15998
     15949     15947     15997     15999     15949     15947     15997     16000
     15950     15953     15956     15957     15950     15953     15956     15958
     15950     15953     15956     15959     15951     15950     15953     15954
     15951     15950     15953     15955     15951     15950     15953     15956
     15952     15950     15953     15954     15952     15950     15953     15955
     15952     15950     15953     15956     15953     15956     15959     15960
     15953     15956     15959     15961     15953     15956     15959     15962
     15954     15953     15956     15957     15954     15953     15956     15958
     15954     15953     15956     15959     15955     15953     15956     15957
     15955     15953     15956     15958     15955     15953     15956     15959
     15956     15959     15962     15963     15956     15959     15962     15964
     15956     15959     15962     15965     15957     15956     15959     15960
     15957     15956     15959     15961     15957     15956     15959     15962
     15958     15956     15959     15960     15958     15956     15959     15961
     15958     15956     15959     15962     15959     15962     15965     15966
     15959     15962     15965     15967     15959     15962     15965     15968
     15960     15959     15962     15963     15960     15959     15962     15964
     15960     15959     15962     15965     15961     15959     15962     15963
     15961     15959     15962     15964     15961     15959     15962     15965
     15962     15965     15968     15969     15962     15965     15968     15970
     15963     15962     15965     15966     15963     15962     15965     15967
     15963     15962     15965     15968     15964     15962     15965     15966
     15964     15962     15965     15967     15964     15962     15965     15968
     15965     15968     15970     15971     15965     15968     15970     15972
     15966     15965     15968     15969     15966     15965     15968     15970
     15967     15965     15968     15969     15967     15965     15968     15970
     15968     15970     15972     15973     15968     15970     15972     15974
     15968     15970     15972     15975     15969     15968     15970     15971
     15969     15968     15970     15972     15970     15972     15975     15976
     15970     15972     15975     15977     15970     15972     15975     15978
     15971     15970     15972     15973     15971     15970     15972     15974
     15971     15970     15972     15975     15972     15975     15978     15979
     15972     15975     15978     15980     15972     15975     15978     15981
     15973     15972     15975     15976     15973     15972     15975     15977
     15973     15972     15975     15978     15974     15972     15975     15976
     15974     15972     15975     15977     15974     15972     15975     15978
     15975     15978     15981     15982     15975     15978     15981     15983
     15975     15978     15981     15984     15976     15975     15978     15979
     15976     15975     15978     15980     15976     15975     15978     15981
     15977     15975     15978     15979     15977     15975     15978     15980
     15977     15975     15978     15981     15978     15981     15984     15985
     15978     15981     15984     15986     15978     15981     15984     15987
     15979     15978     15981     15982     15979     15978     15981     15983
     15979     15978     15981     15984     15980     15978     15981     15982
     15980     15978     15981     15983     15980     15978     15981     15984
     15981     15984     15987     15988     15981     15984     15987     15989
     15981     15984     15987     15990     15982     15981     15984     15985
     15982     15981     15984     15986     15982     15981     15984     15987
     15983     15981     15984     15985     15983     15981     15984     15986
     15983     15981     15984     15987     15984     15987     15990     15991
     15984     15987     15990     15992     15984     15987     15990     15993
     15985     15984     15987     15988     15985     15984     15987     15989
     15985     15984     15987     15990     15986     15984     15987     15988
     15986     15984     15987     15989     15986     15984     15987     15990
     15987     15990     15993     15994     15987     15990     15993     15995
     15987     15990     15993     15996     15988     15987     15990     15991
     15988     15987     15990     15992     15988     15987     15990     15993
     15989     15987     15990     15991     15989     15987     15990     15992
     15989     15987     15990     15993     15991     15990     15993     15994
     15991     15990     15993     15995     15991     15990     15993     15996
     15992     15990     15993     15994     15992     15990     15993     15995
     15992     15990     15993     15996     15997     16000     16003     16004
     15997     16000     16003     16005     15997     16000     16003     16006
     15998     15997     16000     16001     15998     15997     16000     16002
     15998     15997     16000     16003     15999     15997     16000     16001
     15999     15997     16000     16002     15999     15997     16000     16003
     16000     16003     16006     16007     16000     16003     16006     16008
     16000     16003     16006     16009     16001     16000     16003     16004
     16001     16000     16003     16005     16001     16000     16003     16006
     16002     16000     16003     16004     16002     16000     16003     16005
     16002     16000     16003     16006     16003     16006     16009     16010
     16003     16006     16009     16011     16003     16006     16009     16012
     16004     16003     16006     16007     16004     16003     16006     16008
     16004     16003     16006     16009     16005     16003     16006     16007
     16005     16003     16006     16008     16005     16003     16006     16009
     16006     16009     16012     16013     16006     16009     16012     16014
     16006     16009     16012     16015     16007     16006     16009     16010
     16007     16006     16009     16011     16007     16006     16009     16012
     16008     16006     16009     16010     16008     16006     16009     16011
     16008     16006     16009     16012     16009     16012     16015     16016
     16009     16012     16015     16017     16009     16012     16015     16018
     16010     16009     16012     16013     16010     16009     16012     16014
     16010     16009     16012     16015     16011     16009     16012     16013
     16011     16009     16012     16014     16011     16009     16012     16015
     16012     16015     16018     16019     16012     16015     16018     16020
     16012     16015     16018     16021     16013     16012     16015     16016
     16013     16012     16015     16017     16013     16012     16015     16018
     16014     16012     16015     16016     16014     16012     16015     16017
     16014     16012     16015     16018     16015     16018     16021     16022
     16015     16018     16021     16023     16015     16018     16021     16024
     16016     16015     16018     16019     16016     16015     16018     16020
     16016     16015     16018     16021     16017     16015     16018     16019
     16017     16015     16018     16020     16017     16015     16018     16021
     16018     16021     16024     16025     16018     16021     16024     16026
     16018     16021     16024     16027     16019     16018     16021     16022
     16019     16018     16021     16023     16019     16018     16021     16024
     16020     16018     16021     16022     16020     16018     16021     16023
     16020     16018     16021     16024     16021     16024     16027     16028
     16021     16024     16027     16029     16021     16024     16027     16030
     16022     16021     16024     16025     16022     16021     16024     16026
     16022     16021     16024     16027     16023     16021     16024     16025
     16023     16021     16024     16026     16023     16021     16024     16027
     16024     16027     16030     16031     16024     16027     16030     16032
     16024     16027     16030     16033     16025     16024     16027     16028
     16025     16024     16027     16029     16025     16024     16027     16030
     16026     16024     16027     16028     16026     16024     16027     16029
     16026     16024     16027     16030     16027     16030     16033     16034
     16027     16030     16033     16035     16027     16030     16033     16036
     16028     16027     16030     16031     16028     16027     16030     16032
     16028     16027     16030     16033     16029     16027     16030     16031
     16029     16027     16030     16032     16029     16027     16030     16033
     16030     16033     16036     16037     16030     16033     16036     16038
     16030     16033     16036     16039     16031     16030     16033     16034
     16031     16030     16033     16035     16031     16030     16033     16036
     16032     16030     16033     16034     16032     16030     16033     16035
     16032     16030     16033     16036     16034     16033     16036     16037
     16034     16033     16036     16038     16034     16033     16036     16039
     16035     16033     16036     16037     16035     16033     16036     16038
     16035     16033     16036     16039     16040     16041     16056     16057
     16040     16041     16056     16058     16040     16041     16056     16062
     16041     16040     16044     16045     16041     16040     16044     16046
     16041     16040     16044     16047     16041     16040     16048     16049
     16041     16040     16048     16050     16041     16040     16048     16051
     16041     16040     16052     16053     16041     16040     16052     16054
     16041     16040     16052     16055     16041     16056     16062     16059
     16042     16041     16040     16044     16042     16041     16040     16048
     16042     16041     16040     16052     16042     16041     16056     16057
     16042     16041     16056     16058     16042     16041     16056     16062
     16043     16041     16040     16044     16043     16041     16040     16048
     16043     16041     16040     16052     16043     16041     16056     16057
     16043     16041     16056     16058     16043     16041     16056     16062
     16044     16040     16041     16056     16044     16040     16048     16049
     16044     16040     16048     16050     16044     16040     16048     16051
     16044     16040     16052     16053     16044     16040     16052     16054
     16044     16040     16052     16055     16045     16044     16040     16048
     16045     16044     16040     16052     16046     16044     16040     16048
     16046     16044     16040     16052     16047     16044     16040     16048
     16047     16044     16040     16052     16048     16040     16041     16056
     16048     16040     16052     16053     16048     16040     16052     16054
     16048     16040     16052     16055     16049     16048     16040     16052
     16050     16048     16040     16052     16051     16048     16040     16052
     16052     16040     16041     16056     16056     16062     16059     16060
     16056     16062     16059     16061     16056     16062     16059     16063
     16057     16056     16062     16059     16058     16056     16062     16059
     16059     16063     16064     16065     16059     16063     16064     16066
     16059     16063     16064     16067     16060     16059     16063     16064
     16061     16059     16063     16064     16062     16059     16063     16064
     16063     16064     16067     16068     16063     16064     16067     16069
     16063     16064     16067     16075     16064     16067     16069     16070
     16064     16067     16075     16076     16064     16067     16075     16077
     16064     16067     16075     16078     16065     16064     16067     16068
     16065     16064     16067     16069     16065     16064     16067     16075
     16066     16064     16067     16068     16066     16064     16067     16069
     16066     16064     16067     16075     16067     16069     16070     16071
     16067     16069     16070     16072     16067     16075     16078     16079
     16068     16067     16069     16070     16068     16067     16075     16076
     16068     16067     16075     16077     16068     16067     16075     16078
     16069     16067     16075     16076     16069     16067     16075     16077
     16069     16067     16075     16078     16069     16070     16072     16073
     16069     16070     16072     16074     16069     16070     16072     16084
     16070     16069     16067     16075     16070     16072     16084     16085
     16070     16072     16084     16086     16070     16072     16084     16087
     16071     16070     16072     16073     16071     16070     16072     16074
     16071     16070     16072     16084     16072     16084     16087     16088
     16072     16084     16087     16089     16072     16084     16087     16090
     16073     16072     16084     16085     16073     16072     16084     16086
     16073     16072     16084     16087     16074     16072     16084     16085
     16074     16072     16084     16086     16074     16072     16084     16087
     16075     16078     16079     16080     16075     16078     16079     16081
     16076     16075     16078     16079     16077     16075     16078     16079
     16078     16079     16081     16082     16078     16079     16081     16083
     16078     16079     16081     16131     16079     16081     16131     16132
     16079     16081     16131     16133     16079     16081     16131     16134
     16080     16079     16081     16082     16080     16079     16081     16083
     16080     16079     16081     16131     16081     16131     16134     16135
     16081     16131     16134     16136     16081     16131     16134     16137
     16082     16081     16131     16132     16082     16081     16131     16133
     16082     16081     16131     16134     16083     16081     16131     16132
     16083     16081     16131     16133     16083     16081     16131     16134
     16084     16087     16090     16091     16084     16087     16090     16092
     16084     16087     16090     16093     16085     16084     16087     16088
     16085     16084     16087     16089     16085     16084     16087     16090
     16086     16084     16087     16088     16086     16084     16087     16089
     16086     16084     16087     16090     16087     16090     16093     16094
     16087     16090     16093     16095     16087     16090     16093     16096
     16088     16087     16090     16091     16088     16087     16090     16092
     16088     16087     16090     16093     16089     16087     16090     16091
     16089     16087     16090     16092     16089     16087     16090     16093
     16090     16093     16096     16097     16090     16093     16096     16098
     16090     16093     16096     16099     16091     16090     16093     16094
     16091     16090     16093     16095     16091     16090     16093     16096
     16092     16090     16093     16094     16092     16090     16093     16095
     16092     16090     16093     16096     16093     16096     16099     16100
     16093     16096     16099     16101     16093     16096     16099     16102
     16094     16093     16096     16097     16094     16093     16096     16098
     16094     16093     16096     16099     16095     16093     16096     16097
     16095     16093     16096     16098     16095     16093     16096     16099
     16096     16099     16102     16103     16096     16099     16102     16104
     16097     16096     16099     16100     16097     16096     16099     16101
     16097     16096     16099     16102     16098     16096     16099     16100
     16098     16096     16099     16101     16098     16096     16099     16102
     16099     16102     16104     16105     16099     16102     16104     16106
     16100     16099     16102     16103     16100     16099     16102     16104
     16101     16099     16102     16103     16101     16099     16102     16104
     16102     16104     16106     16107     16102     16104     16106     16108
     16102     16104     16106     16109     16103     16102     16104     16105
     16103     16102     16104     16106     16104     16106     16109     16110
     16104     16106     16109     16111     16104     16106     16109     16112
     16105     16104     16106     16107     16105     16104     16106     16108
     16105     16104     16106     16109     16106     16109     16112     16113
     16106     16109     16112     16114     16106     16109     16112     16115
     16107     16106     16109     16110     16107     16106     16109     16111
     16107     16106     16109     16112     16108     16106     16109     16110
     16108     16106     16109     16111     16108     16106     16109     16112
     16109     16112     16115     16116     16109     16112     16115     16117
     16109     16112     16115     16118     16110     16109     16112     16113
     16110     16109     16112     16114     16110     16109     16112     16115
     16111     16109     16112     16113     16111     16109     16112     16114
     16111     16109     16112     16115     16112     16115     16118     16119
     16112     16115     16118     16120     16112     16115     16118     16121
     16113     16112     16115     16116     16113     16112     16115     16117
     16113     16112     16115     16118     16114     16112     16115     16116
     16114     16112     16115     16117     16114     16112     16115     16118
     16115     16118     16121     16122     16115     16118     16121     16123
     16115     16118     16121     16124     16116     16115     16118     16119
     16116     16115     16118     16120     16116     16115     16118     16121
     16117     16115     16118     16119     16117     16115     16118     16120
     16117     16115     16118     16121     16118     16121     16124     16125
     16118     16121     16124     16126     16118     16121     16124     16127
     16119     16118     16121     16122     16119     16118     16121     16123
     16119     16118     16121     16124     16120     16118     16121     16122
     16120     16118     16121     16123     16120     16118     16121     16124
     16121     16124     16127     16128     16121     16124     16127     16129
     16121     16124     16127     16130     16122     16121     16124     16125
     16122     16121     16124     16126     16122     16121     16124     16127
     16123     16121     16124     16125     16123     16121     16124     16126
     16123     16121     16124     16127     16125     16124     16127     16128
     16125     16124     16127     16129     16125     16124     16127     16130
     16126     16124     16127     16128     16126     16124     16127     16129
     16126     16124     16127     16130     16131     16134     16137     16138
     16131     16134     16137     16139     16131     16134     16137     16140
     16132     16131     16134     16135     16132     16131     16134     16136
     16132     16131     16134     16137     16133     16131     16134     16135
     16133     16131     16134     16136     16133     16131     16134     16137
     16134     16137     16140     16141     16134     16137     16140     16142
     16134     16137     16140     16143     16135     16134     16137     16138
     16135     16134     16137     16139     16135     16134     16137     16140
     16136     16134     16137     16138     16136     16134     16137     16139
     16136     16134     16137     16140     16137     16140     16143     16144
     16137     16140     16143     16145     16137     16140     16143     16146
     16138     16137     16140     16141     16138     16137     16140     16142
     16138     16137     16140     16143     16139     16137     16140     16141
     16139     16137     16140     16142     16139     16137     16140     16143
     16140     16143     16146     16147     16140     16143     16146     16148
     16140     16143     16146     16149     16141     16140     16143     16144
     16141     16140     16143     16145     16141     16140     16143     16146
     16142     16140     16143     16144     16142     16140     16143     16145
     16142     16140     16143     16146     16143     16146     16149     16150
     16143     16146     16149     16151     16143     16146     16149     16152
     16144     16143     16146     16147     16144     16143     16146     16148
     16144     16143     16146     16149     16145     16143     16146     16147
     16145     16143     16146     16148     16145     16143     16146     16149
     16146     16149     16152     16153     16146     16149     16152     16154
     16146     16149     16152     16155     16147     16146     16149     16150
     16147     16146     16149     16151     16147     16146     16149     16152
     16148     16146     16149     16150     16148     16146     16149     16151
     16148     16146     16149     16152     16149     16152     16155     16156
     16149     16152     16155     16157     16149     16152     16155     16158
     16150     16149     16152     16153     16150     16149     16152     16154
     16150     16149     16152     16155     16151     16149     16152     16153
     16151     16149     16152     16154     16151     16149     16152     16155
     16152     16155     16158     16159     16152     16155     16158     16160
     16152     16155     16158     16161     16153     16152     16155     16156
     16153     16152     16155     16157     16153     16152     16155     16158
     16154     16152     16155     16156     16154     16152     16155     16157
     16154     16152     16155     16158     16155     16158     16161     16162
     16155     16158     16161     16163     16155     16158     16161     16164
     16156     16155     16158     16159     16156     16155     16158     16160
     16156     16155     16158     16161     16157     16155     16158     16159
     16157     16155     16158     16160     16157     16155     16158     16161
     16158     16161     16164     16165     16158     16161     16164     16166
     16158     16161     16164     16167     16159     16158     16161     16162
     16159     16158     16161     16163     16159     16158     16161     16164
     16160     16158     16161     16162     16160     16158     16161     16163
     16160     16158     16161     16164     16161     16164     16167     16168
     16161     16164     16167     16169     16161     16164     16167     16170
     16162     16161     16164     16165     16162     16161     16164     16166
     16162     16161     16164     16167     16163     16161     16164     16165
     16163     16161     16164     16166     16163     16161     16164     16167
     16164     16167     16170     16171     16164     16167     16170     16172
     16164     16167     16170     16173     16165     16164     16167     16168
     16165     16164     16167     16169     16165     16164     16167     16170
     16166     16164     16167     16168     16166     16164     16167     16169
     16166     16164     16167     16170     16168     16167     16170     16171
     16168     16167     16170     16172     16168     16167     16170     16173
     16169     16167     16170     16171     16169     16167     16170     16172
     16169     16167     16170     16173     16174     16175     16190     16191
     16174     16175     16190     16192     16174     16175     16190     16196
     16175     16174     16178     16179     16175     16174     16178     16180
     16175     16174     16178     16181     16175     16174     16182     16183
     16175     16174     16182     16184     16175     16174     16182     16185
     16175     16174     16186     16187     16175     16174     16186     16188
     16175     16174     16186     16189     16175     16190     16196     16193
     16176     16175     16174     16178     16176     16175     16174     16182
     16176     16175     16174     16186     16176     16175     16190     16191
     16176     16175     16190     16192     16176     16175     16190     16196
     16177     16175     16174     16178     16177     16175     16174     16182
     16177     16175     16174     16186     16177     16175     16190     16191
     16177     16175     16190     16192     16177     16175     16190     16196
     16178     16174     16175     16190     16178     16174     16182     16183
     16178     16174     16182     16184     16178     16174     16182     16185
     16178     16174     16186     16187     16178     16174     16186     16188
     16178     16174     16186     16189     16179     16178     16174     16182
     16179     16178     16174     16186     16180     16178     16174     16182
     16180     16178     16174     16186     16181     16178     16174     16182
     16181     16178     16174     16186     16182     16174     16175     16190
     16182     16174     16186     16187     16182     16174     16186     16188
     16182     16174     16186     16189     16183     16182     16174     16186
     16184     16182     16174     16186     16185     16182     16174     16186
     16186     16174     16175     16190     16190     16196     16193     16194
     16190     16196     16193     16195     16190     16196     16193     16197
     16191     16190     16196     16193     16192     16190     16196     16193
     16193     16197     16198     16199     16193     16197     16198     16200
     16193     16197     16198     16201     16194     16193     16197     16198
     16195     16193     16197     16198     16196     16193     16197     16198
     16197     16198     16201     16202     16197     16198     16201     16203
     16197     16198     16201     16209     16198     16201     16203     16204
     16198     16201     16209     16210     16198     16201     16209     16211
     16198     16201     16209     16212     16199     16198     16201     16202
     16199     16198     16201     16203     16199     16198     16201     16209
     16200     16198     16201     16202     16200     16198     16201     16203
     16200     16198     16201     16209     16201     16203     16204     16205
     16201     16203     16204     16206     16201     16209     16212     16213
     16202     16201     16203     16204     16202     16201     16209     16210
     16202     16201     16209     16211     16202     16201     16209     16212
     16203     16201     16209     16210     16203     16201     16209     16211
     16203     16201     16209     16212     16203     16204     16206     16207
     16203     16204     16206     16208     16203     16204     16206     16218
     16204     16203     16201     16209     16204     16206     16218     16219
     16204     16206     16218     16220     16204     16206     16218     16221
     16205     16204     16206     16207     16205     16204     16206     16208
     16205     16204     16206     16218     16206     16218     16221     16222
     16206     16218     16221     16223     16206     16218     16221     16224
     16207     16206     16218     16219     16207     16206     16218     16220
     16207     16206     16218     16221     16208     16206     16218     16219
     16208     16206     16218     16220     16208     16206     16218     16221
     16209     16212     16213     16214     16209     16212     16213     16215
     16210     16209     16212     16213     16211     16209     16212     16213
     16212     16213     16215     16216     16212     16213     16215     16217
     16212     16213     16215     16265     16213     16215     16265     16266
     16213     16215     16265     16267     16213     16215     16265     16268
     16214     16213     16215     16216     16214     16213     16215     16217
     16214     16213     16215     16265     16215     16265     16268     16269
     16215     16265     16268     16270     16215     16265     16268     16271
     16216     16215     16265     16266     16216     16215     16265     16267
     16216     16215     16265     16268     16217     16215     16265     16266
     16217     16215     16265     16267     16217     16215     16265     16268
     16218     16221     16224     16225     16218     16221     16224     16226
     16218     16221     16224     16227     16219     16218     16221     16222
     16219     16218     16221     16223     16219     16218     16221     16224
     16220     16218     16221     16222     16220     16218     16221     16223
     16220     16218     16221     16224     16221     16224     16227     16228
     16221     16224     16227     16229     16221     16224     16227     16230
     16222     16221     16224     16225     16222     16221     16224     16226
     16222     16221     16224     16227     16223     16221     16224     16225
     16223     16221     16224     16226     16223     16221     16224     16227
     16224     16227     16230     16231     16224     16227     16230     16232
     16224     16227     16230     16233     16225     16224     16227     16228
     16225     16224     16227     16229     16225     16224     16227     16230
     16226     16224     16227     16228     16226     16224     16227     16229
     16226     16224     16227     16230     16227     16230     16233     16234
     16227     16230     16233     16235     16227     16230     16233     16236
     16228     16227     16230     16231     16228     16227     16230     16232
     16228     16227     16230     16233     16229     16227     16230     16231
     16229     16227     16230     16232     16229     16227     16230     16233
     16230     16233     16236     16237     16230     16233     16236     16238
     16231     16230     16233     16234     16231     16230     16233     16235
     16231     16230     16233     16236     16232     16230     16233     16234
     16232     16230     16233     16235     16232     16230     16233     16236
     16233     16236     16238     16239     16233     16236     16238     16240
     16234     16233     16236     16237     16234     16233     16236     16238
     16235     16233     16236     16237     16235     16233     16236     16238
     16236     16238     16240     16241     16236     16238     16240     16242
     16236     16238     16240     16243     16237     16236     16238     16239
     16237     16236     16238     16240     16238     16240     16243     16244
     16238     16240     16243     16245     16238     16240     16243     16246
     16239     16238     16240     16241     16239     16238     16240     16242
     16239     16238     16240     16243     16240     16243     16246     16247
     16240     16243     16246     16248     16240     16243     16246     16249
     16241     16240     16243     16244     16241     16240     16243     16245
     16241     16240     16243     16246     16242     16240     16243     16244
     16242     16240     16243     16245     16242     16240     16243     16246
     16243     16246     16249     16250     16243     16246     16249     16251
     16243     16246     16249     16252     16244     16243     16246     16247
     16244     16243     16246     16248     16244     16243     16246     16249
     16245     16243     16246     16247     16245     16243     16246     16248
     16245     16243     16246     16249     16246     16249     16252     16253
     16246     16249     16252     16254     16246     16249     16252     16255
     16247     16246     16249     16250     16247     16246     16249     16251
     16247     16246     16249     16252     16248     16246     16249     16250
     16248     16246     16249     16251     16248     16246     16249     16252
     16249     16252     16255     16256     16249     16252     16255     16257
     16249     16252     16255     16258     16250     16249     16252     16253
     16250     16249     16252     16254     16250     16249     16252     16255
     16251     16249     16252     16253     16251     16249     16252     16254
     16251     16249     16252     16255     16252     16255     16258     16259
     16252     16255     16258     16260     16252     16255     16258     16261
     16253     16252     16255     16256     16253     16252     16255     16257
     16253     16252     16255     16258     16254     16252     16255     16256
     16254     16252     16255     16257     16254     16252     16255     16258
     16255     16258     16261     16262     16255     16258     16261     16263
     16255     16258     16261     16264     16256     16255     16258     16259
     16256     16255     16258     16260     16256     16255     16258     16261
     16257     16255     16258     16259     16257     16255     16258     16260
     16257     16255     16258     16261     16259     16258     16261     16262
     16259     16258     16261     16263     16259     16258     16261     16264
     16260     16258     16261     16262     16260     16258     16261     16263
     16260     16258     16261     16264     16265     16268     16271     16272
     16265     16268     16271     16273     16265     16268     16271     16274
     16266     16265     16268     16269     16266     16265     16268     16270
     16266     16265     16268     16271     16267     16265     16268     16269
     16267     16265     16268     16270     16267     16265     16268     16271
     16268     16271     16274     16275     16268     16271     16274     16276
     16268     16271     16274     16277     16269     16268     16271     16272
     16269     16268     16271     16273     16269     16268     16271     16274
     16270     16268     16271     16272     16270     16268     16271     16273
     16270     16268     16271     16274     16271     16274     16277     16278
     16271     16274     16277     16279     16271     16274     16277     16280
     16272     16271     16274     16275     16272     16271     16274     16276
     16272     16271     16274     16277     16273     16271     16274     16275
     16273     16271     16274     16276     16273     16271     16274     16277
     16274     16277     16280     16281     16274     16277     16280     16282
     16274     16277     16280     16283     16275     16274     16277     16278
     16275     16274     16277     16279     16275     16274     16277     16280
     16276     16274     16277     16278     16276     16274     16277     16279
     16276     16274     16277     16280     16277     16280     16283     16284
     16277     16280     16283     16285     16277     16280     16283     16286
     16278     16277     16280     16281     16278     16277     16280     16282
     16278     16277     16280     16283     16279     16277     16280     16281
     16279     16277     16280     16282     16279     16277     16280     16283
     16280     16283     16286     16287     16280     16283     16286     16288
     16280     16283     16286     16289     16281     16280     16283     16284
     16281     16280     16283     16285     16281     16280     16283     16286
     16282     16280     16283     16284     16282     16280     16283     16285
     16282     16280     16283     16286     16283     16286     16289     16290
     16283     16286     16289     16291     16283     16286     16289     16292
     16284     16283     16286     16287     16284     16283     16286     16288
     16284     16283     16286     16289     16285     16283     16286     16287
     16285     16283     16286     16288     16285     16283     16286     16289
     16286     16289     16292     16293     16286     16289     16292     16294
     16286     16289     16292     16295     16287     16286     16289     16290
     16287     16286     16289     16291     16287     16286     16289     16292
     16288     16286     16289     16290     16288     16286     16289     16291
     16288     16286     16289     16292     16289     16292     16295     16296
     16289     16292     16295     16297     16289     16292     16295     16298
     16290     16289     16292     16293     16290     16289     16292     16294
     16290     16289     16292     16295     16291     16289     16292     16293
     16291     16289     16292     16294     16291     16289     16292     16295
     16292     16295     16298     16299     16292     16295     16298     16300
     16292     16295     16298     16301     16293     16292     16295     16296
     16293     16292     16295     16297     16293     16292     16295     16298
     16294     16292     16295     16296     16294     16292     16295     16297
     16294     16292     16295     16298     16295     16298     16301     16302
     16295     16298     16301     16303     16295     16298     16301     16304
     16296     16295     16298     16299     16296     16295     16298     16300
     16296     16295     16298     16301     16297     16295     16298     16299
     16297     16295     16298     16300     16297     16295     16298     16301
     16298     16301     16304     16305     16298     16301     16304     16306
     16298     16301     16304     16307     16299     16298     16301     16302
     16299     16298     16301     16303     16299     16298     16301     16304
     16300     16298     16301     16302     16300     16298     16301     16303
     16300     16298     16301     16304     16302     16301     16304     16305
     16302     16301     16304     16306     16302     16301     16304     16307
     16303     16301     16304     16305     16303     16301     16304     16306
     16303     16301     16304     16307     16308     16312     16314     16315
     16308     16312     16314     16316     16308     16312     16317     16318
     16308     16312     16317     16319     16308     16312     16317     16323
     16309     16308     16312     16313     16309     16308     16312     16314
     16309     16308     16312     16317     16310     16308     16312     16313
     16310     16308     16312     16314     16310     16308     16312     16317
     16311     16308     16312     16313     16311     16308     16312     16314
     16311     16308     16312     16317     16312     16317     16323     16320
     16313     16312     16314     16315     16313     16312     16314     16316
     16313     16312     16317     16318     16313     16312     16317     16319
     16313     16312     16317     16323     16314     16312     16317     16318
     16314     16312     16317     16319     16314     16312     16317     16323
     16315     16314     16312     16317     16316     16314     16312     16317
     16317     16323     16320     16321     16317     16323     16320     16322
     16317     16323     16320     16324     16318     16317     16323     16320
     16319     16317     16323     16320     16320     16324     16325     16326
     16320     16324     16325     16327     16320     16324     16325     16328
     16321     16320     16324     16325     16322     16320     16324     16325
     16323     16320     16324     16325     16324     16325     16328     16329
     16324     16325     16328     16330     16324     16325     16328     16336
     16325     16328     16330     16331     16325     16328     16336     16337
     16325     16328     16336     16338     16325     16328     16336     16339
     16326     16325     16328     16329     16326     16325     16328     16330
     16326     16325     16328     16336     16327     16325     16328     16329
     16327     16325     16328     16330     16327     16325     16328     16336
     16328     16330     16331     16332     16328     16330     16331     16333
     16328     16336     16339     16340     16329     16328     16330     16331
     16329     16328     16336     16337     16329     16328     16336     16338
     16329     16328     16336     16339     16330     16328     16336     16337
     16330     16328     16336     16338     16330     16328     16336     16339
     16330     16331     16333     16334     16330     16331     16333     16335
     16330     16331     16333     16345     16331     16330     16328     16336
     16331     16333     16345     16346     16331     16333     16345     16347
     16331     16333     16345     16348     16332     16331     16333     16334
     16332     16331     16333     16335     16332     16331     16333     16345
     16333     16345     16348     16349     16333     16345     16348     16350
     16333     16345     16348     16351     16334     16333     16345     16346
     16334     16333     16345     16347     16334     16333     16345     16348
     16335     16333     16345     16346     16335     16333     16345     16347
     16335     16333     16345     16348     16336     16339     16340     16341
     16336     16339     16340     16342     16337     16336     16339     16340
     16338     16336     16339     16340     16339     16340     16342     16343
     16339     16340     16342     16344     16339     16340     16342     16392
     16340     16342     16392     16393     16340     16342     16392     16394
     16340     16342     16392     16395     16341     16340     16342     16343
     16341     16340     16342     16344     16341     16340     16342     16392
     16342     16392     16395     16396     16342     16392     16395     16397
     16342     16392     16395     16398     16343     16342     16392     16393
     16343     16342     16392     16394     16343     16342     16392     16395
     16344     16342     16392     16393     16344     16342     16392     16394
     16344     16342     16392     16395     16345     16348     16351     16352
     16345     16348     16351     16353     16345     16348     16351     16354
     16346     16345     16348     16349     16346     16345     16348     16350
     16346     16345     16348     16351     16347     16345     16348     16349
     16347     16345     16348     16350     16347     16345     16348     16351
     16348     16351     16354     16355     16348     16351     16354     16356
     16348     16351     16354     16357     16349     16348     16351     16352
     16349     16348     16351     16353     16349     16348     16351     16354
     16350     16348     16351     16352     16350     16348     16351     16353
     16350     16348     16351     16354     16351     16354     16357     16358
     16351     16354     16357     16359     16351     16354     16357     16360
     16352     16351     16354     16355     16352     16351     16354     16356
     16352     16351     16354     16357     16353     16351     16354     16355
     16353     16351     16354     16356     16353     16351     16354     16357
     16354     16357     16360     16361     16354     16357     16360     16362
     16354     16357     16360     16363     16355     16354     16357     16358
     16355     16354     16357     16359     16355     16354     16357     16360
     16356     16354     16357     16358     16356     16354     16357     16359
     16356     16354     16357     16360     16357     16360     16363     16364
     16357     16360     16363     16365     16358     16357     16360     16361
     16358     16357     16360     16362     16358     16357     16360     16363
     16359     16357     16360     16361     16359     16357     16360     16362
     16359     16357     16360     16363     16360     16363     16365     16366
     16360     16363     16365     16367     16361     16360     16363     16364
     16361     16360     16363     16365     16362     16360     16363     16364
     16362     16360     16363     16365     16363     16365     16367     16368
     16363     16365     16367     16369     16363     16365     16367     16370
     16364     16363     16365     16366     16364     16363     16365     16367
     16365     16367     16370     16371     16365     16367     16370     16372
     16365     16367     16370     16373     16366     16365     16367     16368
     16366     16365     16367     16369     16366     16365     16367     16370
     16367     16370     16373     16374     16367     16370     16373     16375
     16367     16370     16373     16376     16368     16367     16370     16371
     16368     16367     16370     16372     16368     16367     16370     16373
     16369     16367     16370     16371     16369     16367     16370     16372
     16369     16367     16370     16373     16370     16373     16376     16377
     16370     16373     16376     16378     16370     16373     16376     16379
     16371     16370     16373     16374     16371     16370     16373     16375
     16371     16370     16373     16376     16372     16370     16373     16374
     16372     16370     16373     16375     16372     16370     16373     16376
     16373     16376     16379     16380     16373     16376     16379     16381
     16373     16376     16379     16382     16374     16373     16376     16377
     16374     16373     16376     16378     16374     16373     16376     16379
     16375     16373     16376     16377     16375     16373     16376     16378
     16375     16373     16376     16379     16376     16379     16382     16383
     16376     16379     16382     16384     16376     16379     16382     16385
     16377     16376     16379     16380     16377     16376     16379     16381
     16377     16376     16379     16382     16378     16376     16379     16380
     16378     16376     16379     16381     16378     16376     16379     16382
     16379     16382     16385     16386     16379     16382     16385     16387
     16379     16382     16385     16388     16380     16379     16382     16383
     16380     16379     16382     16384     16380     16379     16382     16385
     16381     16379     16382     16383     16381     16379     16382     16384
     16381     16379     16382     16385     16382     16385     16388     16389
     16382     16385     16388     16390     16382     16385     16388     16391
     16383     16382     16385     16386     16383     16382     16385     16387
     16383     16382     16385     16388     16384     16382     16385     16386
     16384     16382     16385     16387     16384     16382     16385     16388
     16386     16385     16388     16389     16386     16385     16388     16390
     16386     16385     16388     16391     16387     16385     16388     16389
     16387     16385     16388     16390     16387     16385     16388     16391
     16392     16395     16398     16399     16392     16395     16398     16400
     16392     16395     16398     16401     16393     16392     16395     16396
     16393     16392     16395     16397     16393     16392     16395     16398
     16394     16392     16395     16396     16394     16392     16395     16397
     16394     16392     16395     16398     16395     16398     16401     16402
     16395     16398     16401     16403     16395     16398     16401     16404
     16396     16395     16398     16399     16396     16395     16398     16400
     16396     16395     16398     16401     16397     16395     16398     16399
     16397     16395     16398     16400     16397     16395     16398     16401
     16398     16401     16404     16405     16398     16401     16404     16406
     16398     16401     16404     16407     16399     16398     16401     16402
     16399     16398     16401     16403     16399     16398     16401     16404
     16400     16398     16401     16402     16400     16398     16401     16403
     16400     16398     16401     16404     16401     16404     16407     16408
     16401     16404     16407     16409     16401     16404     16407     16410
     16402     16401     16404     16405     16402     16401     16404     16406
     16402     16401     16404     16407     16403     16401     16404     16405
     16403     16401     16404     16406     16403     16401     16404     16407
     16404     16407     16410     16411     16404     16407     16410     16412
     16404     16407     16410     16413     16405     16404     16407     16408
     16405     16404     16407     16409     16405     16404     16407     16410
     16406     16404     16407     16408     16406     16404     16407     16409
     16406     16404     16407     16410     16407     16410     16413     16414
     16407     16410     16413     16415     16407     16410     16413     16416
     16408     16407     16410     16411     16408     16407     16410     16412
     16408     16407     16410     16413     16409     16407     16410     16411
     16409     16407     16410     16412     16409     16407     16410     16413
     16410     16413     16416     16417     16410     16413     16416     16418
     16410     16413     16416     16419     16411     16410     16413     16414
     16411     16410     16413     16415     16411     16410     16413     16416
     16412     16410     16413     16414     16412     16410     16413     16415
     16412     16410     16413     16416     16413     16416     16419     16420
     16413     16416     16419     16421     16413     16416     16419     16422
     16414     16413     16416     16417     16414     16413     16416     16418
     16414     16413     16416     16419     16415     16413     16416     16417
     16415     16413     16416     16418     16415     16413     16416     16419
     16416     16419     16422     16423     16416     16419     16422     16424
     16416     16419     16422     16425     16417     16416     16419     16420
     16417     16416     16419     16421     16417     16416     16419     16422
     16418     16416     16419     16420     16418     16416     16419     16421
     16418     16416     16419     16422     16419     16422     16425     16426
     16419     16422     16425     16427     16419     16422     16425     16428
     16420     16419     16422     16423     16420     16419     16422     16424
     16420     16419     16422     16425     16421     16419     16422     16423
     16421     16419     16422     16424     16421     16419     16422     16425
     16422     16425     16428     16429     16422     16425     16428     16430
     16422     16425     16428     16431     16423     16422     16425     16426
     16423     16422     16425     16427     16423     16422     16425     16428
     16424     16422     16425     16426     16424     16422     16425     16427
     16424     16422     16425     16428     16425     16428     16431     16432
     16425     16428     16431     16433     16425     16428     16431     16434
     16426     16425     16428     16429     16426     16425     16428     16430
     16426     16425     16428     16431     16427     16425     16428     16429
     16427     16425     16428     16430     16427     16425     16428     16431
     16429     16428     16431     16432     16429     16428     16431     16433
     16429     16428     16431     16434     16430     16428     16431     16432
     16430     16428     16431     16433     16430     16428     16431     16434
     16435     16436     16451     16452     16435     16436     16451     16453
     16435     16436     16451     16457     16436     16435     16439     16440
     16436     16435     16439     16441     16436     16435     16439     16442
     16436     16435     16443     16444     16436     16435     16443     16445
     16436     16435     16443     16446     16436     16435     16447     16448
     16436     16435     16447     16449     16436     16435     16447     16450
     16436     16451     16457     16454     16437     16436     16435     16439
     16437     16436     16435     16443     16437     16436     16435     16447
     16437     16436     16451     16452     16437     16436     16451     16453
     16437     16436     16451     16457     16438     16436     16435     16439
     16438     16436     16435     16443     16438     16436     16435     16447
     16438     16436     16451     16452     16438     16436     16451     16453
     16438     16436     16451     16457     16439     16435     16436     16451
     16439     16435     16443     16444     16439     16435     16443     16445
     16439     16435     16443     16446     16439     16435     16447     16448
     16439     16435     16447     16449     16439     16435     16447     16450
     16440     16439     16435     16443     16440     16439     16435     16447
     16441     16439     16435     16443     16441     16439     16435     16447
     16442     16439     16435     16443     16442     16439     16435     16447
     16443     16435     16436     16451     16443     16435     16447     16448
     16443     16435     16447     16449     16443     16435     16447     16450
     16444     16443     16435     16447     16445     16443     16435     16447
     16446     16443     16435     16447     16447     16435     16436     16451
     16451     16457     16454     16455     16451     16457     16454     16456
     16451     16457     16454     16458     16452     16451     16457     16454
     16453     16451     16457     16454     16454     16458     16459     16460
     16454     16458     16459     16461     16454     16458     16459     16462
     16455     16454     16458     16459     16456     16454     16458     16459
     16457     16454     16458     16459     16458     16459     16462     16463
     16458     16459     16462     16464     16458     16459     16462     16470
     16459     16462     16464     16465     16459     16462     16470     16471
     16459     16462     16470     16472     16459     16462     16470     16473
     16460     16459     16462     16463     16460     16459     16462     16464
     16460     16459     16462     16470     16461     16459     16462     16463
     16461     16459     16462     16464     16461     16459     16462     16470
     16462     16464     16465     16466     16462     16464     16465     16467
     16462     16470     16473     16474     16463     16462     16464     16465
     16463     16462     16470     16471     16463     16462     16470     16472
     16463     16462     16470     16473     16464     16462     16470     16471
     16464     16462     16470     16472     16464     16462     16470     16473
     16464     16465     16467     16468     16464     16465     16467     16469
     16464     16465     16467     16479     16465     16464     16462     16470
     16465     16467     16479     16480     16465     16467     16479     16481
     16465     16467     16479     16482     16466     16465     16467     16468
     16466     16465     16467     16469     16466     16465     16467     16479
     16467     16479     16482     16483     16467     16479     16482     16484
     16467     16479     16482     16485     16468     16467     16479     16480
     16468     16467     16479     16481     16468     16467     16479     16482
     16469     16467     16479     16480     16469     16467     16479     16481
     16469     16467     16479     16482     16470     16473     16474     16475
     16470     16473     16474     16476     16471     16470     16473     16474
     16472     16470     16473     16474     16473     16474     16476     16477
     16473     16474     16476     16478     16473     16474     16476     16526
     16474     16476     16526     16527     16474     16476     16526     16528
     16474     16476     16526     16529     16475     16474     16476     16477
     16475     16474     16476     16478     16475     16474     16476     16526
     16476     16526     16529     16530     16476     16526     16529     16531
     16476     16526     16529     16532     16477     16476     16526     16527
     16477     16476     16526     16528     16477     16476     16526     16529
     16478     16476     16526     16527     16478     16476     16526     16528
     16478     16476     16526     16529     16479     16482     16485     16486
     16479     16482     16485     16487     16479     16482     16485     16488
     16480     16479     16482     16483     16480     16479     16482     16484
     16480     16479     16482     16485     16481     16479     16482     16483
     16481     16479     16482     16484     16481     16479     16482     16485
     16482     16485     16488     16489     16482     16485     16488     16490
     16482     16485     16488     16491     16483     16482     16485     16486
     16483     16482     16485     16487     16483     16482     16485     16488
     16484     16482     16485     16486     16484     16482     16485     16487
     16484     16482     16485     16488     16485     16488     16491     16492
     16485     16488     16491     16493     16485     16488     16491     16494
     16486     16485     16488     16489     16486     16485     16488     16490
     16486     16485     16488     16491     16487     16485     16488     16489
     16487     16485     16488     16490     16487     16485     16488     16491
     16488     16491     16494     16495     16488     16491     16494     16496
     16488     16491     16494     16497     16489     16488     16491     16492
     16489     16488     16491     16493     16489     16488     16491     16494
     16490     16488     16491     16492     16490     16488     16491     16493
     16490     16488     16491     16494     16491     16494     16497     16498
     16491     16494     16497     16499     16492     16491     16494     16495
     16492     16491     16494     16496     16492     16491     16494     16497
     16493     16491     16494     16495     16493     16491     16494     16496
     16493     16491     16494     16497     16494     16497     16499     16500
     16494     16497     16499     16501     16495     16494     16497     16498
     16495     16494     16497     16499     16496     16494     16497     16498
     16496     16494     16497     16499     16497     16499     16501     16502
     16497     16499     16501     16503     16497     16499     16501     16504
     16498     16497     16499     16500     16498     16497     16499     16501
     16499     16501     16504     16505     16499     16501     16504     16506
     16499     16501     16504     16507     16500     16499     16501     16502
     16500     16499     16501     16503     16500     16499     16501     16504
     16501     16504     16507     16508     16501     16504     16507     16509
     16501     16504     16507     16510     16502     16501     16504     16505
     16502     16501     16504     16506     16502     16501     16504     16507
     16503     16501     16504     16505     16503     16501     16504     16506
     16503     16501     16504     16507     16504     16507     16510     16511
     16504     16507     16510     16512     16504     16507     16510     16513
     16505     16504     16507     16508     16505     16504     16507     16509
     16505     16504     16507     16510     16506     16504     16507     16508
     16506     16504     16507     16509     16506     16504     16507     16510
     16507     16510     16513     16514     16507     16510     16513     16515
     16507     16510     16513     16516     16508     16507     16510     16511
     16508     16507     16510     16512     16508     16507     16510     16513
     16509     16507     16510     16511     16509     16507     16510     16512
     16509     16507     16510     16513     16510     16513     16516     16517
     16510     16513     16516     16518     16510     16513     16516     16519
     16511     16510     16513     16514     16511     16510     16513     16515
     16511     16510     16513     16516     16512     16510     16513     16514
     16512     16510     16513     16515     16512     16510     16513     16516
     16513     16516     16519     16520     16513     16516     16519     16521
     16513     16516     16519     16522     16514     16513     16516     16517
     16514     16513     16516     16518     16514     16513     16516     16519
     16515     16513     16516     16517     16515     16513     16516     16518
     16515     16513     16516     16519     16516     16519     16522     16523
     16516     16519     16522     16524     16516     16519     16522     16525
     16517     16516     16519     16520     16517     16516     16519     16521
     16517     16516     16519     16522     16518     16516     16519     16520
     16518     16516     16519     16521     16518     16516     16519     16522
     16520     16519     16522     16523     16520     16519     16522     16524
     16520     16519     16522     16525     16521     16519     16522     16523
     16521     16519     16522     16524     16521     16519     16522     16525
     16526     16529     16532     16533     16526     16529     16532     16534
     16526     16529     16532     16535     16527     16526     16529     16530
     16527     16526     16529     16531     16527     16526     16529     16532
     16528     16526     16529     16530     16528     16526     16529     16531
     16528     16526     16529     16532     16529     16532     16535     16536
     16529     16532     16535     16537     16529     16532     16535     16538
     16530     16529     16532     16533     16530     16529     16532     16534
     16530     16529     16532     16535     16531     16529     16532     16533
     16531     16529     16532     16534     16531     16529     16532     16535
     16532     16535     16538     16539     16532     16535     16538     16540
     16532     16535     16538     16541     16533     16532     16535     16536
     16533     16532     16535     16537     16533     16532     16535     16538
     16534     16532     16535     16536     16534     16532     16535     16537
     16534     16532     16535     16538     16535     16538     16541     16542
     16535     16538     16541     16543     16535     16538     16541     16544
     16536     16535     16538     16539     16536     16535     16538     16540
     16536     16535     16538     16541     16537     16535     16538     16539
     16537     16535     16538     16540     16537     16535     16538     16541
     16538     16541     16544     16545     16538     16541     16544     16546
     16538     16541     16544     16547     16539     16538     16541     16542
     16539     16538     16541     16543     16539     16538     16541     16544
     16540     16538     16541     16542     16540     16538     16541     16543
     16540     16538     16541     16544     16541     16544     16547     16548
     16541     16544     16547     16549     16541     16544     16547     16550
     16542     16541     16544     16545     16542     16541     16544     16546
     16542     16541     16544     16547     16543     16541     16544     16545
     16543     16541     16544     16546     16543     16541     16544     16547
     16544     16547     16550     16551     16544     16547     16550     16552
     16544     16547     16550     16553     16545     16544     16547     16548
     16545     16544     16547     16549     16545     16544     16547     16550
     16546     16544     16547     16548     16546     16544     16547     16549
     16546     16544     16547     16550     16547     16550     16553     16554
     16547     16550     16553     16555     16547     16550     16553     16556
     16548     16547     16550     16551     16548     16547     16550     16552
     16548     16547     16550     16553     16549     16547     16550     16551
     16549     16547     16550     16552     16549     16547     16550     16553
     16550     16553     16556     16557     16550     16553     16556     16558
     16550     16553     16556     16559     16551     16550     16553     16554
     16551     16550     16553     16555     16551     16550     16553     16556
     16552     16550     16553     16554     16552     16550     16553     16555
     16552     16550     16553     16556     16553     16556     16559     16560
     16553     16556     16559     16561     16553     16556     16559     16562
     16554     16553     16556     16557     16554     16553     16556     16558
     16554     16553     16556     16559     16555     16553     16556     16557
     16555     16553     16556     16558     16555     16553     16556     16559
     16556     16559     16562     16563     16556     16559     16562     16564
     16556     16559     16562     16565     16557     16556     16559     16560
     16557     16556     16559     16561     16557     16556     16559     16562
     16558     16556     16559     16560     16558     16556     16559     16561
     16558     16556     16559     16562     16559     16562     16565     16566
     16559     16562     16565     16567     16559     16562     16565     16568
     16560     16559     16562     16563     16560     16559     16562     16564
     16560     16559     16562     16565     16561     16559     16562     16563
     16561     16559     16562     16564     16561     16559     16562     16565
     16563     16562     16565     16566     16563     16562     16565     16567
     16563     16562     16565     16568     16564     16562     16565     16566
     16564     16562     16565     16567     16564     16562     16565     16568
     16569     16570     16585     16586     16569     16570     16585     16587
     16569     16570     16585     16591     16570     16569     16573     16574
     16570     16569     16573     16575     16570     16569     16573     16576
     16570     16569     16577     16578     16570     16569     16577     16579
     16570     16569     16577     16580     16570     16569     16581     16582
     16570     16569     16581     16583     16570     16569     16581     16584
     16570     16585     16591     16588     16571     16570     16569     16573
     16571     16570     16569     16577     16571     16570     16569     16581
     16571     16570     16585     16586     16571     16570     16585     16587
     16571     16570     16585     16591     16572     16570     16569     16573
     16572     16570     16569     16577     16572     16570     16569     16581
     16572     16570     16585     16586     16572     16570     16585     16587
     16572     16570     16585     16591     16573     16569     16570     16585
     16573     16569     16577     16578     16573     16569     16577     16579
     16573     16569     16577     16580     16573     16569     16581     16582
     16573     16569     16581     16583     16573     16569     16581     16584
     16574     16573     16569     16577     16574     16573     16569     16581
     16575     16573     16569     16577     16575     16573     16569     16581
     16576     16573     16569     16577     16576     16573     16569     16581
     16577     16569     16570     16585     16577     16569     16581     16582
     16577     16569     16581     16583     16577     16569     16581     16584
     16578     16577     16569     16581     16579     16577     16569     16581
     16580     16577     16569     16581     16581     16569     16570     16585
     16585     16591     16588     16589     16585     16591     16588     16590
     16585     16591     16588     16592     16586     16585     16591     16588
     16587     16585     16591     16588     16588     16592     16593     16594
     16588     16592     16593     16595     16588     16592     16593     16596
     16589     16588     16592     16593     16590     16588     16592     16593
     16591     16588     16592     16593     16592     16593     16596     16597
     16592     16593     16596     16598     16592     16593     16596     16604
     16593     16596     16598     16599     16593     16596     16604     16605
     16593     16596     16604     16606     16593     16596     16604     16607
     16594     16593     16596     16597     16594     16593     16596     16598
     16594     16593     16596     16604     16595     16593     16596     16597
     16595     16593     16596     16598     16595     16593     16596     16604
     16596     16598     16599     16600     16596     16598     16599     16601
     16596     16604     16607     16608     16597     16596     16598     16599
     16597     16596     16604     16605     16597     16596     16604     16606
     16597     16596     16604     16607     16598     16596     16604     16605
     16598     16596     16604     16606     16598     16596     16604     16607
     16598     16599     16601     16602     16598     16599     16601     16603
     16598     16599     16601     16613     16599     16598     16596     16604
     16599     16601     16613     16614     16599     16601     16613     16615
     16599     16601     16613     16616     16600     16599     16601     16602
     16600     16599     16601     16603     16600     16599     16601     16613
     16601     16613     16616     16617     16601     16613     16616     16618
     16601     16613     16616     16619     16602     16601     16613     16614
     16602     16601     16613     16615     16602     16601     16613     16616
     16603     16601     16613     16614     16603     16601     16613     16615
     16603     16601     16613     16616     16604     16607     16608     16609
     16604     16607     16608     16610     16605     16604     16607     16608
     16606     16604     16607     16608     16607     16608     16610     16611
     16607     16608     16610     16612     16607     16608     16610     16660
     16608     16610     16660     16661     16608     16610     16660     16662
     16608     16610     16660     16663     16609     16608     16610     16611
     16609     16608     16610     16612     16609     16608     16610     16660
     16610     16660     16663     16664     16610     16660     16663     16665
     16610     16660     16663     16666     16611     16610     16660     16661
     16611     16610     16660     16662     16611     16610     16660     16663
     16612     16610     16660     16661     16612     16610     16660     16662
     16612     16610     16660     16663     16613     16616     16619     16620
     16613     16616     16619     16621     16613     16616     16619     16622
     16614     16613     16616     16617     16614     16613     16616     16618
     16614     16613     16616     16619     16615     16613     16616     16617
     16615     16613     16616     16618     16615     16613     16616     16619
     16616     16619     16622     16623     16616     16619     16622     16624
     16616     16619     16622     16625     16617     16616     16619     16620
     16617     16616     16619     16621     16617     16616     16619     16622
     16618     16616     16619     16620     16618     16616     16619     16621
     16618     16616     16619     16622     16619     16622     16625     16626
     16619     16622     16625     16627     16619     16622     16625     16628
     16620     16619     16622     16623     16620     16619     16622     16624
     16620     16619     16622     16625     16621     16619     16622     16623
     16621     16619     16622     16624     16621     16619     16622     16625
     16622     16625     16628     16629     16622     16625     16628     16630
     16622     16625     16628     16631     16623     16622     16625     16626
     16623     16622     16625     16627     16623     16622     16625     16628
     16624     16622     16625     16626     16624     16622     16625     16627
     16624     16622     16625     16628     16625     16628     16631     16632
     16625     16628     16631     16633     16626     16625     16628     16629
     16626     16625     16628     16630     16626     16625     16628     16631
     16627     16625     16628     16629     16627     16625     16628     16630
     16627     16625     16628     16631     16628     16631     16633     16634
     16628     16631     16633     16635     16629     16628     16631     16632
     16629     16628     16631     16633     16630     16628     16631     16632
     16630     16628     16631     16633     16631     16633     16635     16636
     16631     16633     16635     16637     16631     16633     16635     16638
     16632     16631     16633     16634     16632     16631     16633     16635
     16633     16635     16638     16639     16633     16635     16638     16640
     16633     16635     16638     16641     16634     16633     16635     16636
     16634     16633     16635     16637     16634     16633     16635     16638
     16635     16638     16641     16642     16635     16638     16641     16643
     16635     16638     16641     16644     16636     16635     16638     16639
     16636     16635     16638     16640     16636     16635     16638     16641
     16637     16635     16638     16639     16637     16635     16638     16640
     16637     16635     16638     16641     16638     16641     16644     16645
     16638     16641     16644     16646     16638     16641     16644     16647
     16639     16638     16641     16642     16639     16638     16641     16643
     16639     16638     16641     16644     16640     16638     16641     16642
     16640     16638     16641     16643     16640     16638     16641     16644
     16641     16644     16647     16648     16641     16644     16647     16649
     16641     16644     16647     16650     16642     16641     16644     16645
     16642     16641     16644     16646     16642     16641     16644     16647
     16643     16641     16644     16645     16643     16641     16644     16646
     16643     16641     16644     16647     16644     16647     16650     16651
     16644     16647     16650     16652     16644     16647     16650     16653
     16645     16644     16647     16648     16645     16644     16647     16649
     16645     16644     16647     16650     16646     16644     16647     16648
     16646     16644     16647     16649     16646     16644     16647     16650
     16647     16650     16653     16654     16647     16650     16653     16655
     16647     16650     16653     16656     16648     16647     16650     16651
     16648     16647     16650     16652     16648     16647     16650     16653
     16649     16647     16650     16651     16649     16647     16650     16652
     16649     16647     16650     16653     16650     16653     16656     16657
     16650     16653     16656     16658     16650     16653     16656     16659
     16651     16650     16653     16654     16651     16650     16653     16655
     16651     16650     16653     16656     16652     16650     16653     16654
     16652     16650     16653     16655     16652     16650     16653     16656
     16654     16653     16656     16657     16654     16653     16656     16658
     16654     16653     16656     16659     16655     16653     16656     16657
     16655     16653     16656     16658     16655     16653     16656     16659
     16660     16663     16666     16667     16660     16663     16666     16668
     16660     16663     16666     16669     16661     16660     16663     16664
     16661     16660     16663     16665     16661     16660     16663     16666
     16662     16660     16663     16664     16662     16660     16663     16665
     16662     16660     16663     16666     16663     16666     16669     16670
     16663     16666     16669     16671     16663     16666     16669     16672
     16664     16663     16666     16667     16664     16663     16666     16668
     16664     16663     16666     16669     16665     16663     16666     16667
     16665     16663     16666     16668     16665     16663     16666     16669
     16666     16669     16672     16673     16666     16669     16672     16674
     16666     16669     16672     16675     16667     16666     16669     16670
     16667     16666     16669     16671     16667     16666     16669     16672
     16668     16666     16669     16670     16668     16666     16669     16671
     16668     16666     16669     16672     16669     16672     16675     16676
     16669     16672     16675     16677     16669     16672     16675     16678
     16670     16669     16672     16673     16670     16669     16672     16674
     16670     16669     16672     16675     16671     16669     16672     16673
     16671     16669     16672     16674     16671     16669     16672     16675
     16672     16675     16678     16679     16672     16675     16678     16680
     16672     16675     16678     16681     16673     16672     16675     16676
     16673     16672     16675     16677     16673     16672     16675     16678
     16674     16672     16675     16676     16674     16672     16675     16677
     16674     16672     16675     16678     16675     16678     16681     16682
     16675     16678     16681     16683     16675     16678     16681     16684
     16676     16675     16678     16679     16676     16675     16678     16680
     16676     16675     16678     16681     16677     16675     16678     16679
     16677     16675     16678     16680     16677     16675     16678     16681
     16678     16681     16684     16685     16678     16681     16684     16686
     16678     16681     16684     16687     16679     16678     16681     16682
     16679     16678     16681     16683     16679     16678     16681     16684
     16680     16678     16681     16682     16680     16678     16681     16683
     16680     16678     16681     16684     16681     16684     16687     16688
     16681     16684     16687     16689     16681     16684     16687     16690
     16682     16681     16684     16685     16682     16681     16684     16686
     16682     16681     16684     16687     16683     16681     16684     16685
     16683     16681     16684     16686     16683     16681     16684     16687
     16684     16687     16690     16691     16684     16687     16690     16692
     16684     16687     16690     16693     16685     16684     16687     16688
     16685     16684     16687     16689     16685     16684     16687     16690
     16686     16684     16687     16688     16686     16684     16687     16689
     16686     16684     16687     16690     16687     16690     16693     16694
     16687     16690     16693     16695     16687     16690     16693     16696
     16688     16687     16690     16691     16688     16687     16690     16692
     16688     16687     16690     16693     16689     16687     16690     16691
     16689     16687     16690     16692     16689     16687     16690     16693
     16690     16693     16696     16697     16690     16693     16696     16698
     16690     16693     16696     16699     16691     16690     16693     16694
     16691     16690     16693     16695     16691     16690     16693     16696
     16692     16690     16693     16694     16692     16690     16693     16695
     16692     16690     16693     16696     16693     16696     16699     16700
     16693     16696     16699     16701     16693     16696     16699     16702
     16694     16693     16696     16697     16694     16693     16696     16698
     16694     16693     16696     16699     16695     16693     16696     16697
     16695     16693     16696     16698     16695     16693     16696     16699
     16697     16696     16699     16700     16697     16696     16699     16701
     16697     16696     16699     16702     16698     16696     16699     16700
     16698     16696     16699     16701     16698     16696     16699     16702
     16703     16707     16709     16710     16703     16707     16709     16711
     16703     16707     16712     16713     16703     16707     16712     16714
     16703     16707     16712     16718     16704     16703     16707     16708
     16704     16703     16707     16709     16704     16703     16707     16712
     16705     16703     16707     16708     16705     16703     16707     16709
     16705     16703     16707     16712     16706     16703     16707     16708
     16706     16703     16707     16709     16706     16703     16707     16712
     16707     16712     16718     16715     16708     16707     16709     16710
     16708     16707     16709     16711     16708     16707     16712     16713
     16708     16707     16712     16714     16708     16707     16712     16718
     16709     16707     16712     16713     16709     16707     16712     16714
     16709     16707     16712     16718     16710     16709     16707     16712
     16711     16709     16707     16712     16712     16718     16715     16716
     16712     16718     16715     16717     16712     16718     16715     16719
     16713     16712     16718     16715     16714     16712     16718     16715
     16715     16719     16720     16721     16715     16719     16720     16722
     16715     16719     16720     16723     16716     16715     16719     16720
     16717     16715     16719     16720     16718     16715     16719     16720
     16719     16720     16723     16724     16719     16720     16723     16725
     16719     16720     16723     16731     16720     16723     16725     16726
     16720     16723     16731     16732     16720     16723     16731     16733
     16720     16723     16731     16734     16721     16720     16723     16724
     16721     16720     16723     16725     16721     16720     16723     16731
     16722     16720     16723     16724     16722     16720     16723     16725
     16722     16720     16723     16731     16723     16725     16726     16727
     16723     16725     16726     16728     16723     16731     16734     16735
     16724     16723     16725     16726     16724     16723     16731     16732
     16724     16723     16731     16733     16724     16723     16731     16734
     16725     16723     16731     16732     16725     16723     16731     16733
     16725     16723     16731     16734     16725     16726     16728     16729
     16725     16726     16728     16730     16725     16726     16728     16740
     16726     16725     16723     16731     16726     16728     16740     16741
     16726     16728     16740     16742     16726     16728     16740     16743
     16727     16726     16728     16729     16727     16726     16728     16730
     16727     16726     16728     16740     16728     16740     16743     16744
     16728     16740     16743     16745     16728     16740     16743     16746
     16729     16728     16740     16741     16729     16728     16740     16742
     16729     16728     16740     16743     16730     16728     16740     16741
     16730     16728     16740     16742     16730     16728     16740     16743
     16731     16734     16735     16736     16731     16734     16735     16737
     16732     16731     16734     16735     16733     16731     16734     16735
     16734     16735     16737     16738     16734     16735     16737     16739
     16734     16735     16737     16787     16735     16737     16787     16788
     16735     16737     16787     16789     16735     16737     16787     16790
     16736     16735     16737     16738     16736     16735     16737     16739
     16736     16735     16737     16787     16737     16787     16790     16791
     16737     16787     16790     16792     16737     16787     16790     16793
     16738     16737     16787     16788     16738     16737     16787     16789
     16738     16737     16787     16790     16739     16737     16787     16788
     16739     16737     16787     16789     16739     16737     16787     16790
     16740     16743     16746     16747     16740     16743     16746     16748
     16740     16743     16746     16749     16741     16740     16743     16744
     16741     16740     16743     16745     16741     16740     16743     16746
     16742     16740     16743     16744     16742     16740     16743     16745
     16742     16740     16743     16746     16743     16746     16749     16750
     16743     16746     16749     16751     16743     16746     16749     16752
     16744     16743     16746     16747     16744     16743     16746     16748
     16744     16743     16746     16749     16745     16743     16746     16747
     16745     16743     16746     16748     16745     16743     16746     16749
     16746     16749     16752     16753     16746     16749     16752     16754
     16746     16749     16752     16755     16747     16746     16749     16750
     16747     16746     16749     16751     16747     16746     16749     16752
     16748     16746     16749     16750     16748     16746     16749     16751
     16748     16746     16749     16752     16749     16752     16755     16756
     16749     16752     16755     16757     16749     16752     16755     16758
     16750     16749     16752     16753     16750     16749     16752     16754
     16750     16749     16752     16755     16751     16749     16752     16753
     16751     16749     16752     16754     16751     16749     16752     16755
     16752     16755     16758     16759     16752     16755     16758     16760
     16753     16752     16755     16756     16753     16752     16755     16757
     16753     16752     16755     16758     16754     16752     16755     16756
     16754     16752     16755     16757     16754     16752     16755     16758
     16755     16758     16760     16761     16755     16758     16760     16762
     16756     16755     16758     16759     16756     16755     16758     16760
     16757     16755     16758     16759     16757     16755     16758     16760
     16758     16760     16762     16763     16758     16760     16762     16764
     16758     16760     16762     16765     16759     16758     16760     16761
     16759     16758     16760     16762     16760     16762     16765     16766
     16760     16762     16765     16767     16760     16762     16765     16768
     16761     16760     16762     16763     16761     16760     16762     16764
     16761     16760     16762     16765     16762     16765     16768     16769
     16762     16765     16768     16770     16762     16765     16768     16771
     16763     16762     16765     16766     16763     16762     16765     16767
     16763     16762     16765     16768     16764     16762     16765     16766
     16764     16762     16765     16767     16764     16762     16765     16768
     16765     16768     16771     16772     16765     16768     16771     16773
     16765     16768     16771     16774     16766     16765     16768     16769
     16766     16765     16768     16770     16766     16765     16768     16771
     16767     16765     16768     16769     16767     16765     16768     16770
     16767     16765     16768     16771     16768     16771     16774     16775
     16768     16771     16774     16776     16768     16771     16774     16777
     16769     16768     16771     16772     16769     16768     16771     16773
     16769     16768     16771     16774     16770     16768     16771     16772
     16770     16768     16771     16773     16770     16768     16771     16774
     16771     16774     16777     16778     16771     16774     16777     16779
     16771     16774     16777     16780     16772     16771     16774     16775
     16772     16771     16774     16776     16772     16771     16774     16777
     16773     16771     16774     16775     16773     16771     16774     16776
     16773     16771     16774     16777     16774     16777     16780     16781
     16774     16777     16780     16782     16774     16777     16780     16783
     16775     16774     16777     16778     16775     16774     16777     16779
     16775     16774     16777     16780     16776     16774     16777     16778
     16776     16774     16777     16779     16776     16774     16777     16780
     16777     16780     16783     16784     16777     16780     16783     16785
     16777     16780     16783     16786     16778     16777     16780     16781
     16778     16777     16780     16782     16778     16777     16780     16783
     16779     16777     16780     16781     16779     16777     16780     16782
     16779     16777     16780     16783     16781     16780     16783     16784
     16781     16780     16783     16785     16781     16780     16783     16786
     16782     16780     16783     16784     16782     16780     16783     16785
     16782     16780     16783     16786     16787     16790     16793     16794
     16787     16790     16793     16795     16787     16790     16793     16796
     16788     16787     16790     16791     16788     16787     16790     16792
     16788     16787     16790     16793     16789     16787     16790     16791
     16789     16787     16790     16792     16789     16787     16790     16793
     16790     16793     16796     16797     16790     16793     16796     16798
     16790     16793     16796     16799     16791     16790     16793     16794
     16791     16790     16793     16795     16791     16790     16793     16796
     16792     16790     16793     16794     16792     16790     16793     16795
     16792     16790     16793     16796     16793     16796     16799     16800
     16793     16796     16799     16801     16793     16796     16799     16802
     16794     16793     16796     16797     16794     16793     16796     16798
     16794     16793     16796     16799     16795     16793     16796     16797
     16795     16793     16796     16798     16795     16793     16796     16799
     16796     16799     16802     16803     16796     16799     16802     16804
     16796     16799     16802     16805     16797     16796     16799     16800
     16797     16796     16799     16801     16797     16796     16799     16802
     16798     16796     16799     16800     16798     16796     16799     16801
     16798     16796     16799     16802     16799     16802     16805     16806
     16799     16802     16805     16807     16799     16802     16805     16808
     16800     16799     16802     16803     16800     16799     16802     16804
     16800     16799     16802     16805     16801     16799     16802     16803
     16801     16799     16802     16804     16801     16799     16802     16805
     16802     16805     16808     16809     16802     16805     16808     16810
     16802     16805     16808     16811     16803     16802     16805     16806
     16803     16802     16805     16807     16803     16802     16805     16808
     16804     16802     16805     16806     16804     16802     16805     16807
     16804     16802     16805     16808     16805     16808     16811     16812
     16805     16808     16811     16813     16805     16808     16811     16814
     16806     16805     16808     16809     16806     16805     16808     16810
     16806     16805     16808     16811     16807     16805     16808     16809
     16807     16805     16808     16810     16807     16805     16808     16811
     16808     16811     16814     16815     16808     16811     16814     16816
     16808     16811     16814     16817     16809     16808     16811     16812
     16809     16808     16811     16813     16809     16808     16811     16814
     16810     16808     16811     16812     16810     16808     16811     16813
     16810     16808     16811     16814     16811     16814     16817     16818
     16811     16814     16817     16819     16811     16814     16817     16820
     16812     16811     16814     16815     16812     16811     16814     16816
     16812     16811     16814     16817     16813     16811     16814     16815
     16813     16811     16814     16816     16813     16811     16814     16817
     16814     16817     16820     16821     16814     16817     16820     16822
     16814     16817     16820     16823     16815     16814     16817     16818
     16815     16814     16817     16819     16815     16814     16817     16820
     16816     16814     16817     16818     16816     16814     16817     16819
     16816     16814     16817     16820     16817     16820     16823     16824
     16817     16820     16823     16825     16817     16820     16823     16826
     16818     16817     16820     16821     16818     16817     16820     16822
     16818     16817     16820     16823     16819     16817     16820     16821
     16819     16817     16820     16822     16819     16817     16820     16823
     16820     16823     16826     16827     16820     16823     16826     16828
     16820     16823     16826     16829     16821     16820     16823     16824
     16821     16820     16823     16825     16821     16820     16823     16826
     16822     16820     16823     16824     16822     16820     16823     16825
     16822     16820     16823     16826     16824     16823     16826     16827
     16824     16823     16826     16828     16824     16823     16826     16829
     16825     16823     16826     16827     16825     16823     16826     16828
     16825     16823     16826     16829     16830     16831     16846     16847
     16830     16831     16846     16848     16830     16831     16846     16852
     16831     16830     16834     16835     16831     16830     16834     16836
     16831     16830     16834     16837     16831     16830     16838     16839
     16831     16830     16838     16840     16831     16830     16838     16841
     16831     16830     16842     16843     16831     16830     16842     16844
     16831     16830     16842     16845     16831     16846     16852     16849
     16832     16831     16830     16834     16832     16831     16830     16838
     16832     16831     16830     16842     16832     16831     16846     16847
     16832     16831     16846     16848     16832     16831     16846     16852
     16833     16831     16830     16834     16833     16831     16830     16838
     16833     16831     16830     16842     16833     16831     16846     16847
     16833     16831     16846     16848     16833     16831     16846     16852
     16834     16830     16831     16846     16834     16830     16838     16839
     16834     16830     16838     16840     16834     16830     16838     16841
     16834     16830     16842     16843     16834     16830     16842     16844
     16834     16830     16842     16845     16835     16834     16830     16838
     16835     16834     16830     16842     16836     16834     16830     16838
     16836     16834     16830     16842     16837     16834     16830     16838
     16837     16834     16830     16842     16838     16830     16831     16846
     16838     16830     16842     16843     16838     16830     16842     16844
     16838     16830     16842     16845     16839     16838     16830     16842
     16840     16838     16830     16842     16841     16838     16830     16842
     16842     16830     16831     16846     16846     16852     16849     16850
     16846     16852     16849     16851     16846     16852     16849     16853
     16847     16846     16852     16849     16848     16846     16852     16849
     16849     16853     16854     16855     16849     16853     16854     16856
     16849     16853     16854     16857     16850     16849     16853     16854
     16851     16849     16853     16854     16852     16849     16853     16854
     16853     16854     16857     16858     16853     16854     16857     16859
     16853     16854     16857     16865     16854     16857     16859     16860
     16854     16857     16865     16866     16854     16857     16865     16867
     16854     16857     16865     16868     16855     16854     16857     16858
     16855     16854     16857     16859     16855     16854     16857     16865
     16856     16854     16857     16858     16856     16854     16857     16859
     16856     16854     16857     16865     16857     16859     16860     16861
     16857     16859     16860     16862     16857     16865     16868     16869
     16858     16857     16859     16860     16858     16857     16865     16866
     16858     16857     16865     16867     16858     16857     16865     16868
     16859     16857     16865     16866     16859     16857     16865     16867
     16859     16857     16865     16868     16859     16860     16862     16863
     16859     16860     16862     16864     16859     16860     16862     16874
     16860     16859     16857     16865     16860     16862     16874     16875
     16860     16862     16874     16876     16860     16862     16874     16877
     16861     16860     16862     16863     16861     16860     16862     16864
     16861     16860     16862     16874     16862     16874     16877     16878
     16862     16874     16877     16879     16862     16874     16877     16880
     16863     16862     16874     16875     16863     16862     16874     16876
     16863     16862     16874     16877     16864     16862     16874     16875
     16864     16862     16874     16876     16864     16862     16874     16877
     16865     16868     16869     16870     16865     16868     16869     16871
     16866     16865     16868     16869     16867     16865     16868     16869
     16868     16869     16871     16872     16868     16869     16871     16873
     16868     16869     16871     16921     16869     16871     16921     16922
     16869     16871     16921     16923     16869     16871     16921     16924
     16870     16869     16871     16872     16870     16869     16871     16873
     16870     16869     16871     16921     16871     16921     16924     16925
     16871     16921     16924     16926     16871     16921     16924     16927
     16872     16871     16921     16922     16872     16871     16921     16923
     16872     16871     16921     16924     16873     16871     16921     16922
     16873     16871     16921     16923     16873     16871     16921     16924
     16874     16877     16880     16881     16874     16877     16880     16882
     16874     16877     16880     16883     16875     16874     16877     16878
     16875     16874     16877     16879     16875     16874     16877     16880
     16876     16874     16877     16878     16876     16874     16877     16879
     16876     16874     16877     16880     16877     16880     16883     16884
     16877     16880     16883     16885     16877     16880     16883     16886
     16878     16877     16880     16881     16878     16877     16880     16882
     16878     16877     16880     16883     16879     16877     16880     16881
     16879     16877     16880     16882     16879     16877     16880     16883
     16880     16883     16886     16887     16880     16883     16886     16888
     16880     16883     16886     16889     16881     16880     16883     16884
     16881     16880     16883     16885     16881     16880     16883     16886
     16882     16880     16883     16884     16882     16880     16883     16885
     16882     16880     16883     16886     16883     16886     16889     16890
     16883     16886     16889     16891     16883     16886     16889     16892
     16884     16883     16886     16887     16884     16883     16886     16888
     16884     16883     16886     16889     16885     16883     16886     16887
     16885     16883     16886     16888     16885     16883     16886     16889
     16886     16889     16892     16893     16886     16889     16892     16894
     16887     16886     16889     16890     16887     16886     16889     16891
     16887     16886     16889     16892     16888     16886     16889     16890
     16888     16886     16889     16891     16888     16886     16889     16892
     16889     16892     16894     16895     16889     16892     16894     16896
     16890     16889     16892     16893     16890     16889     16892     16894
     16891     16889     16892     16893     16891     16889     16892     16894
     16892     16894     16896     16897     16892     16894     16896     16898
     16892     16894     16896     16899     16893     16892     16894     16895
     16893     16892     16894     16896     16894     16896     16899     16900
     16894     16896     16899     16901     16894     16896     16899     16902
     16895     16894     16896     16897     16895     16894     16896     16898
     16895     16894     16896     16899     16896     16899     16902     16903
     16896     16899     16902     16904     16896     16899     16902     16905
     16897     16896     16899     16900     16897     16896     16899     16901
     16897     16896     16899     16902     16898     16896     16899     16900
     16898     16896     16899     16901     16898     16896     16899     16902
     16899     16902     16905     16906     16899     16902     16905     16907
     16899     16902     16905     16908     16900     16899     16902     16903
     16900     16899     16902     16904     16900     16899     16902     16905
     16901     16899     16902     16903     16901     16899     16902     16904
     16901     16899     16902     16905     16902     16905     16908     16909
     16902     16905     16908     16910     16902     16905     16908     16911
     16903     16902     16905     16906     16903     16902     16905     16907
     16903     16902     16905     16908     16904     16902     16905     16906
     16904     16902     16905     16907     16904     16902     16905     16908
     16905     16908     16911     16912     16905     16908     16911     16913
     16905     16908     16911     16914     16906     16905     16908     16909
     16906     16905     16908     16910     16906     16905     16908     16911
     16907     16905     16908     16909     16907     16905     16908     16910
     16907     16905     16908     16911     16908     16911     16914     16915
     16908     16911     16914     16916     16908     16911     16914     16917
     16909     16908     16911     16912     16909     16908     16911     16913
     16909     16908     16911     16914     16910     16908     16911     16912
     16910     16908     16911     16913     16910     16908     16911     16914
     16911     16914     16917     16918     16911     16914     16917     16919
     16911     16914     16917     16920     16912     16911     16914     16915
     16912     16911     16914     16916     16912     16911     16914     16917
     16913     16911     16914     16915     16913     16911     16914     16916
     16913     16911     16914     16917     16915     16914     16917     16918
     16915     16914     16917     16919     16915     16914     16917     16920
     16916     16914     16917     16918     16916     16914     16917     16919
     16916     16914     16917     16920     16921     16924     16927     16928
     16921     16924     16927     16929     16921     16924     16927     16930
     16922     16921     16924     16925     16922     16921     16924     16926
     16922     16921     16924     16927     16923     16921     16924     16925
     16923     16921     16924     16926     16923     16921     16924     16927
     16924     16927     16930     16931     16924     16927     16930     16932
     16924     16927     16930     16933     16925     16924     16927     16928
     16925     16924     16927     16929     16925     16924     16927     16930
     16926     16924     16927     16928     16926     16924     16927     16929
     16926     16924     16927     16930     16927     16930     16933     16934
     16927     16930     16933     16935     16927     16930     16933     16936
     16928     16927     16930     16931     16928     16927     16930     16932
     16928     16927     16930     16933     16929     16927     16930     16931
     16929     16927     16930     16932     16929     16927     16930     16933
     16930     16933     16936     16937     16930     16933     16936     16938
     16930     16933     16936     16939     16931     16930     16933     16934
     16931     16930     16933     16935     16931     16930     16933     16936
     16932     16930     16933     16934     16932     16930     16933     16935
     16932     16930     16933     16936     16933     16936     16939     16940
     16933     16936     16939     16941     16933     16936     16939     16942
     16934     16933     16936     16937     16934     16933     16936     16938
     16934     16933     16936     16939     16935     16933     16936     16937
     16935     16933     16936     16938     16935     16933     16936     16939
     16936     16939     16942     16943     16936     16939     16942     16944
     16936     16939     16942     16945     16937     16936     16939     16940
     16937     16936     16939     16941     16937     16936     16939     16942
     16938     16936     16939     16940     16938     16936     16939     16941
     16938     16936     16939     16942     16939     16942     16945     16946
     16939     16942     16945     16947     16939     16942     16945     16948
     16940     16939     16942     16943     16940     16939     16942     16944
     16940     16939     16942     16945     16941     16939     16942     16943
     16941     16939     16942     16944     16941     16939     16942     16945
     16942     16945     16948     16949     16942     16945     16948     16950
     16942     16945     16948     16951     16943     16942     16945     16946
     16943     16942     16945     16947     16943     16942     16945     16948
     16944     16942     16945     16946     16944     16942     16945     16947
     16944     16942     16945     16948     16945     16948     16951     16952
     16945     16948     16951     16953     16945     16948     16951     16954
     16946     16945     16948     16949     16946     16945     16948     16950
     16946     16945     16948     16951     16947     16945     16948     16949
     16947     16945     16948     16950     16947     16945     16948     16951
     16948     16951     16954     16955     16948     16951     16954     16956
     16948     16951     16954     16957     16949     16948     16951     16952
     16949     16948     16951     16953     16949     16948     16951     16954
     16950     16948     16951     16952     16950     16948     16951     16953
     16950     16948     16951     16954     16951     16954     16957     16958
     16951     16954     16957     16959     16951     16954     16957     16960
     16952     16951     16954     16955     16952     16951     16954     16956
     16952     16951     16954     16957     16953     16951     16954     16955
     16953     16951     16954     16956     16953     16951     16954     16957
     16954     16957     16960     16961     16954     16957     16960     16962
     16954     16957     16960     16963     16955     16954     16957     16958
     16955     16954     16957     16959     16955     16954     16957     16960
     16956     16954     16957     16958     16956     16954     16957     16959
     16956     16954     16957     16960     16958     16957     16960     16961
     16958     16957     16960     16962     16958     16957     16960     16963
     16959     16957     16960     16961     16959     16957     16960     16962
     16959     16957     16960     16963     16964     16965     16980     16981
     16964     16965     16980     16982     16964     16965     16980     16986
     16965     16964     16968     16969     16965     16964     16968     16970
     16965     16964     16968     16971     16965     16964     16972     16973
     16965     16964     16972     16974     16965     16964     16972     16975
     16965     16964     16976     16977     16965     16964     16976     16978
     16965     16964     16976     16979     16965     16980     16986     16983
     16966     16965     16964     16968     16966     16965     16964     16972
     16966     16965     16964     16976     16966     16965     16980     16981
     16966     16965     16980     16982     16966     16965     16980     16986
     16967     16965     16964     16968     16967     16965     16964     16972
     16967     16965     16964     16976     16967     16965     16980     16981
     16967     16965     16980     16982     16967     16965     16980     16986
     16968     16964     16965     16980     16968     16964     16972     16973
     16968     16964     16972     16974     16968     16964     16972     16975
     16968     16964     16976     16977     16968     16964     16976     16978
     16968     16964     16976     16979     16969     16968     16964     16972
     16969     16968     16964     16976     16970     16968     16964     16972
     16970     16968     16964     16976     16971     16968     16964     16972
     16971     16968     16964     16976     16972     16964     16965     16980
     16972     16964     16976     16977     16972     16964     16976     16978
     16972     16964     16976     16979     16973     16972     16964     16976
     16974     16972     16964     16976     16975     16972     16964     16976
     16976     16964     16965     16980     16980     16986     16983     16984
     16980     16986     16983     16985     16980     16986     16983     16987
     16981     16980     16986     16983     16982     16980     16986     16983
     16983     16987     16988     16989     16983     16987     16988     16990
     16983     16987     16988     16991     16984     16983     16987     16988
     16985     16983     16987     16988     16986     16983     16987     16988
     16987     16988     16991     16992     16987     16988     16991     16993
     16987     16988     16991     16999     16988     16991     16993     16994
     16988     16991     16999     17000     16988     16991     16999     17001
     16988     16991     16999     17002     16989     16988     16991     16992
     16989     16988     16991     16993     16989     16988     16991     16999
     16990     16988     16991     16992     16990     16988     16991     16993
     16990     16988     16991     16999     16991     16993     16994     16995
     16991     16993     16994     16996     16991     16999     17002     17003
     16992     16991     16993     16994     16992     16991     16999     17000
     16992     16991     16999     17001     16992     16991     16999     17002
     16993     16991     16999     17000     16993     16991     16999     17001
     16993     16991     16999     17002     16993     16994     16996     16997
     16993     16994     16996     16998     16993     16994     16996     17008
     16994     16993     16991     16999     16994     16996     17008     17009
     16994     16996     17008     17010     16994     16996     17008     17011
     16995     16994     16996     16997     16995     16994     16996     16998
     16995     16994     16996     17008     16996     17008     17011     17012
     16996     17008     17011     17013     16996     17008     17011     17014
     16997     16996     17008     17009     16997     16996     17008     17010
     16997     16996     17008     17011     16998     16996     17008     17009
     16998     16996     17008     17010     16998     16996     17008     17011
     16999     17002     17003     17004     16999     17002     17003     17005
     17000     16999     17002     17003     17001     16999     17002     17003
     17002     17003     17005     17006     17002     17003     17005     17007
     17002     17003     17005     17055     17003     17005     17055     17056
     17003     17005     17055     17057     17003     17005     17055     17058
     17004     17003     17005     17006     17004     17003     17005     17007
     17004     17003     17005     17055     17005     17055     17058     17059
     17005     17055     17058     17060     17005     17055     17058     17061
     17006     17005     17055     17056     17006     17005     17055     17057
     17006     17005     17055     17058     17007     17005     17055     17056
     17007     17005     17055     17057     17007     17005     17055     17058
     17008     17011     17014     17015     17008     17011     17014     17016
     17008     17011     17014     17017     17009     17008     17011     17012
     17009     17008     17011     17013     17009     17008     17011     17014
     17010     17008     17011     17012     17010     17008     17011     17013
     17010     17008     17011     17014     17011     17014     17017     17018
     17011     17014     17017     17019     17011     17014     17017     17020
     17012     17011     17014     17015     17012     17011     17014     17016
     17012     17011     17014     17017     17013     17011     17014     17015
     17013     17011     17014     17016     17013     17011     17014     17017
     17014     17017     17020     17021     17014     17017     17020     17022
     17014     17017     17020     17023     17015     17014     17017     17018
     17015     17014     17017     17019     17015     17014     17017     17020
     17016     17014     17017     17018     17016     17014     17017     17019
     17016     17014     17017     17020     17017     17020     17023     17024
     17017     17020     17023     17025     17017     17020     17023     17026
     17018     17017     17020     17021     17018     17017     17020     17022
     17018     17017     17020     17023     17019     17017     17020     17021
     17019     17017     17020     17022     17019     17017     17020     17023
     17020     17023     17026     17027     17020     17023     17026     17028
     17021     17020     17023     17024     17021     17020     17023     17025
     17021     17020     17023     17026     17022     17020     17023     17024
     17022     17020     17023     17025     17022     17020     17023     17026
     17023     17026     17028     17029     17023     17026     17028     17030
     17024     17023     17026     17027     17024     17023     17026     17028
     17025     17023     17026     17027     17025     17023     17026     17028
     17026     17028     17030     17031     17026     17028     17030     17032
     17026     17028     17030     17033     17027     17026     17028     17029
     17027     17026     17028     17030     17028     17030     17033     17034
     17028     17030     17033     17035     17028     17030     17033     17036
     17029     17028     17030     17031     17029     17028     17030     17032
     17029     17028     17030     17033     17030     17033     17036     17037
     17030     17033     17036     17038     17030     17033     17036     17039
     17031     17030     17033     17034     17031     17030     17033     17035
     17031     17030     17033     17036     17032     17030     17033     17034
     17032     17030     17033     17035     17032     17030     17033     17036
     17033     17036     17039     17040     17033     17036     17039     17041
     17033     17036     17039     17042     17034     17033     17036     17037
     17034     17033     17036     17038     17034     17033     17036     17039
     17035     17033     17036     17037     17035     17033     17036     17038
     17035     17033     17036     17039     17036     17039     17042     17043
     17036     17039     17042     17044     17036     17039     17042     17045
     17037     17036     17039     17040     17037     17036     17039     17041
     17037     17036     17039     17042     17038     17036     17039     17040
     17038     17036     17039     17041     17038     17036     17039     17042
     17039     17042     17045     17046     17039     17042     17045     17047
     17039     17042     17045     17048     17040     17039     17042     17043
     17040     17039     17042     17044     17040     17039     17042     17045
     17041     17039     17042     17043     17041     17039     17042     17044
     17041     17039     17042     17045     17042     17045     17048     17049
     17042     17045     17048     17050     17042     17045     17048     17051
     17043     17042     17045     17046     17043     17042     17045     17047
     17043     17042     17045     17048     17044     17042     17045     17046
     17044     17042     17045     17047     17044     17042     17045     17048
     17045     17048     17051     17052     17045     17048     17051     17053
     17045     17048     17051     17054     17046     17045     17048     17049
     17046     17045     17048     17050     17046     17045     17048     17051
     17047     17045     17048     17049     17047     17045     17048     17050
     17047     17045     17048     17051     17049     17048     17051     17052
     17049     17048     17051     17053     17049     17048     17051     17054
     17050     17048     17051     17052     17050     17048     17051     17053
     17050     17048     17051     17054     17055     17058     17061     17062
     17055     17058     17061     17063     17055     17058     17061     17064
     17056     17055     17058     17059     17056     17055     17058     17060
     17056     17055     17058     17061     17057     17055     17058     17059
     17057     17055     17058     17060     17057     17055     17058     17061
     17058     17061     17064     17065     17058     17061     17064     17066
     17058     17061     17064     17067     17059     17058     17061     17062
     17059     17058     17061     17063     17059     17058     17061     17064
     17060     17058     17061     17062     17060     17058     17061     17063
     17060     17058     17061     17064     17061     17064     17067     17068
     17061     17064     17067     17069     17061     17064     17067     17070
     17062     17061     17064     17065     17062     17061     17064     17066
     17062     17061     17064     17067     17063     17061     17064     17065
     17063     17061     17064     17066     17063     17061     17064     17067
     17064     17067     17070     17071     17064     17067     17070     17072
     17064     17067     17070     17073     17065     17064     17067     17068
     17065     17064     17067     17069     17065     17064     17067     17070
     17066     17064     17067     17068     17066     17064     17067     17069
     17066     17064     17067     17070     17067     17070     17073     17074
     17067     17070     17073     17075     17067     17070     17073     17076
     17068     17067     17070     17071     17068     17067     17070     17072
     17068     17067     17070     17073     17069     17067     17070     17071
     17069     17067     17070     17072     17069     17067     17070     17073
     17070     17073     17076     17077     17070     17073     17076     17078
     17070     17073     17076     17079     17071     17070     17073     17074
     17071     17070     17073     17075     17071     17070     17073     17076
     17072     17070     17073     17074     17072     17070     17073     17075
     17072     17070     17073     17076     17073     17076     17079     17080
     17073     17076     17079     17081     17073     17076     17079     17082
     17074     17073     17076     17077     17074     17073     17076     17078
     17074     17073     17076     17079     17075     17073     17076     17077
     17075     17073     17076     17078     17075     17073     17076     17079
     17076     17079     17082     17083     17076     17079     17082     17084
     17076     17079     17082     17085     17077     17076     17079     17080
     17077     17076     17079     17081     17077     17076     17079     17082
     17078     17076     17079     17080     17078     17076     17079     17081
     17078     17076     17079     17082     17079     17082     17085     17086
     17079     17082     17085     17087     17079     17082     17085     17088
     17080     17079     17082     17083     17080     17079     17082     17084
     17080     17079     17082     17085     17081     17079     17082     17083
     17081     17079     17082     17084     17081     17079     17082     17085
     17082     17085     17088     17089     17082     17085     17088     17090
     17082     17085     17088     17091     17083     17082     17085     17086
     17083     17082     17085     17087     17083     17082     17085     17088
     17084     17082     17085     17086     17084     17082     17085     17087
     17084     17082     17085     17088     17085     17088     17091     17092
     17085     17088     17091     17093     17085     17088     17091     17094
     17086     17085     17088     17089     17086     17085     17088     17090
     17086     17085     17088     17091     17087     17085     17088     17089
     17087     17085     17088     17090     17087     17085     17088     17091
     17088     17091     17094     17095     17088     17091     17094     17096
     17088     17091     17094     17097     17089     17088     17091     17092
     17089     17088     17091     17093     17089     17088     17091     17094
     17090     17088     17091     17092     17090     17088     17091     17093
     17090     17088     17091     17094     17092     17091     17094     17095
     17092     17091     17094     17096     17092     17091     17094     17097
     17093     17091     17094     17095     17093     17091     17094     17096
     17093     17091     17094     17097     17098     17099     17114     17115
     17098     17099     17114     17116     17098     17099     17114     17120
     17099     17098     17102     17103     17099     17098     17102     17104
     17099     17098     17102     17105     17099     17098     17106     17107
     17099     17098     17106     17108     17099     17098     17106     17109
     17099     17098     17110     17111     17099     17098     17110     17112
     17099     17098     17110     17113     17099     17114     17120     17117
     17100     17099     17098     17102     17100     17099     17098     17106
     17100     17099     17098     17110     17100     17099     17114     17115
     17100     17099     17114     17116     17100     17099     17114     17120
     17101     17099     17098     17102     17101     17099     17098     17106
     17101     17099     17098     17110     17101     17099     17114     17115
     17101     17099     17114     17116     17101     17099     17114     17120
     17102     17098     17099     17114     17102     17098     17106     17107
     17102     17098     17106     17108     17102     17098     17106     17109
     17102     17098     17110     17111     17102     17098     17110     17112
     17102     17098     17110     17113     17103     17102     17098     17106
     17103     17102     17098     17110     17104     17102     17098     17106
     17104     17102     17098     17110     17105     17102     17098     17106
     17105     17102     17098     17110     17106     17098     17099     17114
     17106     17098     17110     17111     17106     17098     17110     17112
     17106     17098     17110     17113     17107     17106     17098     17110
     17108     17106     17098     17110     17109     17106     17098     17110
     17110     17098     17099     17114     17114     17120     17117     17118
     17114     17120     17117     17119     17114     17120     17117     17121
     17115     17114     17120     17117     17116     17114     17120     17117
     17117     17121     17122     17123     17117     17121     17122     17124
     17117     17121     17122     17125     17118     17117     17121     17122
     17119     17117     17121     17122     17120     17117     17121     17122
     17121     17122     17125     17126     17121     17122     17125     17127
     17121     17122     17125     17133     17122     17125     17127     17128
     17122     17125     17133     17134     17122     17125     17133     17135
     17122     17125     17133     17136     17123     17122     17125     17126
     17123     17122     17125     17127     17123     17122     17125     17133
     17124     17122     17125     17126     17124     17122     17125     17127
     17124     17122     17125     17133     17125     17127     17128     17129
     17125     17127     17128     17130     17125     17133     17136     17137
     17126     17125     17127     17128     17126     17125     17133     17134
     17126     17125     17133     17135     17126     17125     17133     17136
     17127     17125     17133     17134     17127     17125     17133     17135
     17127     17125     17133     17136     17127     17128     17130     17131
     17127     17128     17130     17132     17127     17128     17130     17142
     17128     17127     17125     17133     17128     17130     17142     17143
     17128     17130     17142     17144     17128     17130     17142     17145
     17129     17128     17130     17131     17129     17128     17130     17132
     17129     17128     17130     17142     17130     17142     17145     17146
     17130     17142     17145     17147     17130     17142     17145     17148
     17131     17130     17142     17143     17131     17130     17142     17144
     17131     17130     17142     17145     17132     17130     17142     17143
     17132     17130     17142     17144     17132     17130     17142     17145
     17133     17136     17137     17138     17133     17136     17137     17139
     17134     17133     17136     17137     17135     17133     17136     17137
     17136     17137     17139     17140     17136     17137     17139     17141
     17136     17137     17139     17189     17137     17139     17189     17190
     17137     17139     17189     17191     17137     17139     17189     17192
     17138     17137     17139     17140     17138     17137     17139     17141
     17138     17137     17139     17189     17139     17189     17192     17193
     17139     17189     17192     17194     17139     17189     17192     17195
     17140     17139     17189     17190     17140     17139     17189     17191
     17140     17139     17189     17192     17141     17139     17189     17190
     17141     17139     17189     17191     17141     17139     17189     17192
     17142     17145     17148     17149     17142     17145     17148     17150
     17142     17145     17148     17151     17143     17142     17145     17146
     17143     17142     17145     17147     17143     17142     17145     17148
     17144     17142     17145     17146     17144     17142     17145     17147
     17144     17142     17145     17148     17145     17148     17151     17152
     17145     17148     17151     17153     17145     17148     17151     17154
     17146     17145     17148     17149     17146     17145     17148     17150
     17146     17145     17148     17151     17147     17145     17148     17149
     17147     17145     17148     17150     17147     17145     17148     17151
     17148     17151     17154     17155     17148     17151     17154     17156
     17148     17151     17154     17157     17149     17148     17151     17152
     17149     17148     17151     17153     17149     17148     17151     17154
     17150     17148     17151     17152     17150     17148     17151     17153
     17150     17148     17151     17154     17151     17154     17157     17158
     17151     17154     17157     17159     17151     17154     17157     17160
     17152     17151     17154     17155     17152     17151     17154     17156
     17152     17151     17154     17157     17153     17151     17154     17155
     17153     17151     17154     17156     17153     17151     17154     17157
     17154     17157     17160     17161     17154     17157     17160     17162
     17155     17154     17157     17158     17155     17154     17157     17159
     17155     17154     17157     17160     17156     17154     17157     17158
     17156     17154     17157     17159     17156     17154     17157     17160
     17157     17160     17162     17163     17157     17160     17162     17164
     17158     17157     17160     17161     17158     17157     17160     17162
     17159     17157     17160     17161     17159     17157     17160     17162
     17160     17162     17164     17165     17160     17162     17164     17166
     17160     17162     17164     17167     17161     17160     17162     17163
     17161     17160     17162     17164     17162     17164     17167     17168
     17162     17164     17167     17169     17162     17164     17167     17170
     17163     17162     17164     17165     17163     17162     17164     17166
     17163     17162     17164     17167     17164     17167     17170     17171
     17164     17167     17170     17172     17164     17167     17170     17173
     17165     17164     17167     17168     17165     17164     17167     17169
     17165     17164     17167     17170     17166     17164     17167     17168
     17166     17164     17167     17169     17166     17164     17167     17170
     17167     17170     17173     17174     17167     17170     17173     17175
     17167     17170     17173     17176     17168     17167     17170     17171
     17168     17167     17170     17172     17168     17167     17170     17173
     17169     17167     17170     17171     17169     17167     17170     17172
     17169     17167     17170     17173     17170     17173     17176     17177
     17170     17173     17176     17178     17170     17173     17176     17179
     17171     17170     17173     17174     17171     17170     17173     17175
     17171     17170     17173     17176     17172     17170     17173     17174
     17172     17170     17173     17175     17172     17170     17173     17176
     17173     17176     17179     17180     17173     17176     17179     17181
     17173     17176     17179     17182     17174     17173     17176     17177
     17174     17173     17176     17178     17174     17173     17176     17179
     17175     17173     17176     17177     17175     17173     17176     17178
     17175     17173     17176     17179     17176     17179     17182     17183
     17176     17179     17182     17184     17176     17179     17182     17185
     17177     17176     17179     17180     17177     17176     17179     17181
     17177     17176     17179     17182     17178     17176     17179     17180
     17178     17176     17179     17181     17178     17176     17179     17182
     17179     17182     17185     17186     17179     17182     17185     17187
     17179     17182     17185     17188     17180     17179     17182     17183
     17180     17179     17182     17184     17180     17179     17182     17185
     17181     17179     17182     17183     17181     17179     17182     17184
     17181     17179     17182     17185     17183     17182     17185     17186
     17183     17182     17185     17187     17183     17182     17185     17188
     17184     17182     17185     17186     17184     17182     17185     17187
     17184     17182     17185     17188     17189     17192     17195     17196
     17189     17192     17195     17197     17189     17192     17195     17198
     17190     17189     17192     17193     17190     17189     17192     17194
     17190     17189     17192     17195     17191     17189     17192     17193
     17191     17189     17192     17194     17191     17189     17192     17195
     17192     17195     17198     17199     17192     17195     17198     17200
     17192     17195     17198     17201     17193     17192     17195     17196
     17193     17192     17195     17197     17193     17192     17195     17198
     17194     17192     17195     17196     17194     17192     17195     17197
     17194     17192     17195     17198     17195     17198     17201     17202
     17195     17198     17201     17203     17195     17198     17201     17204
     17196     17195     17198     17199     17196     17195     17198     17200
     17196     17195     17198     17201     17197     17195     17198     17199
     17197     17195     17198     17200     17197     17195     17198     17201
     17198     17201     17204     17205     17198     17201     17204     17206
     17198     17201     17204     17207     17199     17198     17201     17202
     17199     17198     17201     17203     17199     17198     17201     17204
     17200     17198     17201     17202     17200     17198     17201     17203
     17200     17198     17201     17204     17201     17204     17207     17208
     17201     17204     17207     17209     17201     17204     17207     17210
     17202     17201     17204     17205     17202     17201     17204     17206
     17202     17201     17204     17207     17203     17201     17204     17205
     17203     17201     17204     17206     17203     17201     17204     17207
     17204     17207     17210     17211     17204     17207     17210     17212
     17204     17207     17210     17213     17205     17204     17207     17208
     17205     17204     17207     17209     17205     17204     17207     17210
     17206     17204     17207     17208     17206     17204     17207     17209
     17206     17204     17207     17210     17207     17210     17213     17214
     17207     17210     17213     17215     17207     17210     17213     17216
     17208     17207     17210     17211     17208     17207     17210     17212
     17208     17207     17210     17213     17209     17207     17210     17211
     17209     17207     17210     17212     17209     17207     17210     17213
     17210     17213     17216     17217     17210     17213     17216     17218
     17210     17213     17216     17219     17211     17210     17213     17214
     17211     17210     17213     17215     17211     17210     17213     17216
     17212     17210     17213     17214     17212     17210     17213     17215
     17212     17210     17213     17216     17213     17216     17219     17220
     17213     17216     17219     17221     17213     17216     17219     17222
     17214     17213     17216     17217     17214     17213     17216     17218
     17214     17213     17216     17219     17215     17213     17216     17217
     17215     17213     17216     17218     17215     17213     17216     17219
     17216     17219     17222     17223     17216     17219     17222     17224
     17216     17219     17222     17225     17217     17216     17219     17220
     17217     17216     17219     17221     17217     17216     17219     17222
     17218     17216     17219     17220     17218     17216     17219     17221
     17218     17216     17219     17222     17219     17222     17225     17226
     17219     17222     17225     17227     17219     17222     17225     17228
     17220     17219     17222     17223     17220     17219     17222     17224
     17220     17219     17222     17225     17221     17219     17222     17223
     17221     17219     17222     17224     17221     17219     17222     17225
     17222     17225     17228     17229     17222     17225     17228     17230
     17222     17225     17228     17231     17223     17222     17225     17226
     17223     17222     17225     17227     17223     17222     17225     17228
     17224     17222     17225     17226     17224     17222     17225     17227
     17224     17222     17225     17228     17226     17225     17228     17229
     17226     17225     17228     17230     17226     17225     17228     17231
     17227     17225     17228     17229     17227     17225     17228     17230
     17227     17225     17228     17231     17232     17236     17238     17239
     17232     17236     17238     17240     17232     17236     17241     17242
     17232     17236     17241     17243     17232     17236     17241     17247
     17233     17232     17236     17237     17233     17232     17236     17238
     17233     17232     17236     17241     17234     17232     17236     17237
     17234     17232     17236     17238     17234     17232     17236     17241
     17235     17232     17236     17237     17235     17232     17236     17238
     17235     17232     17236     17241     17236     17241     17247     17244
     17237     17236     17238     17239     17237     17236     17238     17240
     17237     17236     17241     17242     17237     17236     17241     17243
     17237     17236     17241     17247     17238     17236     17241     17242
     17238     17236     17241     17243     17238     17236     17241     17247
     17239     17238     17236     17241     17240     17238     17236     17241
     17241     17247     17244     17245     17241     17247     17244     17246
     17241     17247     17244     17248     17242     17241     17247     17244
     17243     17241     17247     17244     17244     17248     17249     17250
     17244     17248     17249     17251     17244     17248     17249     17252
     17245     17244     17248     17249     17246     17244     17248     17249
     17247     17244     17248     17249     17248     17249     17252     17253
     17248     17249     17252     17254     17248     17249     17252     17260
     17249     17252     17254     17255     17249     17252     17260     17261
     17249     17252     17260     17262     17249     17252     17260     17263
     17250     17249     17252     17253     17250     17249     17252     17254
     17250     17249     17252     17260     17251     17249     17252     17253
     17251     17249     17252     17254     17251     17249     17252     17260
     17252     17254     17255     17256     17252     17254     17255     17257
     17252     17260     17263     17264     17253     17252     17254     17255
     17253     17252     17260     17261     17253     17252     17260     17262
     17253     17252     17260     17263     17254     17252     17260     17261
     17254     17252     17260     17262     17254     17252     17260     17263
     17254     17255     17257     17258     17254     17255     17257     17259
     17254     17255     17257     17269     17255     17254     17252     17260
     17255     17257     17269     17270     17255     17257     17269     17271
     17255     17257     17269     17272     17256     17255     17257     17258
     17256     17255     17257     17259     17256     17255     17257     17269
     17257     17269     17272     17273     17257     17269     17272     17274
     17257     17269     17272     17275     17258     17257     17269     17270
     17258     17257     17269     17271     17258     17257     17269     17272
     17259     17257     17269     17270     17259     17257     17269     17271
     17259     17257     17269     17272     17260     17263     17264     17265
     17260     17263     17264     17266     17261     17260     17263     17264
     17262     17260     17263     17264     17263     17264     17266     17267
     17263     17264     17266     17268     17263     17264     17266     17316
     17264     17266     17316     17317     17264     17266     17316     17318
     17264     17266     17316     17319     17265     17264     17266     17267
     17265     17264     17266     17268     17265     17264     17266     17316
     17266     17316     17319     17320     17266     17316     17319     17321
     17266     17316     17319     17322     17267     17266     17316     17317
     17267     17266     17316     17318     17267     17266     17316     17319
     17268     17266     17316     17317     17268     17266     17316     17318
     17268     17266     17316     17319     17269     17272     17275     17276
     17269     17272     17275     17277     17269     17272     17275     17278
     17270     17269     17272     17273     17270     17269     17272     17274
     17270     17269     17272     17275     17271     17269     17272     17273
     17271     17269     17272     17274     17271     17269     17272     17275
     17272     17275     17278     17279     17272     17275     17278     17280
     17272     17275     17278     17281     17273     17272     17275     17276
     17273     17272     17275     17277     17273     17272     17275     17278
     17274     17272     17275     17276     17274     17272     17275     17277
     17274     17272     17275     17278     17275     17278     17281     17282
     17275     17278     17281     17283     17275     17278     17281     17284
     17276     17275     17278     17279     17276     17275     17278     17280
     17276     17275     17278     17281     17277     17275     17278     17279
     17277     17275     17278     17280     17277     17275     17278     17281
     17278     17281     17284     17285     17278     17281     17284     17286
     17278     17281     17284     17287     17279     17278     17281     17282
     17279     17278     17281     17283     17279     17278     17281     17284
     17280     17278     17281     17282     17280     17278     17281     17283
     17280     17278     17281     17284     17281     17284     17287     17288
     17281     17284     17287     17289     17282     17281     17284     17285
     17282     17281     17284     17286     17282     17281     17284     17287
     17283     17281     17284     17285     17283     17281     17284     17286
     17283     17281     17284     17287     17284     17287     17289     17290
     17284     17287     17289     17291     17285     17284     17287     17288
     17285     17284     17287     17289     17286     17284     17287     17288
     17286     17284     17287     17289     17287     17289     17291     17292
     17287     17289     17291     17293     17287     17289     17291     17294
     17288     17287     17289     17290     17288     17287     17289     17291
     17289     17291     17294     17295     17289     17291     17294     17296
     17289     17291     17294     17297     17290     17289     17291     17292
     17290     17289     17291     17293     17290     17289     17291     17294
     17291     17294     17297     17298     17291     17294     17297     17299
     17291     17294     17297     17300     17292     17291     17294     17295
     17292     17291     17294     17296     17292     17291     17294     17297
     17293     17291     17294     17295     17293     17291     17294     17296
     17293     17291     17294     17297     17294     17297     17300     17301
     17294     17297     17300     17302     17294     17297     17300     17303
     17295     17294     17297     17298     17295     17294     17297     17299
     17295     17294     17297     17300     17296     17294     17297     17298
     17296     17294     17297     17299     17296     17294     17297     17300
     17297     17300     17303     17304     17297     17300     17303     17305
     17297     17300     17303     17306     17298     17297     17300     17301
     17298     17297     17300     17302     17298     17297     17300     17303
     17299     17297     17300     17301     17299     17297     17300     17302
     17299     17297     17300     17303     17300     17303     17306     17307
     17300     17303     17306     17308     17300     17303     17306     17309
     17301     17300     17303     17304     17301     17300     17303     17305
     17301     17300     17303     17306     17302     17300     17303     17304
     17302     17300     17303     17305     17302     17300     17303     17306
     17303     17306     17309     17310     17303     17306     17309     17311
     17303     17306     17309     17312     17304     17303     17306     17307
     17304     17303     17306     17308     17304     17303     17306     17309
     17305     17303     17306     17307     17305     17303     17306     17308
     17305     17303     17306     17309     17306     17309     17312     17313
     17306     17309     17312     17314     17306     17309     17312     17315
     17307     17306     17309     17310     17307     17306     17309     17311
     17307     17306     17309     17312     17308     17306     17309     17310
     17308     17306     17309     17311     17308     17306     17309     17312
     17310     17309     17312     17313     17310     17309     17312     17314
     17310     17309     17312     17315     17311     17309     17312     17313
     17311     17309     17312     17314     17311     17309     17312     17315
     17316     17319     17322     17323     17316     17319     17322     17324
     17316     17319     17322     17325     17317     17316     17319     17320
     17317     17316     17319     17321     17317     17316     17319     17322
     17318     17316     17319     17320     17318     17316     17319     17321
     17318     17316     17319     17322     17319     17322     17325     17326
     17319     17322     17325     17327     17319     17322     17325     17328
     17320     17319     17322     17323     17320     17319     17322     17324
     17320     17319     17322     17325     17321     17319     17322     17323
     17321     17319     17322     17324     17321     17319     17322     17325
     17322     17325     17328     17329     17322     17325     17328     17330
     17322     17325     17328     17331     17323     17322     17325     17326
     17323     17322     17325     17327     17323     17322     17325     17328
     17324     17322     17325     17326     17324     17322     17325     17327
     17324     17322     17325     17328     17325     17328     17331     17332
     17325     17328     17331     17333     17325     17328     17331     17334
     17326     17325     17328     17329     17326     17325     17328     17330
     17326     17325     17328     17331     17327     17325     17328     17329
     17327     17325     17328     17330     17327     17325     17328     17331
     17328     17331     17334     17335     17328     17331     17334     17336
     17328     17331     17334     17337     17329     17328     17331     17332
     17329     17328     17331     17333     17329     17328     17331     17334
     17330     17328     17331     17332     17330     17328     17331     17333
     17330     17328     17331     17334     17331     17334     17337     17338
     17331     17334     17337     17339     17331     17334     17337     17340
     17332     17331     17334     17335     17332     17331     17334     17336
     17332     17331     17334     17337     17333     17331     17334     17335
     17333     17331     17334     17336     17333     17331     17334     17337
     17334     17337     17340     17341     17334     17337     17340     17342
     17334     17337     17340     17343     17335     17334     17337     17338
     17335     17334     17337     17339     17335     17334     17337     17340
     17336     17334     17337     17338     17336     17334     17337     17339
     17336     17334     17337     17340     17337     17340     17343     17344
     17337     17340     17343     17345     17337     17340     17343     17346
     17338     17337     17340     17341     17338     17337     17340     17342
     17338     17337     17340     17343     17339     17337     17340     17341
     17339     17337     17340     17342     17339     17337     17340     17343
     17340     17343     17346     17347     17340     17343     17346     17348
     17340     17343     17346     17349     17341     17340     17343     17344
     17341     17340     17343     17345     17341     17340     17343     17346
     17342     17340     17343     17344     17342     17340     17343     17345
     17342     17340     17343     17346     17343     17346     17349     17350
     17343     17346     17349     17351     17343     17346     17349     17352
     17344     17343     17346     17347     17344     17343     17346     17348
     17344     17343     17346     17349     17345     17343     17346     17347
     17345     17343     17346     17348     17345     17343     17346     17349
     17346     17349     17352     17353     17346     17349     17352     17354
     17346     17349     17352     17355     17347     17346     17349     17350
     17347     17346     17349     17351     17347     17346     17349     17352
     17348     17346     17349     17350     17348     17346     17349     17351
     17348     17346     17349     17352     17349     17352     17355     17356
     17349     17352     17355     17357     17349     17352     17355     17358
     17350     17349     17352     17353     17350     17349     17352     17354
     17350     17349     17352     17355     17351     17349     17352     17353
     17351     17349     17352     17354     17351     17349     17352     17355
     17353     17352     17355     17356     17353     17352     17355     17357
     17353     17352     17355     17358     17354     17352     17355     17356
     17354     17352     17355     17357     17354     17352     17355     17358
     17359     17360     17375     17376     17359     17360     17375     17377
     17359     17360     17375     17381     17360     17359     17363     17364
     17360     17359     17363     17365     17360     17359     17363     17366
     17360     17359     17367     17368     17360     17359     17367     17369
     17360     17359     17367     17370     17360     17359     17371     17372
     17360     17359     17371     17373     17360     17359     17371     17374
     17360     17375     17381     17378     17361     17360     17359     17363
     17361     17360     17359     17367     17361     17360     17359     17371
     17361     17360     17375     17376     17361     17360     17375     17377
     17361     17360     17375     17381     17362     17360     17359     17363
     17362     17360     17359     17367     17362     17360     17359     17371
     17362     17360     17375     17376     17362     17360     17375     17377
     17362     17360     17375     17381     17363     17359     17360     17375
     17363     17359     17367     17368     17363     17359     17367     17369
     17363     17359     17367     17370     17363     17359     17371     17372
     17363     17359     17371     17373     17363     17359     17371     17374
     17364     17363     17359     17367     17364     17363     17359     17371
     17365     17363     17359     17367     17365     17363     17359     17371
     17366     17363     17359     17367     17366     17363     17359     17371
     17367     17359     17360     17375     17367     17359     17371     17372
     17367     17359     17371     17373     17367     17359     17371     17374
     17368     17367     17359     17371     17369     17367     17359     17371
     17370     17367     17359     17371     17371     17359     17360     17375
     17375     17381     17378     17379     17375     17381     17378     17380
     17375     17381     17378     17382     17376     17375     17381     17378
     17377     17375     17381     17378     17378     17382     17383     17384
     17378     17382     17383     17385     17378     17382     17383     17386
     17379     17378     17382     17383     17380     17378     17382     17383
     17381     17378     17382     17383     17382     17383     17386     17387
     17382     17383     17386     17388     17382     17383     17386     17394
     17383     17386     17388     17389     17383     17386     17394     17395
     17383     17386     17394     17396     17383     17386     17394     17397
     17384     17383     17386     17387     17384     17383     17386     17388
     17384     17383     17386     17394     17385     17383     17386     17387
     17385     17383     17386     17388     17385     17383     17386     17394
     17386     17388     17389     17390     17386     17388     17389     17391
     17386     17394     17397     17398     17387     17386     17388     17389
     17387     17386     17394     17395     17387     17386     17394     17396
     17387     17386     17394     17397     17388     17386     17394     17395
     17388     17386     17394     17396     17388     17386     17394     17397
     17388     17389     17391     17392     17388     17389     17391     17393
     17388     17389     17391     17403     17389     17388     17386     17394
     17389     17391     17403     17404     17389     17391     17403     17405
     17389     17391     17403     17406     17390     17389     17391     17392
     17390     17389     17391     17393     17390     17389     17391     17403
     17391     17403     17406     17407     17391     17403     17406     17408
     17391     17403     17406     17409     17392     17391     17403     17404
     17392     17391     17403     17405     17392     17391     17403     17406
     17393     17391     17403     17404     17393     17391     17403     17405
     17393     17391     17403     17406     17394     17397     17398     17399
     17394     17397     17398     17400     17395     17394     17397     17398
     17396     17394     17397     17398     17397     17398     17400     17401
     17397     17398     17400     17402     17397     17398     17400     17450
     17398     17400     17450     17451     17398     17400     17450     17452
     17398     17400     17450     17453     17399     17398     17400     17401
     17399     17398     17400     17402     17399     17398     17400     17450
     17400     17450     17453     17454     17400     17450     17453     17455
     17400     17450     17453     17456     17401     17400     17450     17451
     17401     17400     17450     17452     17401     17400     17450     17453
     17402     17400     17450     17451     17402     17400     17450     17452
     17402     17400     17450     17453     17403     17406     17409     17410
     17403     17406     17409     17411     17403     17406     17409     17412
     17404     17403     17406     17407     17404     17403     17406     17408
     17404     17403     17406     17409     17405     17403     17406     17407
     17405     17403     17406     17408     17405     17403     17406     17409
     17406     17409     17412     17413     17406     17409     17412     17414
     17406     17409     17412     17415     17407     17406     17409     17410
     17407     17406     17409     17411     17407     17406     17409     17412
     17408     17406     17409     17410     17408     17406     17409     17411
     17408     17406     17409     17412     17409     17412     17415     17416
     17409     17412     17415     17417     17409     17412     17415     17418
     17410     17409     17412     17413     17410     17409     17412     17414
     17410     17409     17412     17415     17411     17409     17412     17413
     17411     17409     17412     17414     17411     17409     17412     17415
     17412     17415     17418     17419     17412     17415     17418     17420
     17412     17415     17418     17421     17413     17412     17415     17416
     17413     17412     17415     17417     17413     17412     17415     17418
     17414     17412     17415     17416     17414     17412     17415     17417
     17414     17412     17415     17418     17415     17418     17421     17422
     17415     17418     17421     17423     17416     17415     17418     17419
     17416     17415     17418     17420     17416     17415     17418     17421
     17417     17415     17418     17419     17417     17415     17418     17420
     17417     17415     17418     17421     17418     17421     17423     17424
     17418     17421     17423     17425     17419     17418     17421     17422
     17419     17418     17421     17423     17420     17418     17421     17422
     17420     17418     17421     17423     17421     17423     17425     17426
     17421     17423     17425     17427     17421     17423     17425     17428
     17422     17421     17423     17424     17422     17421     17423     17425
     17423     17425     17428     17429     17423     17425     17428     17430
     17423     17425     17428     17431     17424     17423     17425     17426
     17424     17423     17425     17427     17424     17423     17425     17428
     17425     17428     17431     17432     17425     17428     17431     17433
     17425     17428     17431     17434     17426     17425     17428     17429
     17426     17425     17428     17430     17426     17425     17428     17431
     17427     17425     17428     17429     17427     17425     17428     17430
     17427     17425     17428     17431     17428     17431     17434     17435
     17428     17431     17434     17436     17428     17431     17434     17437
     17429     17428     17431     17432     17429     17428     17431     17433
     17429     17428     17431     17434     17430     17428     17431     17432
     17430     17428     17431     17433     17430     17428     17431     17434
     17431     17434     17437     17438     17431     17434     17437     17439
     17431     17434     17437     17440     17432     17431     17434     17435
     17432     17431     17434     17436     17432     17431     17434     17437
     17433     17431     17434     17435     17433     17431     17434     17436
     17433     17431     17434     17437     17434     17437     17440     17441
     17434     17437     17440     17442     17434     17437     17440     17443
     17435     17434     17437     17438     17435     17434     17437     17439
     17435     17434     17437     17440     17436     17434     17437     17438
     17436     17434     17437     17439     17436     17434     17437     17440
     17437     17440     17443     17444     17437     17440     17443     17445
     17437     17440     17443     17446     17438     17437     17440     17441
     17438     17437     17440     17442     17438     17437     17440     17443
     17439     17437     17440     17441     17439     17437     17440     17442
     17439     17437     17440     17443     17440     17443     17446     17447
     17440     17443     17446     17448     17440     17443     17446     17449
     17441     17440     17443     17444     17441     17440     17443     17445
     17441     17440     17443     17446     17442     17440     17443     17444
     17442     17440     17443     17445     17442     17440     17443     17446
     17444     17443     17446     17447     17444     17443     17446     17448
     17444     17443     17446     17449     17445     17443     17446     17447
     17445     17443     17446     17448     17445     17443     17446     17449
     17450     17453     17456     17457     17450     17453     17456     17458
     17450     17453     17456     17459     17451     17450     17453     17454
     17451     17450     17453     17455     17451     17450     17453     17456
     17452     17450     17453     17454     17452     17450     17453     17455
     17452     17450     17453     17456     17453     17456     17459     17460
     17453     17456     17459     17461     17453     17456     17459     17462
     17454     17453     17456     17457     17454     17453     17456     17458
     17454     17453     17456     17459     17455     17453     17456     17457
     17455     17453     17456     17458     17455     17453     17456     17459
     17456     17459     17462     17463     17456     17459     17462     17464
     17456     17459     17462     17465     17457     17456     17459     17460
     17457     17456     17459     17461     17457     17456     17459     17462
     17458     17456     17459     17460     17458     17456     17459     17461
     17458     17456     17459     17462     17459     17462     17465     17466
     17459     17462     17465     17467     17459     17462     17465     17468
     17460     17459     17462     17463     17460     17459     17462     17464
     17460     17459     17462     17465     17461     17459     17462     17463
     17461     17459     17462     17464     17461     17459     17462     17465
     17462     17465     17468     17469     17462     17465     17468     17470
     17462     17465     17468     17471     17463     17462     17465     17466
     17463     17462     17465     17467     17463     17462     17465     17468
     17464     17462     17465     17466     17464     17462     17465     17467
     17464     17462     17465     17468     17465     17468     17471     17472
     17465     17468     17471     17473     17465     17468     17471     17474
     17466     17465     17468     17469     17466     17465     17468     17470
     17466     17465     17468     17471     17467     17465     17468     17469
     17467     17465     17468     17470     17467     17465     17468     17471
     17468     17471     17474     17475     17468     17471     17474     17476
     17468     17471     17474     17477     17469     17468     17471     17472
     17469     17468     17471     17473     17469     17468     17471     17474
     17470     17468     17471     17472     17470     17468     17471     17473
     17470     17468     17471     17474     17471     17474     17477     17478
     17471     17474     17477     17479     17471     17474     17477     17480
     17472     17471     17474     17475     17472     17471     17474     17476
     17472     17471     17474     17477     17473     17471     17474     17475
     17473     17471     17474     17476     17473     17471     17474     17477
     17474     17477     17480     17481     17474     17477     17480     17482
     17474     17477     17480     17483     17475     17474     17477     17478
     17475     17474     17477     17479     17475     17474     17477     17480
     17476     17474     17477     17478     17476     17474     17477     17479
     17476     17474     17477     17480     17477     17480     17483     17484
     17477     17480     17483     17485     17477     17480     17483     17486
     17478     17477     17480     17481     17478     17477     17480     17482
     17478     17477     17480     17483     17479     17477     17480     17481
     17479     17477     17480     17482     17479     17477     17480     17483
     17480     17483     17486     17487     17480     17483     17486     17488
     17480     17483     17486     17489     17481     17480     17483     17484
     17481     17480     17483     17485     17481     17480     17483     17486
     17482     17480     17483     17484     17482     17480     17483     17485
     17482     17480     17483     17486     17483     17486     17489     17490
     17483     17486     17489     17491     17483     17486     17489     17492
     17484     17483     17486     17487     17484     17483     17486     17488
     17484     17483     17486     17489     17485     17483     17486     17487
     17485     17483     17486     17488     17485     17483     17486     17489
     17487     17486     17489     17490     17487     17486     17489     17491
     17487     17486     17489     17492     17488     17486     17489     17490
     17488     17486     17489     17491     17488     17486     17489     17492
     17493     17497     17499     17500     17493     17497     17499     17501
     17493     17497     17502     17503     17493     17497     17502     17504
     17493     17497     17502     17508     17494     17493     17497     17498
     17494     17493     17497     17499     17494     17493     17497     17502
     17495     17493     17497     17498     17495     17493     17497     17499
     17495     17493     17497     17502     17496     17493     17497     17498
     17496     17493     17497     17499     17496     17493     17497     17502
     17497     17502     17508     17505     17498     17497     17499     17500
     17498     17497     17499     17501     17498     17497     17502     17503
     17498     17497     17502     17504     17498     17497     17502     17508
     17499     17497     17502     17503     17499     17497     17502     17504
     17499     17497     17502     17508     17500     17499     17497     17502
     17501     17499     17497     17502     17502     17508     17505     17506
     17502     17508     17505     17507     17502     17508     17505     17509
     17503     17502     17508     17505     17504     17502     17508     17505
     17505     17509     17510     17511     17505     17509     17510     17512
     17505     17509     17510     17513     17506     17505     17509     17510
     17507     17505     17509     17510     17508     17505     17509     17510
     17509     17510     17513     17514     17509     17510     17513     17515
     17509     17510     17513     17521     17510     17513     17515     17516
     17510     17513     17521     17522     17510     17513     17521     17523
     17510     17513     17521     17524     17511     17510     17513     17514
     17511     17510     17513     17515     17511     17510     17513     17521
     17512     17510     17513     17514     17512     17510     17513     17515
     17512     17510     17513     17521     17513     17515     17516     17517
     17513     17515     17516     17518     17513     17521     17524     17525
     17514     17513     17515     17516     17514     17513     17521     17522
     17514     17513     17521     17523     17514     17513     17521     17524
     17515     17513     17521     17522     17515     17513     17521     17523
     17515     17513     17521     17524     17515     17516     17518     17519
     17515     17516     17518     17520     17515     17516     17518     17530
     17516     17515     17513     17521     17516     17518     17530     17531
     17516     17518     17530     17532     17516     17518     17530     17533
     17517     17516     17518     17519     17517     17516     17518     17520
     17517     17516     17518     17530     17518     17530     17533     17534
     17518     17530     17533     17535     17518     17530     17533     17536
     17519     17518     17530     17531     17519     17518     17530     17532
     17519     17518     17530     17533     17520     17518     17530     17531
     17520     17518     17530     17532     17520     17518     17530     17533
     17521     17524     17525     17526     17521     17524     17525     17527
     17522     17521     17524     17525     17523     17521     17524     17525
     17524     17525     17527     17528     17524     17525     17527     17529
     17524     17525     17527     17577     17525     17527     17577     17578
     17525     17527     17577     17579     17525     17527     17577     17580
     17526     17525     17527     17528     17526     17525     17527     17529
     17526     17525     17527     17577     17527     17577     17580     17581
     17527     17577     17580     17582     17527     17577     17580     17583
     17528     17527     17577     17578     17528     17527     17577     17579
     17528     17527     17577     17580     17529     17527     17577     17578
     17529     17527     17577     17579     17529     17527     17577     17580
     17530     17533     17536     17537     17530     17533     17536     17538
     17530     17533     17536     17539     17531     17530     17533     17534
     17531     17530     17533     17535     17531     17530     17533     17536
     17532     17530     17533     17534     17532     17530     17533     17535
     17532     17530     17533     17536     17533     17536     17539     17540
     17533     17536     17539     17541     17533     17536     17539     17542
     17534     17533     17536     17537     17534     17533     17536     17538
     17534     17533     17536     17539     17535     17533     17536     17537
     17535     17533     17536     17538     17535     17533     17536     17539
     17536     17539     17542     17543     17536     17539     17542     17544
     17536     17539     17542     17545     17537     17536     17539     17540
     17537     17536     17539     17541     17537     17536     17539     17542
     17538     17536     17539     17540     17538     17536     17539     17541
     17538     17536     17539     17542     17539     17542     17545     17546
     17539     17542     17545     17547     17539     17542     17545     17548
     17540     17539     17542     17543     17540     17539     17542     17544
     17540     17539     17542     17545     17541     17539     17542     17543
     17541     17539     17542     17544     17541     17539     17542     17545
     17542     17545     17548     17549     17542     17545     17548     17550
     17543     17542     17545     17546     17543     17542     17545     17547
     17543     17542     17545     17548     17544     17542     17545     17546
     17544     17542     17545     17547     17544     17542     17545     17548
     17545     17548     17550     17551     17545     17548     17550     17552
     17546     17545     17548     17549     17546     17545     17548     17550
     17547     17545     17548     17549     17547     17545     17548     17550
     17548     17550     17552     17553     17548     17550     17552     17554
     17548     17550     17552     17555     17549     17548     17550     17551
     17549     17548     17550     17552     17550     17552     17555     17556
     17550     17552     17555     17557     17550     17552     17555     17558
     17551     17550     17552     17553     17551     17550     17552     17554
     17551     17550     17552     17555     17552     17555     17558     17559
     17552     17555     17558     17560     17552     17555     17558     17561
     17553     17552     17555     17556     17553     17552     17555     17557
     17553     17552     17555     17558     17554     17552     17555     17556
     17554     17552     17555     17557     17554     17552     17555     17558
     17555     17558     17561     17562     17555     17558     17561     17563
     17555     17558     17561     17564     17556     17555     17558     17559
     17556     17555     17558     17560     17556     17555     17558     17561
     17557     17555     17558     17559     17557     17555     17558     17560
     17557     17555     17558     17561     17558     17561     17564     17565
     17558     17561     17564     17566     17558     17561     17564     17567
     17559     17558     17561     17562     17559     17558     17561     17563
     17559     17558     17561     17564     17560     17558     17561     17562
     17560     17558     17561     17563     17560     17558     17561     17564
     17561     17564     17567     17568     17561     17564     17567     17569
     17561     17564     17567     17570     17562     17561     17564     17565
     17562     17561     17564     17566     17562     17561     17564     17567
     17563     17561     17564     17565     17563     17561     17564     17566
     17563     17561     17564     17567     17564     17567     17570     17571
     17564     17567     17570     17572     17564     17567     17570     17573
     17565     17564     17567     17568     17565     17564     17567     17569
     17565     17564     17567     17570     17566     17564     17567     17568
     17566     17564     17567     17569     17566     17564     17567     17570
     17567     17570     17573     17574     17567     17570     17573     17575
     17567     17570     17573     17576     17568     17567     17570     17571
     17568     17567     17570     17572     17568     17567     17570     17573
     17569     17567     17570     17571     17569     17567     17570     17572
     17569     17567     17570     17573     17571     17570     17573     17574
     17571     17570     17573     17575     17571     17570     17573     17576
     17572     17570     17573     17574     17572     17570     17573     17575
     17572     17570     17573     17576     17577     17580     17583     17584
     17577     17580     17583     17585     17577     17580     17583     17586
     17578     17577     17580     17581     17578     17577     17580     17582
     17578     17577     17580     17583     17579     17577     17580     17581
     17579     17577     17580     17582     17579     17577     17580     17583
     17580     17583     17586     17587     17580     17583     17586     17588
     17580     17583     17586     17589     17581     17580     17583     17584
     17581     17580     17583     17585     17581     17580     17583     17586
     17582     17580     17583     17584     17582     17580     17583     17585
     17582     17580     17583     17586     17583     17586     17589     17590
     17583     17586     17589     17591     17583     17586     17589     17592
     17584     17583     17586     17587     17584     17583     17586     17588
     17584     17583     17586     17589     17585     17583     17586     17587
     17585     17583     17586     17588     17585     17583     17586     17589
     17586     17589     17592     17593     17586     17589     17592     17594
     17586     17589     17592     17595     17587     17586     17589     17590
     17587     17586     17589     17591     17587     17586     17589     17592
     17588     17586     17589     17590     17588     17586     17589     17591
     17588     17586     17589     17592     17589     17592     17595     17596
     17589     17592     17595     17597     17589     17592     17595     17598
     17590     17589     17592     17593     17590     17589     17592     17594
     17590     17589     17592     17595     17591     17589     17592     17593
     17591     17589     17592     17594     17591     17589     17592     17595
     17592     17595     17598     17599     17592     17595     17598     17600
     17592     17595     17598     17601     17593     17592     17595     17596
     17593     17592     17595     17597     17593     17592     17595     17598
     17594     17592     17595     17596     17594     17592     17595     17597
     17594     17592     17595     17598     17595     17598     17601     17602
     17595     17598     17601     17603     17595     17598     17601     17604
     17596     17595     17598     17599     17596     17595     17598     17600
     17596     17595     17598     17601     17597     17595     17598     17599
     17597     17595     17598     17600     17597     17595     17598     17601
     17598     17601     17604     17605     17598     17601     17604     17606
     17598     17601     17604     17607     17599     17598     17601     17602
     17599     17598     17601     17603     17599     17598     17601     17604
     17600     17598     17601     17602     17600     17598     17601     17603
     17600     17598     17601     17604     17601     17604     17607     17608
     17601     17604     17607     17609     17601     17604     17607     17610
     17602     17601     17604     17605     17602     17601     17604     17606
     17602     17601     17604     17607     17603     17601     17604     17605
     17603     17601     17604     17606     17603     17601     17604     17607
     17604     17607     17610     17611     17604     17607     17610     17612
     17604     17607     17610     17613     17605     17604     17607     17608
     17605     17604     17607     17609     17605     17604     17607     17610
     17606     17604     17607     17608     17606     17604     17607     17609
     17606     17604     17607     17610     17607     17610     17613     17614
     17607     17610     17613     17615     17607     17610     17613     17616
     17608     17607     17610     17611     17608     17607     17610     17612
     17608     17607     17610     17613     17609     17607     17610     17611
     17609     17607     17610     17612     17609     17607     17610     17613
     17610     17613     17616     17617     17610     17613     17616     17618
     17610     17613     17616     17619     17611     17610     17613     17614
     17611     17610     17613     17615     17611     17610     17613     17616
     17612     17610     17613     17614     17612     17610     17613     17615
     17612     17610     17613     17616     17614     17613     17616     17617
     17614     17613     17616     17618     17614     17613     17616     17619
     17615     17613     17616     17617     17615     17613     17616     17618
     17615     17613     17616     17619     17620     17621     17636     17637
     17620     17621     17636     17638     17620     17621     17636     17642
     17621     17620     17624     17625     17621     17620     17624     17626
     17621     17620     17624     17627     17621     17620     17628     17629
     17621     17620     17628     17630     17621     17620     17628     17631
     17621     17620     17632     17633     17621     17620     17632     17634
     17621     17620     17632     17635     17621     17636     17642     17639
     17622     17621     17620     17624     17622     17621     17620     17628
     17622     17621     17620     17632     17622     17621     17636     17637
     17622     17621     17636     17638     17622     17621     17636     17642
     17623     17621     17620     17624     17623     17621     17620     17628
     17623     17621     17620     17632     17623     17621     17636     17637
     17623     17621     17636     17638     17623     17621     17636     17642
     17624     17620     17621     17636     17624     17620     17628     17629
     17624     17620     17628     17630     17624     17620     17628     17631
     17624     17620     17632     17633     17624     17620     17632     17634
     17624     17620     17632     17635     17625     17624     17620     17628
     17625     17624     17620     17632     17626     17624     17620     17628
     17626     17624     17620     17632     17627     17624     17620     17628
     17627     17624     17620     17632     17628     17620     17621     17636
     17628     17620     17632     17633     17628     17620     17632     17634
     17628     17620     17632     17635     17629     17628     17620     17632
     17630     17628     17620     17632     17631     17628     17620     17632
     17632     17620     17621     17636     17636     17642     17639     17640
     17636     17642     17639     17641     17636     17642     17639     17643
     17637     17636     17642     17639     17638     17636     17642     17639
     17639     17643     17644     17645     17639     17643     17644     17646
     17639     17643     17644     17647     17640     17639     17643     17644
     17641     17639     17643     17644     17642     17639     17643     17644
     17643     17644     17647     17648     17643     17644     17647     17649
     17643     17644     17647     17655     17644     17647     17649     17650
     17644     17647     17655     17656     17644     17647     17655     17657
     17644     17647     17655     17658     17645     17644     17647     17648
     17645     17644     17647     17649     17645     17644     17647     17655
     17646     17644     17647     17648     17646     17644     17647     17649
     17646     17644     17647     17655     17647     17649     17650     17651
     17647     17649     17650     17652     17647     17655     17658     17659
     17648     17647     17649     17650     17648     17647     17655     17656
     17648     17647     17655     17657     17648     17647     17655     17658
     17649     17647     17655     17656     17649     17647     17655     17657
     17649     17647     17655     17658     17649     17650     17652     17653
     17649     17650     17652     17654     17649     17650     17652     17664
     17650     17649     17647     17655     17650     17652     17664     17665
     17650     17652     17664     17666     17650     17652     17664     17667
     17651     17650     17652     17653     17651     17650     17652     17654
     17651     17650     17652     17664     17652     17664     17667     17668
     17652     17664     17667     17669     17652     17664     17667     17670
     17653     17652     17664     17665     17653     17652     17664     17666
     17653     17652     17664     17667     17654     17652     17664     17665
     17654     17652     17664     17666     17654     17652     17664     17667
     17655     17658     17659     17660     17655     17658     17659     17661
     17656     17655     17658     17659     17657     17655     17658     17659
     17658     17659     17661     17662     17658     17659     17661     17663
     17658     17659     17661     17711     17659     17661     17711     17712
     17659     17661     17711     17713     17659     17661     17711     17714
     17660     17659     17661     17662     17660     17659     17661     17663
     17660     17659     17661     17711     17661     17711     17714     17715
     17661     17711     17714     17716     17661     17711     17714     17717
     17662     17661     17711     17712     17662     17661     17711     17713
     17662     17661     17711     17714     17663     17661     17711     17712
     17663     17661     17711     17713     17663     17661     17711     17714
     17664     17667     17670     17671     17664     17667     17670     17672
     17664     17667     17670     17673     17665     17664     17667     17668
     17665     17664     17667     17669     17665     17664     17667     17670
     17666     17664     17667     17668     17666     17664     17667     17669
     17666     17664     17667     17670     17667     17670     17673     17674
     17667     17670     17673     17675     17667     17670     17673     17676
     17668     17667     17670     17671     17668     17667     17670     17672
     17668     17667     17670     17673     17669     17667     17670     17671
     17669     17667     17670     17672     17669     17667     17670     17673
     17670     17673     17676     17677     17670     17673     17676     17678
     17670     17673     17676     17679     17671     17670     17673     17674
     17671     17670     17673     17675     17671     17670     17673     17676
     17672     17670     17673     17674     17672     17670     17673     17675
     17672     17670     17673     17676     17673     17676     17679     17680
     17673     17676     17679     17681     17673     17676     17679     17682
     17674     17673     17676     17677     17674     17673     17676     17678
     17674     17673     17676     17679     17675     17673     17676     17677
     17675     17673     17676     17678     17675     17673     17676     17679
     17676     17679     17682     17683     17676     17679     17682     17684
     17677     17676     17679     17680     17677     17676     17679     17681
     17677     17676     17679     17682     17678     17676     17679     17680
     17678     17676     17679     17681     17678     17676     17679     17682
     17679     17682     17684     17685     17679     17682     17684     17686
     17680     17679     17682     17683     17680     17679     17682     17684
     17681     17679     17682     17683     17681     17679     17682     17684
     17682     17684     17686     17687     17682     17684     17686     17688
     17682     17684     17686     17689     17683     17682     17684     17685
     17683     17682     17684     17686     17684     17686     17689     17690
     17684     17686     17689     17691     17684     17686     17689     17692
     17685     17684     17686     17687     17685     17684     17686     17688
     17685     17684     17686     17689     17686     17689     17692     17693
     17686     17689     17692     17694     17686     17689     17692     17695
     17687     17686     17689     17690     17687     17686     17689     17691
     17687     17686     17689     17692     17688     17686     17689     17690
     17688     17686     17689     17691     17688     17686     17689     17692
     17689     17692     17695     17696     17689     17692     17695     17697
     17689     17692     17695     17698     17690     17689     17692     17693
     17690     17689     17692     17694     17690     17689     17692     17695
     17691     17689     17692     17693     17691     17689     17692     17694
     17691     17689     17692     17695     17692     17695     17698     17699
     17692     17695     17698     17700     17692     17695     17698     17701
     17693     17692     17695     17696     17693     17692     17695     17697
     17693     17692     17695     17698     17694     17692     17695     17696
     17694     17692     17695     17697     17694     17692     17695     17698
     17695     17698     17701     17702     17695     17698     17701     17703
     17695     17698     17701     17704     17696     17695     17698     17699
     17696     17695     17698     17700     17696     17695     17698     17701
     17697     17695     17698     17699     17697     17695     17698     17700
     17697     17695     17698     17701     17698     17701     17704     17705
     17698     17701     17704     17706     17698     17701     17704     17707
     17699     17698     17701     17702     17699     17698     17701     17703
     17699     17698     17701     17704     17700     17698     17701     17702
     17700     17698     17701     17703     17700     17698     17701     17704
     17701     17704     17707     17708     17701     17704     17707     17709
     17701     17704     17707     17710     17702     17701     17704     17705
     17702     17701     17704     17706     17702     17701     17704     17707
     17703     17701     17704     17705     17703     17701     17704     17706
     17703     17701     17704     17707     17705     17704     17707     17708
     17705     17704     17707     17709     17705     17704     17707     17710
     17706     17704     17707     17708     17706     17704     17707     17709
     17706     17704     17707     17710     17711     17714     17717     17718
     17711     17714     17717     17719     17711     17714     17717     17720
     17712     17711     17714     17715     17712     17711     17714     17716
     17712     17711     17714     17717     17713     17711     17714     17715
     17713     17711     17714     17716     17713     17711     17714     17717
     17714     17717     17720     17721     17714     17717     17720     17722
     17714     17717     17720     17723     17715     17714     17717     17718
     17715     17714     17717     17719     17715     17714     17717     17720
     17716     17714     17717     17718     17716     17714     17717     17719
     17716     17714     17717     17720     17717     17720     17723     17724
     17717     17720     17723     17725     17717     17720     17723     17726
     17718     17717     17720     17721     17718     17717     17720     17722
     17718     17717     17720     17723     17719     17717     17720     17721
     17719     17717     17720     17722     17719     17717     17720     17723
     17720     17723     17726     17727     17720     17723     17726     17728
     17720     17723     17726     17729     17721     17720     17723     17724
     17721     17720     17723     17725     17721     17720     17723     17726
     17722     17720     17723     17724     17722     17720     17723     17725
     17722     17720     17723     17726     17723     17726     17729     17730
     17723     17726     17729     17731     17723     17726     17729     17732
     17724     17723     17726     17727     17724     17723     17726     17728
     17724     17723     17726     17729     17725     17723     17726     17727
     17725     17723     17726     17728     17725     17723     17726     17729
     17726     17729     17732     17733     17726     17729     17732     17734
     17726     17729     17732     17735     17727     17726     17729     17730
     17727     17726     17729     17731     17727     17726     17729     17732
     17728     17726     17729     17730     17728     17726     17729     17731
     17728     17726     17729     17732     17729     17732     17735     17736
     17729     17732     17735     17737     17729     17732     17735     17738
     17730     17729     17732     17733     17730     17729     17732     17734
     17730     17729     17732     17735     17731     17729     17732     17733
     17731     17729     17732     17734     17731     17729     17732     17735
     17732     17735     17738     17739     17732     17735     17738     17740
     17732     17735     17738     17741     17733     17732     17735     17736
     17733     17732     17735     17737     17733     17732     17735     17738
     17734     17732     17735     17736     17734     17732     17735     17737
     17734     17732     17735     17738     17735     17738     17741     17742
     17735     17738     17741     17743     17735     17738     17741     17744
     17736     17735     17738     17739     17736     17735     17738     17740
     17736     17735     17738     17741     17737     17735     17738     17739
     17737     17735     17738     17740     17737     17735     17738     17741
     17738     17741     17744     17745     17738     17741     17744     17746
     17738     17741     17744     17747     17739     17738     17741     17742
     17739     17738     17741     17743     17739     17738     17741     17744
     17740     17738     17741     17742     17740     17738     17741     17743
     17740     17738     17741     17744     17741     17744     17747     17748
     17741     17744     17747     17749     17741     17744     17747     17750
     17742     17741     17744     17745     17742     17741     17744     17746
     17742     17741     17744     17747     17743     17741     17744     17745
     17743     17741     17744     17746     17743     17741     17744     17747
     17744     17747     17750     17751     17744     17747     17750     17752
     17744     17747     17750     17753     17745     17744     17747     17748
     17745     17744     17747     17749     17745     17744     17747     17750
     17746     17744     17747     17748     17746     17744     17747     17749
     17746     17744     17747     17750     17748     17747     17750     17751
     17748     17747     17750     17752     17748     17747     17750     17753
     17749     17747     17750     17751     17749     17747     17750     17752
     17749     17747     17750     17753     17754     17755     17770     17771
     17754     17755     17770     17772     17754     17755     17770     17776
     17755     17754     17758     17759     17755     17754     17758     17760
     17755     17754     17758     17761     17755     17754     17762     17763
     17755     17754     17762     17764     17755     17754     17762     17765
     17755     17754     17766     17767     17755     17754     17766     17768
     17755     17754     17766     17769     17755     17770     17776     17773
     17756     17755     17754     17758     17756     17755     17754     17762
     17756     17755     17754     17766     17756     17755     17770     17771
     17756     17755     17770     17772     17756     17755     17770     17776
     17757     17755     17754     17758     17757     17755     17754     17762
     17757     17755     17754     17766     17757     17755     17770     17771
     17757     17755     17770     17772     17757     17755     17770     17776
     17758     17754     17755     17770     17758     17754     17762     17763
     17758     17754     17762     17764     17758     17754     17762     17765
     17758     17754     17766     17767     17758     17754     17766     17768
     17758     17754     17766     17769     17759     17758     17754     17762
     17759     17758     17754     17766     17760     17758     17754     17762
     17760     17758     17754     17766     17761     17758     17754     17762
     17761     17758     17754     17766     17762     17754     17755     17770
     17762     17754     17766     17767     17762     17754     17766     17768
     17762     17754     17766     17769     17763     17762     17754     17766
     17764     17762     17754     17766     17765     17762     17754     17766
     17766     17754     17755     17770     17770     17776     17773     17774
     17770     17776     17773     17775     17770     17776     17773     17777
     17771     17770     17776     17773     17772     17770     17776     17773
     17773     17777     17778     17779     17773     17777     17778     17780
     17773     17777     17778     17781     17774     17773     17777     17778
     17775     17773     17777     17778     17776     17773     17777     17778
     17777     17778     17781     17782     17777     17778     17781     17783
     17777     17778     17781     17789     17778     17781     17783     17784
     17778     17781     17789     17790     17778     17781     17789     17791
     17778     17781     17789     17792     17779     17778     17781     17782
     17779     17778     17781     17783     17779     17778     17781     17789
     17780     17778     17781     17782     17780     17778     17781     17783
     17780     17778     17781     17789     17781     17783     17784     17785
     17781     17783     17784     17786     17781     17789     17792     17793
     17782     17781     17783     17784     17782     17781     17789     17790
     17782     17781     17789     17791     17782     17781     17789     17792
     17783     17781     17789     17790     17783     17781     17789     17791
     17783     17781     17789     17792     17783     17784     17786     17787
     17783     17784     17786     17788     17783     17784     17786     17798
     17784     17783     17781     17789     17784     17786     17798     17799
     17784     17786     17798     17800     17784     17786     17798     17801
     17785     17784     17786     17787     17785     17784     17786     17788
     17785     17784     17786     17798     17786     17798     17801     17802
     17786     17798     17801     17803     17786     17798     17801     17804
     17787     17786     17798     17799     17787     17786     17798     17800
     17787     17786     17798     17801     17788     17786     17798     17799
     17788     17786     17798     17800     17788     17786     17798     17801
     17789     17792     17793     17794     17789     17792     17793     17795
     17790     17789     17792     17793     17791     17789     17792     17793
     17792     17793     17795     17796     17792     17793     17795     17797
     17792     17793     17795     17845     17793     17795     17845     17846
     17793     17795     17845     17847     17793     17795     17845     17848
     17794     17793     17795     17796     17794     17793     17795     17797
     17794     17793     17795     17845     17795     17845     17848     17849
     17795     17845     17848     17850     17795     17845     17848     17851
     17796     17795     17845     17846     17796     17795     17845     17847
     17796     17795     17845     17848     17797     17795     17845     17846
     17797     17795     17845     17847     17797     17795     17845     17848
     17798     17801     17804     17805     17798     17801     17804     17806
     17798     17801     17804     17807     17799     17798     17801     17802
     17799     17798     17801     17803     17799     17798     17801     17804
     17800     17798     17801     17802     17800     17798     17801     17803
     17800     17798     17801     17804     17801     17804     17807     17808
     17801     17804     17807     17809     17801     17804     17807     17810
     17802     17801     17804     17805     17802     17801     17804     17806
     17802     17801     17804     17807     17803     17801     17804     17805
     17803     17801     17804     17806     17803     17801     17804     17807
     17804     17807     17810     17811     17804     17807     17810     17812
     17804     17807     17810     17813     17805     17804     17807     17808
     17805     17804     17807     17809     17805     17804     17807     17810
     17806     17804     17807     17808     17806     17804     17807     17809
     17806     17804     17807     17810     17807     17810     17813     17814
     17807     17810     17813     17815     17807     17810     17813     17816
     17808     17807     17810     17811     17808     17807     17810     17812
     17808     17807     17810     17813     17809     17807     17810     17811
     17809     17807     17810     17812     17809     17807     17810     17813
     17810     17813     17816     17817     17810     17813     17816     17818
     17811     17810     17813     17814     17811     17810     17813     17815
     17811     17810     17813     17816     17812     17810     17813     17814
     17812     17810     17813     17815     17812     17810     17813     17816
     17813     17816     17818     17819     17813     17816     17818     17820
     17814     17813     17816     17817     17814     17813     17816     17818
     17815     17813     17816     17817     17815     17813     17816     17818
     17816     17818     17820     17821     17816     17818     17820     17822
     17816     17818     17820     17823     17817     17816     17818     17819
     17817     17816     17818     17820     17818     17820     17823     17824
     17818     17820     17823     17825     17818     17820     17823     17826
     17819     17818     17820     17821     17819     17818     17820     17822
     17819     17818     17820     17823     17820     17823     17826     17827
     17820     17823     17826     17828     17820     17823     17826     17829
     17821     17820     17823     17824     17821     17820     17823     17825
     17821     17820     17823     17826     17822     17820     17823     17824
     17822     17820     17823     17825     17822     17820     17823     17826
     17823     17826     17829     17830     17823     17826     17829     17831
     17823     17826     17829     17832     17824     17823     17826     17827
     17824     17823     17826     17828     17824     17823     17826     17829
     17825     17823     17826     17827     17825     17823     17826     17828
     17825     17823     17826     17829     17826     17829     17832     17833
     17826     17829     17832     17834     17826     17829     17832     17835
     17827     17826     17829     17830     17827     17826     17829     17831
     17827     17826     17829     17832     17828     17826     17829     17830
     17828     17826     17829     17831     17828     17826     17829     17832
     17829     17832     17835     17836     17829     17832     17835     17837
     17829     17832     17835     17838     17830     17829     17832     17833
     17830     17829     17832     17834     17830     17829     17832     17835
     17831     17829     17832     17833     17831     17829     17832     17834
     17831     17829     17832     17835     17832     17835     17838     17839
     17832     17835     17838     17840     17832     17835     17838     17841
     17833     17832     17835     17836     17833     17832     17835     17837
     17833     17832     17835     17838     17834     17832     17835     17836
     17834     17832     17835     17837     17834     17832     17835     17838
     17835     17838     17841     17842     17835     17838     17841     17843
     17835     17838     17841     17844     17836     17835     17838     17839
     17836     17835     17838     17840     17836     17835     17838     17841
     17837     17835     17838     17839     17837     17835     17838     17840
     17837     17835     17838     17841     17839     17838     17841     17842
     17839     17838     17841     17843     17839     17838     17841     17844
     17840     17838     17841     17842     17840     17838     17841     17843
     17840     17838     17841     17844     17845     17848     17851     17852
     17845     17848     17851     17853     17845     17848     17851     17854
     17846     17845     17848     17849     17846     17845     17848     17850
     17846     17845     17848     17851     17847     17845     17848     17849
     17847     17845     17848     17850     17847     17845     17848     17851
     17848     17851     17854     17855     17848     17851     17854     17856
     17848     17851     17854     17857     17849     17848     17851     17852
     17849     17848     17851     17853     17849     17848     17851     17854
     17850     17848     17851     17852     17850     17848     17851     17853
     17850     17848     17851     17854     17851     17854     17857     17858
     17851     17854     17857     17859     17851     17854     17857     17860
     17852     17851     17854     17855     17852     17851     17854     17856
     17852     17851     17854     17857     17853     17851     17854     17855
     17853     17851     17854     17856     17853     17851     17854     17857
     17854     17857     17860     17861     17854     17857     17860     17862
     17854     17857     17860     17863     17855     17854     17857     17858
     17855     17854     17857     17859     17855     17854     17857     17860
     17856     17854     17857     17858     17856     17854     17857     17859
     17856     17854     17857     17860     17857     17860     17863     17864
     17857     17860     17863     17865     17857     17860     17863     17866
     17858     17857     17860     17861     17858     17857     17860     17862
     17858     17857     17860     17863     17859     17857     17860     17861
     17859     17857     17860     17862     17859     17857     17860     17863
     17860     17863     17866     17867     17860     17863     17866     17868
     17860     17863     17866     17869     17861     17860     17863     17864
     17861     17860     17863     17865     17861     17860     17863     17866
     17862     17860     17863     17864     17862     17860     17863     17865
     17862     17860     17863     17866     17863     17866     17869     17870
     17863     17866     17869     17871     17863     17866     17869     17872
     17864     17863     17866     17867     17864     17863     17866     17868
     17864     17863     17866     17869     17865     17863     17866     17867
     17865     17863     17866     17868     17865     17863     17866     17869
     17866     17869     17872     17873     17866     17869     17872     17874
     17866     17869     17872     17875     17867     17866     17869     17870
     17867     17866     17869     17871     17867     17866     17869     17872
     17868     17866     17869     17870     17868     17866     17869     17871
     17868     17866     17869     17872     17869     17872     17875     17876
     17869     17872     17875     17877     17869     17872     17875     17878
     17870     17869     17872     17873     17870     17869     17872     17874
     17870     17869     17872     17875     17871     17869     17872     17873
     17871     17869     17872     17874     17871     17869     17872     17875
     17872     17875     17878     17879     17872     17875     17878     17880
     17872     17875     17878     17881     17873     17872     17875     17876
     17873     17872     17875     17877     17873     17872     17875     17878
     17874     17872     17875     17876     17874     17872     17875     17877
     17874     17872     17875     17878     17875     17878     17881     17882
     17875     17878     17881     17883     17875     17878     17881     17884
     17876     17875     17878     17879     17876     17875     17878     17880
     17876     17875     17878     17881     17877     17875     17878     17879
     17877     17875     17878     17880     17877     17875     17878     17881
     17878     17881     17884     17885     17878     17881     17884     17886
     17878     17881     17884     17887     17879     17878     17881     17882
     17879     17878     17881     17883     17879     17878     17881     17884
     17880     17878     17881     17882     17880     17878     17881     17883
     17880     17878     17881     17884     17882     17881     17884     17885
     17882     17881     17884     17886     17882     17881     17884     17887
     17883     17881     17884     17885     17883     17881     17884     17886
     17883     17881     17884     17887     17888     17889     17904     17905
     17888     17889     17904     17906     17888     17889     17904     17910
     17889     17888     17892     17893     17889     17888     17892     17894
     17889     17888     17892     17895     17889     17888     17896     17897
     17889     17888     17896     17898     17889     17888     17896     17899
     17889     17888     17900     17901     17889     17888     17900     17902
     17889     17888     17900     17903     17889     17904     17910     17907
     17890     17889     17888     17892     17890     17889     17888     17896
     17890     17889     17888     17900     17890     17889     17904     17905
     17890     17889     17904     17906     17890     17889     17904     17910
     17891     17889     17888     17892     17891     17889     17888     17896
     17891     17889     17888     17900     17891     17889     17904     17905
     17891     17889     17904     17906     17891     17889     17904     17910
     17892     17888     17889     17904     17892     17888     17896     17897
     17892     17888     17896     17898     17892     17888     17896     17899
     17892     17888     17900     17901     17892     17888     17900     17902
     17892     17888     17900     17903     17893     17892     17888     17896
     17893     17892     17888     17900     17894     17892     17888     17896
     17894     17892     17888     17900     17895     17892     17888     17896
     17895     17892     17888     17900     17896     17888     17889     17904
     17896     17888     17900     17901     17896     17888     17900     17902
     17896     17888     17900     17903     17897     17896     17888     17900
     17898     17896     17888     17900     17899     17896     17888     17900
     17900     17888     17889     17904     17904     17910     17907     17908
     17904     17910     17907     17909     17904     17910     17907     17911
     17905     17904     17910     17907     17906     17904     17910     17907
     17907     17911     17912     17913     17907     17911     17912     17914
     17907     17911     17912     17915     17908     17907     17911     17912
     17909     17907     17911     17912     17910     17907     17911     17912
     17911     17912     17915     17916     17911     17912     17915     17917
     17911     17912     17915     17923     17912     17915     17917     17918
     17912     17915     17923     17924     17912     17915     17923     17925
     17912     17915     17923     17926     17913     17912     17915     17916
     17913     17912     17915     17917     17913     17912     17915     17923
     17914     17912     17915     17916     17914     17912     17915     17917
     17914     17912     17915     17923     17915     17917     17918     17919
     17915     17917     17918     17920     17915     17923     17926     17927
     17916     17915     17917     17918     17916     17915     17923     17924
     17916     17915     17923     17925     17916     17915     17923     17926
     17917     17915     17923     17924     17917     17915     17923     17925
     17917     17915     17923     17926     17917     17918     17920     17921
     17917     17918     17920     17922     17917     17918     17920     17932
     17918     17917     17915     17923     17918     17920     17932     17933
     17918     17920     17932     17934     17918     17920     17932     17935
     17919     17918     17920     17921     17919     17918     17920     17922
     17919     17918     17920     17932     17920     17932     17935     17936
     17920     17932     17935     17937     17920     17932     17935     17938
     17921     17920     17932     17933     17921     17920     17932     17934
     17921     17920     17932     17935     17922     17920     17932     17933
     17922     17920     17932     17934     17922     17920     17932     17935
     17923     17926     17927     17928     17923     17926     17927     17929
     17924     17923     17926     17927     17925     17923     17926     17927
     17926     17927     17929     17930     17926     17927     17929     17931
     17926     17927     17929     17979     17927     17929     17979     17980
     17927     17929     17979     17981     17927     17929     17979     17982
     17928     17927     17929     17930     17928     17927     17929     17931
     17928     17927     17929     17979     17929     17979     17982     17983
     17929     17979     17982     17984     17929     17979     17982     17985
     17930     17929     17979     17980     17930     17929     17979     17981
     17930     17929     17979     17982     17931     17929     17979     17980
     17931     17929     17979     17981     17931     17929     17979     17982
     17932     17935     17938     17939     17932     17935     17938     17940
     17932     17935     17938     17941     17933     17932     17935     17936
     17933     17932     17935     17937     17933     17932     17935     17938
     17934     17932     17935     17936     17934     17932     17935     17937
     17934     17932     17935     17938     17935     17938     17941     17942
     17935     17938     17941     17943     17935     17938     17941     17944
     17936     17935     17938     17939     17936     17935     17938     17940
     17936     17935     17938     17941     17937     17935     17938     17939
     17937     17935     17938     17940     17937     17935     17938     17941
     17938     17941     17944     17945     17938     17941     17944     17946
     17938     17941     17944     17947     17939     17938     17941     17942
     17939     17938     17941     17943     17939     17938     17941     17944
     17940     17938     17941     17942     17940     17938     17941     17943
     17940     17938     17941     17944     17941     17944     17947     17948
     17941     17944     17947     17949     17941     17944     17947     17950
     17942     17941     17944     17945     17942     17941     17944     17946
     17942     17941     17944     17947     17943     17941     17944     17945
     17943     17941     17944     17946     17943     17941     17944     17947
     17944     17947     17950     17951     17944     17947     17950     17952
     17945     17944     17947     17948     17945     17944     17947     17949
     17945     17944     17947     17950     17946     17944     17947     17948
     17946     17944     17947     17949     17946     17944     17947     17950
     17947     17950     17952     17953     17947     17950     17952     17954
     17948     17947     17950     17951     17948     17947     17950     17952
     17949     17947     17950     17951     17949     17947     17950     17952
     17950     17952     17954     17955     17950     17952     17954     17956
     17950     17952     17954     17957     17951     17950     17952     17953
     17951     17950     17952     17954     17952     17954     17957     17958
     17952     17954     17957     17959     17952     17954     17957     17960
     17953     17952     17954     17955     17953     17952     17954     17956
     17953     17952     17954     17957     17954     17957     17960     17961
     17954     17957     17960     17962     17954     17957     17960     17963
     17955     17954     17957     17958     17955     17954     17957     17959
     17955     17954     17957     17960     17956     17954     17957     17958
     17956     17954     17957     17959     17956     17954     17957     17960
     17957     17960     17963     17964     17957     17960     17963     17965
     17957     17960     17963     17966     17958     17957     17960     17961
     17958     17957     17960     17962     17958     17957     17960     17963
     17959     17957     17960     17961     17959     17957     17960     17962
     17959     17957     17960     17963     17960     17963     17966     17967
     17960     17963     17966     17968     17960     17963     17966     17969
     17961     17960     17963     17964     17961     17960     17963     17965
     17961     17960     17963     17966     17962     17960     17963     17964
     17962     17960     17963     17965     17962     17960     17963     17966
     17963     17966     17969     17970     17963     17966     17969     17971
     17963     17966     17969     17972     17964     17963     17966     17967
     17964     17963     17966     17968     17964     17963     17966     17969
     17965     17963     17966     17967     17965     17963     17966     17968
     17965     17963     17966     17969     17966     17969     17972     17973
     17966     17969     17972     17974     17966     17969     17972     17975
     17967     17966     17969     17970     17967     17966     17969     17971
     17967     17966     17969     17972     17968     17966     17969     17970
     17968     17966     17969     17971     17968     17966     17969     17972
     17969     17972     17975     17976     17969     17972     17975     17977
     17969     17972     17975     17978     17970     17969     17972     17973
     17970     17969     17972     17974     17970     17969     17972     17975
     17971     17969     17972     17973     17971     17969     17972     17974
     17971     17969     17972     17975     17973     17972     17975     17976
     17973     17972     17975     17977     17973     17972     17975     17978
     17974     17972     17975     17976     17974     17972     17975     17977
     17974     17972     17975     17978     17979     17982     17985     17986
     17979     17982     17985     17987     17979     17982     17985     17988
     17980     17979     17982     17983     17980     17979     17982     17984
     17980     17979     17982     17985     17981     17979     17982     17983
     17981     17979     17982     17984     17981     17979     17982     17985
     17982     17985     17988     17989     17982     17985     17988     17990
     17982     17985     17988     17991     17983     17982     17985     17986
     17983     17982     17985     17987     17983     17982     17985     17988
     17984     17982     17985     17986     17984     17982     17985     17987
     17984     17982     17985     17988     17985     17988     17991     17992
     17985     17988     17991     17993     17985     17988     17991     17994
     17986     17985     17988     17989     17986     17985     17988     17990
     17986     17985     17988     17991     17987     17985     17988     17989
     17987     17985     17988     17990     17987     17985     17988     17991
     17988     17991     17994     17995     17988     17991     17994     17996
     17988     17991     17994     17997     17989     17988     17991     17992
     17989     17988     17991     17993     17989     17988     17991     17994
     17990     17988     17991     17992     17990     17988     17991     17993
     17990     17988     17991     17994     17991     17994     17997     17998
     17991     17994     17997     17999     17991     17994     17997     18000
     17992     17991     17994     17995     17992     17991     17994     17996
     17992     17991     17994     17997     17993     17991     17994     17995
     17993     17991     17994     17996     17993     17991     17994     17997
     17994     17997     18000     18001     17994     17997     18000     18002
     17994     17997     18000     18003     17995     17994     17997     17998
     17995     17994     17997     17999     17995     17994     17997     18000
     17996     17994     17997     17998     17996     17994     17997     17999
     17996     17994     17997     18000     17997     18000     18003     18004
     17997     18000     18003     18005     17997     18000     18003     18006
     17998     17997     18000     18001     17998     17997     18000     18002
     17998     17997     18000     18003     17999     17997     18000     18001
     17999     17997     18000     18002     17999     17997     18000     18003
     18000     18003     18006     18007     18000     18003     18006     18008
     18000     18003     18006     18009     18001     18000     18003     18004
     18001     18000     18003     18005     18001     18000     18003     18006
     18002     18000     18003     18004     18002     18000     18003     18005
     18002     18000     18003     18006     18003     18006     18009     18010
     18003     18006     18009     18011     18003     18006     18009     18012
     18004     18003     18006     18007     18004     18003     18006     18008
     18004     18003     18006     18009     18005     18003     18006     18007
     18005     18003     18006     18008     18005     18003     18006     18009
     18006     18009     18012     18013     18006     18009     18012     18014
     18006     18009     18012     18015     18007     18006     18009     18010
     18007     18006     18009     18011     18007     18006     18009     18012
     18008     18006     18009     18010     18008     18006     18009     18011
     18008     18006     18009     18012     18009     18012     18015     18016
     18009     18012     18015     18017     18009     18012     18015     18018
     18010     18009     18012     18013     18010     18009     18012     18014
     18010     18009     18012     18015     18011     18009     18012     18013
     18011     18009     18012     18014     18011     18009     18012     18015
     18012     18015     18018     18019     18012     18015     18018     18020
     18012     18015     18018     18021     18013     18012     18015     18016
     18013     18012     18015     18017     18013     18012     18015     18018
     18014     18012     18015     18016     18014     18012     18015     18017
     18014     18012     18015     18018     18016     18015     18018     18019
     18016     18015     18018     18020     18016     18015     18018     18021
     18017     18015     18018     18019     18017     18015     18018     18020
     18017     18015     18018     18021     18022     18023     18038     18039
     18022     18023     18038     18040     18022     18023     18038     18044
     18023     18022     18026     18027     18023     18022     18026     18028
     18023     18022     18026     18029     18023     18022     18030     18031
     18023     18022     18030     18032     18023     18022     18030     18033
     18023     18022     18034     18035     18023     18022     18034     18036
     18023     18022     18034     18037     18023     18038     18044     18041
     18024     18023     18022     18026     18024     18023     18022     18030
     18024     18023     18022     18034     18024     18023     18038     18039
     18024     18023     18038     18040     18024     18023     18038     18044
     18025     18023     18022     18026     18025     18023     18022     18030
     18025     18023     18022     18034     18025     18023     18038     18039
     18025     18023     18038     18040     18025     18023     18038     18044
     18026     18022     18023     18038     18026     18022     18030     18031
     18026     18022     18030     18032     18026     18022     18030     18033
     18026     18022     18034     18035     18026     18022     18034     18036
     18026     18022     18034     18037     18027     18026     18022     18030
     18027     18026     18022     18034     18028     18026     18022     18030
     18028     18026     18022     18034     18029     18026     18022     18030
     18029     18026     18022     18034     18030     18022     18023     18038
     18030     18022     18034     18035     18030     18022     18034     18036
     18030     18022     18034     18037     18031     18030     18022     18034
     18032     18030     18022     18034     18033     18030     18022     18034
     18034     18022     18023     18038     18038     18044     18041     18042
     18038     18044     18041     18043     18038     18044     18041     18045
     18039     18038     18044     18041     18040     18038     18044     18041
     18041     18045     18046     18047     18041     18045     18046     18048
     18041     18045     18046     18049     18042     18041     18045     18046
     18043     18041     18045     18046     18044     18041     18045     18046
     18045     18046     18049     18050     18045     18046     18049     18051
     18045     18046     18049     18057     18046     18049     18051     18052
     18046     18049     18057     18058     18046     18049     18057     18059
     18046     18049     18057     18060     18047     18046     18049     18050
     18047     18046     18049     18051     18047     18046     18049     18057
     18048     18046     18049     18050     18048     18046     18049     18051
     18048     18046     18049     18057     18049     18051     18052     18053
     18049     18051     18052     18054     18049     18057     18060     18061
     18050     18049     18051     18052     18050     18049     18057     18058
     18050     18049     18057     18059     18050     18049     18057     18060
     18051     18049     18057     18058     18051     18049     18057     18059
     18051     18049     18057     18060     18051     18052     18054     18055
     18051     18052     18054     18056     18051     18052     18054     18066
     18052     18051     18049     18057     18052     18054     18066     18067
     18052     18054     18066     18068     18052     18054     18066     18069
     18053     18052     18054     18055     18053     18052     18054     18056
     18053     18052     18054     18066     18054     18066     18069     18070
     18054     18066     18069     18071     18054     18066     18069     18072
     18055     18054     18066     18067     18055     18054     18066     18068
     18055     18054     18066     18069     18056     18054     18066     18067
     18056     18054     18066     18068     18056     18054     18066     18069
     18057     18060     18061     18062     18057     18060     18061     18063
     18058     18057     18060     18061     18059     18057     18060     18061
     18060     18061     18063     18064     18060     18061     18063     18065
     18060     18061     18063     18113     18061     18063     18113     18114
     18061     18063     18113     18115     18061     18063     18113     18116
     18062     18061     18063     18064     18062     18061     18063     18065
     18062     18061     18063     18113     18063     18113     18116     18117
     18063     18113     18116     18118     18063     18113     18116     18119
     18064     18063     18113     18114     18064     18063     18113     18115
     18064     18063     18113     18116     18065     18063     18113     18114
     18065     18063     18113     18115     18065     18063     18113     18116
     18066     18069     18072     18073     18066     18069     18072     18074
     18066     18069     18072     18075     18067     18066     18069     18070
     18067     18066     18069     18071     18067     18066     18069     18072
     18068     18066     18069     18070     18068     18066     18069     18071
     18068     18066     18069     18072     18069     18072     18075     18076
     18069     18072     18075     18077     18069     18072     18075     18078
     18070     18069     18072     18073     18070     18069     18072     18074
     18070     18069     18072     18075     18071     18069     18072     18073
     18071     18069     18072     18074     18071     18069     18072     18075
     18072     18075     18078     18079     18072     18075     18078     18080
     18072     18075     18078     18081     18073     18072     18075     18076
     18073     18072     18075     18077     18073     18072     18075     18078
     18074     18072     18075     18076     18074     18072     18075     18077
     18074     18072     18075     18078     18075     18078     18081     18082
     18075     18078     18081     18083     18075     18078     18081     18084
     18076     18075     18078     18079     18076     18075     18078     18080
     18076     18075     18078     18081     18077     18075     18078     18079
     18077     18075     18078     18080     18077     18075     18078     18081
     18078     18081     18084     18085     18078     18081     18084     18086
     18079     18078     18081     18082     18079     18078     18081     18083
     18079     18078     18081     18084     18080     18078     18081     18082
     18080     18078     18081     18083     18080     18078     18081     18084
     18081     18084     18086     18087     18081     18084     18086     18088
     18082     18081     18084     18085     18082     18081     18084     18086
     18083     18081     18084     18085     18083     18081     18084     18086
     18084     18086     18088     18089     18084     18086     18088     18090
     18084     18086     18088     18091     18085     18084     18086     18087
     18085     18084     18086     18088     18086     18088     18091     18092
     18086     18088     18091     18093     18086     18088     18091     18094
     18087     18086     18088     18089     18087     18086     18088     18090
     18087     18086     18088     18091     18088     18091     18094     18095
     18088     18091     18094     18096     18088     18091     18094     18097
     18089     18088     18091     18092     18089     18088     18091     18093
     18089     18088     18091     18094     18090     18088     18091     18092
     18090     18088     18091     18093     18090     18088     18091     18094
     18091     18094     18097     18098     18091     18094     18097     18099
     18091     18094     18097     18100     18092     18091     18094     18095
     18092     18091     18094     18096     18092     18091     18094     18097
     18093     18091     18094     18095     18093     18091     18094     18096
     18093     18091     18094     18097     18094     18097     18100     18101
     18094     18097     18100     18102     18094     18097     18100     18103
     18095     18094     18097     18098     18095     18094     18097     18099
     18095     18094     18097     18100     18096     18094     18097     18098
     18096     18094     18097     18099     18096     18094     18097     18100
     18097     18100     18103     18104     18097     18100     18103     18105
     18097     18100     18103     18106     18098     18097     18100     18101
     18098     18097     18100     18102     18098     18097     18100     18103
     18099     18097     18100     18101     18099     18097     18100     18102
     18099     18097     18100     18103     18100     18103     18106     18107
     18100     18103     18106     18108     18100     18103     18106     18109
     18101     18100     18103     18104     18101     18100     18103     18105
     18101     18100     18103     18106     18102     18100     18103     18104
     18102     18100     18103     18105     18102     18100     18103     18106
     18103     18106     18109     18110     18103     18106     18109     18111
     18103     18106     18109     18112     18104     18103     18106     18107
     18104     18103     18106     18108     18104     18103     18106     18109
     18105     18103     18106     18107     18105     18103     18106     18108
     18105     18103     18106     18109     18107     18106     18109     18110
     18107     18106     18109     18111     18107     18106     18109     18112
     18108     18106     18109     18110     18108     18106     18109     18111
     18108     18106     18109     18112     18113     18116     18119     18120
     18113     18116     18119     18121     18113     18116     18119     18122
     18114     18113     18116     18117     18114     18113     18116     18118
     18114     18113     18116     18119     18115     18113     18116     18117
     18115     18113     18116     18118     18115     18113     18116     18119
     18116     18119     18122     18123     18116     18119     18122     18124
     18116     18119     18122     18125     18117     18116     18119     18120
     18117     18116     18119     18121     18117     18116     18119     18122
     18118     18116     18119     18120     18118     18116     18119     18121
     18118     18116     18119     18122     18119     18122     18125     18126
     18119     18122     18125     18127     18119     18122     18125     18128
     18120     18119     18122     18123     18120     18119     18122     18124
     18120     18119     18122     18125     18121     18119     18122     18123
     18121     18119     18122     18124     18121     18119     18122     18125
     18122     18125     18128     18129     18122     18125     18128     18130
     18122     18125     18128     18131     18123     18122     18125     18126
     18123     18122     18125     18127     18123     18122     18125     18128
     18124     18122     18125     18126     18124     18122     18125     18127
     18124     18122     18125     18128     18125     18128     18131     18132
     18125     18128     18131     18133     18125     18128     18131     18134
     18126     18125     18128     18129     18126     18125     18128     18130
     18126     18125     18128     18131     18127     18125     18128     18129
     18127     18125     18128     18130     18127     18125     18128     18131
     18128     18131     18134     18135     18128     18131     18134     18136
     18128     18131     18134     18137     18129     18128     18131     18132
     18129     18128     18131     18133     18129     18128     18131     18134
     18130     18128     18131     18132     18130     18128     18131     18133
     18130     18128     18131     18134     18131     18134     18137     18138
     18131     18134     18137     18139     18131     18134     18137     18140
     18132     18131     18134     18135     18132     18131     18134     18136
     18132     18131     18134     18137     18133     18131     18134     18135
     18133     18131     18134     18136     18133     18131     18134     18137
     18134     18137     18140     18141     18134     18137     18140     18142
     18134     18137     18140     18143     18135     18134     18137     18138
     18135     18134     18137     18139     18135     18134     18137     18140
     18136     18134     18137     18138     18136     18134     18137     18139
     18136     18134     18137     18140     18137     18140     18143     18144
     18137     18140     18143     18145     18137     18140     18143     18146
     18138     18137     18140     18141     18138     18137     18140     18142
     18138     18137     18140     18143     18139     18137     18140     18141
     18139     18137     18140     18142     18139     18137     18140     18143
     18140     18143     18146     18147     18140     18143     18146     18148
     18140     18143     18146     18149     18141     18140     18143     18144
     18141     18140     18143     18145     18141     18140     18143     18146
     18142     18140     18143     18144     18142     18140     18143     18145
     18142     18140     18143     18146     18143     18146     18149     18150
     18143     18146     18149     18151     18143     18146     18149     18152
     18144     18143     18146     18147     18144     18143     18146     18148
     18144     18143     18146     18149     18145     18143     18146     18147
     18145     18143     18146     18148     18145     18143     18146     18149
     18146     18149     18152     18153     18146     18149     18152     18154
     18146     18149     18152     18155     18147     18146     18149     18150
     18147     18146     18149     18151     18147     18146     18149     18152
     18148     18146     18149     18150     18148     18146     18149     18151
     18148     18146     18149     18152     18150     18149     18152     18153
     18150     18149     18152     18154     18150     18149     18152     18155
     18151     18149     18152     18153     18151     18149     18152     18154
     18151     18149     18152     18155     18156     18157     18172     18173
     18156     18157     18172     18174     18156     18157     18172     18178
     18157     18156     18160     18161     18157     18156     18160     18162
     18157     18156     18160     18163     18157     18156     18164     18165
     18157     18156     18164     18166     18157     18156     18164     18167
     18157     18156     18168     18169     18157     18156     18168     18170
     18157     18156     18168     18171     18157     18172     18178     18175
     18158     18157     18156     18160     18158     18157     18156     18164
     18158     18157     18156     18168     18158     18157     18172     18173
     18158     18157     18172     18174     18158     18157     18172     18178
     18159     18157     18156     18160     18159     18157     18156     18164
     18159     18157     18156     18168     18159     18157     18172     18173
     18159     18157     18172     18174     18159     18157     18172     18178
     18160     18156     18157     18172     18160     18156     18164     18165
     18160     18156     18164     18166     18160     18156     18164     18167
     18160     18156     18168     18169     18160     18156     18168     18170
     18160     18156     18168     18171     18161     18160     18156     18164
     18161     18160     18156     18168     18162     18160     18156     18164
     18162     18160     18156     18168     18163     18160     18156     18164
     18163     18160     18156     18168     18164     18156     18157     18172
     18164     18156     18168     18169     18164     18156     18168     18170
     18164     18156     18168     18171     18165     18164     18156     18168
     18166     18164     18156     18168     18167     18164     18156     18168
     18168     18156     18157     18172     18172     18178     18175     18176
     18172     18178     18175     18177     18172     18178     18175     18179
     18173     18172     18178     18175     18174     18172     18178     18175
     18175     18179     18180     18181     18175     18179     18180     18182
     18175     18179     18180     18183     18176     18175     18179     18180
     18177     18175     18179     18180     18178     18175     18179     18180
     18179     18180     18183     18184     18179     18180     18183     18185
     18179     18180     18183     18191     18180     18183     18185     18186
     18180     18183     18191     18192     18180     18183     18191     18193
     18180     18183     18191     18194     18181     18180     18183     18184
     18181     18180     18183     18185     18181     18180     18183     18191
     18182     18180     18183     18184     18182     18180     18183     18185
     18182     18180     18183     18191     18183     18185     18186     18187
     18183     18185     18186     18188     18183     18191     18194     18195
     18184     18183     18185     18186     18184     18183     18191     18192
     18184     18183     18191     18193     18184     18183     18191     18194
     18185     18183     18191     18192     18185     18183     18191     18193
     18185     18183     18191     18194     18185     18186     18188     18189
     18185     18186     18188     18190     18185     18186     18188     18200
     18186     18185     18183     18191     18186     18188     18200     18201
     18186     18188     18200     18202     18186     18188     18200     18203
     18187     18186     18188     18189     18187     18186     18188     18190
     18187     18186     18188     18200     18188     18200     18203     18204
     18188     18200     18203     18205     18188     18200     18203     18206
     18189     18188     18200     18201     18189     18188     18200     18202
     18189     18188     18200     18203     18190     18188     18200     18201
     18190     18188     18200     18202     18190     18188     18200     18203
     18191     18194     18195     18196     18191     18194     18195     18197
     18192     18191     18194     18195     18193     18191     18194     18195
     18194     18195     18197     18198     18194     18195     18197     18199
     18194     18195     18197     18247     18195     18197     18247     18248
     18195     18197     18247     18249     18195     18197     18247     18250
     18196     18195     18197     18198     18196     18195     18197     18199
     18196     18195     18197     18247     18197     18247     18250     18251
     18197     18247     18250     18252     18197     18247     18250     18253
     18198     18197     18247     18248     18198     18197     18247     18249
     18198     18197     18247     18250     18199     18197     18247     18248
     18199     18197     18247     18249     18199     18197     18247     18250
     18200     18203     18206     18207     18200     18203     18206     18208
     18200     18203     18206     18209     18201     18200     18203     18204
     18201     18200     18203     18205     18201     18200     18203     18206
     18202     18200     18203     18204     18202     18200     18203     18205
     18202     18200     18203     18206     18203     18206     18209     18210
     18203     18206     18209     18211     18203     18206     18209     18212
     18204     18203     18206     18207     18204     18203     18206     18208
     18204     18203     18206     18209     18205     18203     18206     18207
     18205     18203     18206     18208     18205     18203     18206     18209
     18206     18209     18212     18213     18206     18209     18212     18214
     18206     18209     18212     18215     18207     18206     18209     18210
     18207     18206     18209     18211     18207     18206     18209     18212
     18208     18206     18209     18210     18208     18206     18209     18211
     18208     18206     18209     18212     18209     18212     18215     18216
     18209     18212     18215     18217     18209     18212     18215     18218
     18210     18209     18212     18213     18210     18209     18212     18214
     18210     18209     18212     18215     18211     18209     18212     18213
     18211     18209     18212     18214     18211     18209     18212     18215
     18212     18215     18218     18219     18212     18215     18218     18220
     18213     18212     18215     18216     18213     18212     18215     18217
     18213     18212     18215     18218     18214     18212     18215     18216
     18214     18212     18215     18217     18214     18212     18215     18218
     18215     18218     18220     18221     18215     18218     18220     18222
     18216     18215     18218     18219     18216     18215     18218     18220
     18217     18215     18218     18219     18217     18215     18218     18220
     18218     18220     18222     18223     18218     18220     18222     18224
     18218     18220     18222     18225     18219     18218     18220     18221
     18219     18218     18220     18222     18220     18222     18225     18226
     18220     18222     18225     18227     18220     18222     18225     18228
     18221     18220     18222     18223     18221     18220     18222     18224
     18221     18220     18222     18225     18222     18225     18228     18229
     18222     18225     18228     18230     18222     18225     18228     18231
     18223     18222     18225     18226     18223     18222     18225     18227
     18223     18222     18225     18228     18224     18222     18225     18226
     18224     18222     18225     18227     18224     18222     18225     18228
     18225     18228     18231     18232     18225     18228     18231     18233
     18225     18228     18231     18234     18226     18225     18228     18229
     18226     18225     18228     18230     18226     18225     18228     18231
     18227     18225     18228     18229     18227     18225     18228     18230
     18227     18225     18228     18231     18228     18231     18234     18235
     18228     18231     18234     18236     18228     18231     18234     18237
     18229     18228     18231     18232     18229     18228     18231     18233
     18229     18228     18231     18234     18230     18228     18231     18232
     18230     18228     18231     18233     18230     18228     18231     18234
     18231     18234     18237     18238     18231     18234     18237     18239
     18231     18234     18237     18240     18232     18231     18234     18235
     18232     18231     18234     18236     18232     18231     18234     18237
     18233     18231     18234     18235     18233     18231     18234     18236
     18233     18231     18234     18237     18234     18237     18240     18241
     18234     18237     18240     18242     18234     18237     18240     18243
     18235     18234     18237     18238     18235     18234     18237     18239
     18235     18234     18237     18240     18236     18234     18237     18238
     18236     18234     18237     18239     18236     18234     18237     18240
     18237     18240     18243     18244     18237     18240     18243     18245
     18237     18240     18243     18246     18238     18237     18240     18241
     18238     18237     18240     18242     18238     18237     18240     18243
     18239     18237     18240     18241     18239     18237     18240     18242
     18239     18237     18240     18243     18241     18240     18243     18244
     18241     18240     18243     18245     18241     18240     18243     18246
     18242     18240     18243     18244     18242     18240     18243     18245
     18242     18240     18243     18246     18247     18250     18253     18254
     18247     18250     18253     18255     18247     18250     18253     18256
     18248     18247     18250     18251     18248     18247     18250     18252
     18248     18247     18250     18253     18249     18247     18250     18251
     18249     18247     18250     18252     18249     18247     18250     18253
     18250     18253     18256     18257     18250     18253     18256     18258
     18250     18253     18256     18259     18251     18250     18253     18254
     18251     18250     18253     18255     18251     18250     18253     18256
     18252     18250     18253     18254     18252     18250     18253     18255
     18252     18250     18253     18256     18253     18256     18259     18260
     18253     18256     18259     18261     18253     18256     18259     18262
     18254     18253     18256     18257     18254     18253     18256     18258
     18254     18253     18256     18259     18255     18253     18256     18257
     18255     18253     18256     18258     18255     18253     18256     18259
     18256     18259     18262     18263     18256     18259     18262     18264
     18256     18259     18262     18265     18257     18256     18259     18260
     18257     18256     18259     18261     18257     18256     18259     18262
     18258     18256     18259     18260     18258     18256     18259     18261
     18258     18256     18259     18262     18259     18262     18265     18266
     18259     18262     18265     18267     18259     18262     18265     18268
     18260     18259     18262     18263     18260     18259     18262     18264
     18260     18259     18262     18265     18261     18259     18262     18263
     18261     18259     18262     18264     18261     18259     18262     18265
     18262     18265     18268     18269     18262     18265     18268     18270
     18262     18265     18268     18271     18263     18262     18265     18266
     18263     18262     18265     18267     18263     18262     18265     18268
     18264     18262     18265     18266     18264     18262     18265     18267
     18264     18262     18265     18268     18265     18268     18271     18272
     18265     18268     18271     18273     18265     18268     18271     18274
     18266     18265     18268     18269     18266     18265     18268     18270
     18266     18265     18268     18271     18267     18265     18268     18269
     18267     18265     18268     18270     18267     18265     18268     18271
     18268     18271     18274     18275     18268     18271     18274     18276
     18268     18271     18274     18277     18269     18268     18271     18272
     18269     18268     18271     18273     18269     18268     18271     18274
     18270     18268     18271     18272     18270     18268     18271     18273
     18270     18268     18271     18274     18271     18274     18277     18278
     18271     18274     18277     18279     18271     18274     18277     18280
     18272     18271     18274     18275     18272     18271     18274     18276
     18272     18271     18274     18277     18273     18271     18274     18275
     18273     18271     18274     18276     18273     18271     18274     18277
     18274     18277     18280     18281     18274     18277     18280     18282
     18274     18277     18280     18283     18275     18274     18277     18278
     18275     18274     18277     18279     18275     18274     18277     18280
     18276     18274     18277     18278     18276     18274     18277     18279
     18276     18274     18277     18280     18277     18280     18283     18284
     18277     18280     18283     18285     18277     18280     18283     18286
     18278     18277     18280     18281     18278     18277     18280     18282
     18278     18277     18280     18283     18279     18277     18280     18281
     18279     18277     18280     18282     18279     18277     18280     18283
     18280     18283     18286     18287     18280     18283     18286     18288
     18280     18283     18286     18289     18281     18280     18283     18284
     18281     18280     18283     18285     18281     18280     18283     18286
     18282     18280     18283     18284     18282     18280     18283     18285
     18282     18280     18283     18286     18284     18283     18286     18287
     18284     18283     18286     18288     18284     18283     18286     18289
     18285     18283     18286     18287     18285     18283     18286     18288
     18285     18283     18286     18289     18290     18294     18296     18297
     18290     18294     18296     18298     18290     18294     18299     18300
     18290     18294     18299     18301     18290     18294     18299     18305
     18291     18290     18294     18295     18291     18290     18294     18296
     18291     18290     18294     18299     18292     18290     18294     18295
     18292     18290     18294     18296     18292     18290     18294     18299
     18293     18290     18294     18295     18293     18290     18294     18296
     18293     18290     18294     18299     18294     18299     18305     18302
     18295     18294     18296     18297     18295     18294     18296     18298
     18295     18294     18299     18300     18295     18294     18299     18301
     18295     18294     18299     18305     18296     18294     18299     18300
     18296     18294     18299     18301     18296     18294     18299     18305
     18297     18296     18294     18299     18298     18296     18294     18299
     18299     18305     18302     18303     18299     18305     18302     18304
     18299     18305     18302     18306     18300     18299     18305     18302
     18301     18299     18305     18302     18302     18306     18307     18308
     18302     18306     18307     18309     18302     18306     18307     18310
     18303     18302     18306     18307     18304     18302     18306     18307
     18305     18302     18306     18307     18306     18307     18310     18311
     18306     18307     18310     18312     18306     18307     18310     18318
     18307     18310     18312     18313     18307     18310     18318     18319
     18307     18310     18318     18320     18307     18310     18318     18321
     18308     18307     18310     18311     18308     18307     18310     18312
     18308     18307     18310     18318     18309     18307     18310     18311
     18309     18307     18310     18312     18309     18307     18310     18318
     18310     18312     18313     18314     18310     18312     18313     18315
     18310     18318     18321     18322     18311     18310     18312     18313
     18311     18310     18318     18319     18311     18310     18318     18320
     18311     18310     18318     18321     18312     18310     18318     18319
     18312     18310     18318     18320     18312     18310     18318     18321
     18312     18313     18315     18316     18312     18313     18315     18317
     18312     18313     18315     18327     18313     18312     18310     18318
     18313     18315     18327     18328     18313     18315     18327     18329
     18313     18315     18327     18330     18314     18313     18315     18316
     18314     18313     18315     18317     18314     18313     18315     18327
     18315     18327     18330     18331     18315     18327     18330     18332
     18315     18327     18330     18333     18316     18315     18327     18328
     18316     18315     18327     18329     18316     18315     18327     18330
     18317     18315     18327     18328     18317     18315     18327     18329
     18317     18315     18327     18330     18318     18321     18322     18323
     18318     18321     18322     18324     18319     18318     18321     18322
     18320     18318     18321     18322     18321     18322     18324     18325
     18321     18322     18324     18326     18321     18322     18324     18374
     18322     18324     18374     18375     18322     18324     18374     18376
     18322     18324     18374     18377     18323     18322     18324     18325
     18323     18322     18324     18326     18323     18322     18324     18374
     18324     18374     18377     18378     18324     18374     18377     18379
     18324     18374     18377     18380     18325     18324     18374     18375
     18325     18324     18374     18376     18325     18324     18374     18377
     18326     18324     18374     18375     18326     18324     18374     18376
     18326     18324     18374     18377     18327     18330     18333     18334
     18327     18330     18333     18335     18327     18330     18333     18336
     18328     18327     18330     18331     18328     18327     18330     18332
     18328     18327     18330     18333     18329     18327     18330     18331
     18329     18327     18330     18332     18329     18327     18330     18333
     18330     18333     18336     18337     18330     18333     18336     18338
     18330     18333     18336     18339     18331     18330     18333     18334
     18331     18330     18333     18335     18331     18330     18333     18336
     18332     18330     18333     18334     18332     18330     18333     18335
     18332     18330     18333     18336     18333     18336     18339     18340
     18333     18336     18339     18341     18333     18336     18339     18342
     18334     18333     18336     18337     18334     18333     18336     18338
     18334     18333     18336     18339     18335     18333     18336     18337
     18335     18333     18336     18338     18335     18333     18336     18339
     18336     18339     18342     18343     18336     18339     18342     18344
     18336     18339     18342     18345     18337     18336     18339     18340
     18337     18336     18339     18341     18337     18336     18339     18342
     18338     18336     18339     18340     18338     18336     18339     18341
     18338     18336     18339     18342     18339     18342     18345     18346
     18339     18342     18345     18347     18340     18339     18342     18343
     18340     18339     18342     18344     18340     18339     18342     18345
     18341     18339     18342     18343     18341     18339     18342     18344
     18341     18339     18342     18345     18342     18345     18347     18348
     18342     18345     18347     18349     18343     18342     18345     18346
     18343     18342     18345     18347     18344     18342     18345     18346
     18344     18342     18345     18347     18345     18347     18349     18350
     18345     18347     18349     18351     18345     18347     18349     18352
     18346     18345     18347     18348     18346     18345     18347     18349
     18347     18349     18352     18353     18347     18349     18352     18354
     18347     18349     18352     18355     18348     18347     18349     18350
     18348     18347     18349     18351     18348     18347     18349     18352
     18349     18352     18355     18356     18349     18352     18355     18357
     18349     18352     18355     18358     18350     18349     18352     18353
     18350     18349     18352     18354     18350     18349     18352     18355
     18351     18349     18352     18353     18351     18349     18352     18354
     18351     18349     18352     18355     18352     18355     18358     18359
     18352     18355     18358     18360     18352     18355     18358     18361
     18353     18352     18355     18356     18353     18352     18355     18357
     18353     18352     18355     18358     18354     18352     18355     18356
     18354     18352     18355     18357     18354     18352     18355     18358
     18355     18358     18361     18362     18355     18358     18361     18363
     18355     18358     18361     18364     18356     18355     18358     18359
     18356     18355     18358     18360     18356     18355     18358     18361
     18357     18355     18358     18359     18357     18355     18358     18360
     18357     18355     18358     18361     18358     18361     18364     18365
     18358     18361     18364     18366     18358     18361     18364     18367
     18359     18358     18361     18362     18359     18358     18361     18363
     18359     18358     18361     18364     18360     18358     18361     18362
     18360     18358     18361     18363     18360     18358     18361     18364
     18361     18364     18367     18368     18361     18364     18367     18369
     18361     18364     18367     18370     18362     18361     18364     18365
     18362     18361     18364     18366     18362     18361     18364     18367
     18363     18361     18364     18365     18363     18361     18364     18366
     18363     18361     18364     18367     18364     18367     18370     18371
     18364     18367     18370     18372     18364     18367     18370     18373
     18365     18364     18367     18368     18365     18364     18367     18369
     18365     18364     18367     18370     18366     18364     18367     18368
     18366     18364     18367     18369     18366     18364     18367     18370
     18368     18367     18370     18371     18368     18367     18370     18372
     18368     18367     18370     18373     18369     18367     18370     18371
     18369     18367     18370     18372     18369     18367     18370     18373
     18374     18377     18380     18381     18374     18377     18380     18382
     18374     18377     18380     18383     18375     18374     18377     18378
     18375     18374     18377     18379     18375     18374     18377     18380
     18376     18374     18377     18378     18376     18374     18377     18379
     18376     18374     18377     18380     18377     18380     18383     18384
     18377     18380     18383     18385     18377     18380     18383     18386
     18378     18377     18380     18381     18378     18377     18380     18382
     18378     18377     18380     18383     18379     18377     18380     18381
     18379     18377     18380     18382     18379     18377     18380     18383
     18380     18383     18386     18387     18380     18383     18386     18388
     18380     18383     18386     18389     18381     18380     18383     18384
     18381     18380     18383     18385     18381     18380     18383     18386
     18382     18380     18383     18384     18382     18380     18383     18385
     18382     18380     18383     18386     18383     18386     18389     18390
     18383     18386     18389     18391     18383     18386     18389     18392
     18384     18383     18386     18387     18384     18383     18386     18388
     18384     18383     18386     18389     18385     18383     18386     18387
     18385     18383     18386     18388     18385     18383     18386     18389
     18386     18389     18392     18393     18386     18389     18392     18394
     18386     18389     18392     18395     18387     18386     18389     18390
     18387     18386     18389     18391     18387     18386     18389     18392
     18388     18386     18389     18390     18388     18386     18389     18391
     18388     18386     18389     18392     18389     18392     18395     18396
     18389     18392     18395     18397     18389     18392     18395     18398
     18390     18389     18392     18393     18390     18389     18392     18394
     18390     18389     18392     18395     18391     18389     18392     18393
     18391     18389     18392     18394     18391     18389     18392     18395
     18392     18395     18398     18399     18392     18395     18398     18400
     18392     18395     18398     18401     18393     18392     18395     18396
     18393     18392     18395     18397     18393     18392     18395     18398
     18394     18392     18395     18396     18394     18392     18395     18397
     18394     18392     18395     18398     18395     18398     18401     18402
     18395     18398     18401     18403     18395     18398     18401     18404
     18396     18395     18398     18399     18396     18395     18398     18400
     18396     18395     18398     18401     18397     18395     18398     18399
     18397     18395     18398     18400     18397     18395     18398     18401
     18398     18401     18404     18405     18398     18401     18404     18406
     18398     18401     18404     18407     18399     18398     18401     18402
     18399     18398     18401     18403     18399     18398     18401     18404
     18400     18398     18401     18402     18400     18398     18401     18403
     18400     18398     18401     18404     18401     18404     18407     18408
     18401     18404     18407     18409     18401     18404     18407     18410
     18402     18401     18404     18405     18402     18401     18404     18406
     18402     18401     18404     18407     18403     18401     18404     18405
     18403     18401     18404     18406     18403     18401     18404     18407
     18404     18407     18410     18411     18404     18407     18410     18412
     18404     18407     18410     18413     18405     18404     18407     18408
     18405     18404     18407     18409     18405     18404     18407     18410
     18406     18404     18407     18408     18406     18404     18407     18409
     18406     18404     18407     18410     18407     18410     18413     18414
     18407     18410     18413     18415     18407     18410     18413     18416
     18408     18407     18410     18411     18408     18407     18410     18412
     18408     18407     18410     18413     18409     18407     18410     18411
     18409     18407     18410     18412     18409     18407     18410     18413
     18411     18410     18413     18414     18411     18410     18413     18415
     18411     18410     18413     18416     18412     18410     18413     18414
     18412     18410     18413     18415     18412     18410     18413     18416
     18417     18421     18423     18424     18417     18421     18423     18425
     18417     18421     18426     18427     18417     18421     18426     18428
     18417     18421     18426     18432     18418     18417     18421     18422
     18418     18417     18421     18423     18418     18417     18421     18426
     18419     18417     18421     18422     18419     18417     18421     18423
     18419     18417     18421     18426     18420     18417     18421     18422
     18420     18417     18421     18423     18420     18417     18421     18426
     18421     18426     18432     18429     18422     18421     18423     18424
     18422     18421     18423     18425     18422     18421     18426     18427
     18422     18421     18426     18428     18422     18421     18426     18432
     18423     18421     18426     18427     18423     18421     18426     18428
     18423     18421     18426     18432     18424     18423     18421     18426
     18425     18423     18421     18426     18426     18432     18429     18430
     18426     18432     18429     18431     18426     18432     18429     18433
     18427     18426     18432     18429     18428     18426     18432     18429
     18429     18433     18434     18435     18429     18433     18434     18436
     18429     18433     18434     18437     18430     18429     18433     18434
     18431     18429     18433     18434     18432     18429     18433     18434
     18433     18434     18437     18438     18433     18434     18437     18439
     18433     18434     18437     18445     18434     18437     18439     18440
     18434     18437     18445     18446     18434     18437     18445     18447
     18434     18437     18445     18448     18435     18434     18437     18438
     18435     18434     18437     18439     18435     18434     18437     18445
     18436     18434     18437     18438     18436     18434     18437     18439
     18436     18434     18437     18445     18437     18439     18440     18441
     18437     18439     18440     18442     18437     18445     18448     18449
     18438     18437     18439     18440     18438     18437     18445     18446
     18438     18437     18445     18447     18438     18437     18445     18448
     18439     18437     18445     18446     18439     18437     18445     18447
     18439     18437     18445     18448     18439     18440     18442     18443
     18439     18440     18442     18444     18439     18440     18442     18454
     18440     18439     18437     18445     18440     18442     18454     18455
     18440     18442     18454     18456     18440     18442     18454     18457
     18441     18440     18442     18443     18441     18440     18442     18444
     18441     18440     18442     18454     18442     18454     18457     18458
     18442     18454     18457     18459     18442     18454     18457     18460
     18443     18442     18454     18455     18443     18442     18454     18456
     18443     18442     18454     18457     18444     18442     18454     18455
     18444     18442     18454     18456     18444     18442     18454     18457
     18445     18448     18449     18450     18445     18448     18449     18451
     18446     18445     18448     18449     18447     18445     18448     18449
     18448     18449     18451     18452     18448     18449     18451     18453
     18448     18449     18451     18501     18449     18451     18501     18502
     18449     18451     18501     18503     18449     18451     18501     18504
     18450     18449     18451     18452     18450     18449     18451     18453
     18450     18449     18451     18501     18451     18501     18504     18505
     18451     18501     18504     18506     18451     18501     18504     18507
     18452     18451     18501     18502     18452     18451     18501     18503
     18452     18451     18501     18504     18453     18451     18501     18502
     18453     18451     18501     18503     18453     18451     18501     18504
     18454     18457     18460     18461     18454     18457     18460     18462
     18454     18457     18460     18463     18455     18454     18457     18458
     18455     18454     18457     18459     18455     18454     18457     18460
     18456     18454     18457     18458     18456     18454     18457     18459
     18456     18454     18457     18460     18457     18460     18463     18464
     18457     18460     18463     18465     18457     18460     18463     18466
     18458     18457     18460     18461     18458     18457     18460     18462
     18458     18457     18460     18463     18459     18457     18460     18461
     18459     18457     18460     18462     18459     18457     18460     18463
     18460     18463     18466     18467     18460     18463     18466     18468
     18460     18463     18466     18469     18461     18460     18463     18464
     18461     18460     18463     18465     18461     18460     18463     18466
     18462     18460     18463     18464     18462     18460     18463     18465
     18462     18460     18463     18466     18463     18466     18469     18470
     18463     18466     18469     18471     18463     18466     18469     18472
     18464     18463     18466     18467     18464     18463     18466     18468
     18464     18463     18466     18469     18465     18463     18466     18467
     18465     18463     18466     18468     18465     18463     18466     18469
     18466     18469     18472     18473     18466     18469     18472     18474
     18467     18466     18469     18470     18467     18466     18469     18471
     18467     18466     18469     18472     18468     18466     18469     18470
     18468     18466     18469     18471     18468     18466     18469     18472
     18469     18472     18474     18475     18469     18472     18474     18476
     18470     18469     18472     18473     18470     18469     18472     18474
     18471     18469     18472     18473     18471     18469     18472     18474
     18472     18474     18476     18477     18472     18474     18476     18478
     18472     18474     18476     18479     18473     18472     18474     18475
     18473     18472     18474     18476     18474     18476     18479     18480
     18474     18476     18479     18481     18474     18476     18479     18482
     18475     18474     18476     18477     18475     18474     18476     18478
     18475     18474     18476     18479     18476     18479     18482     18483
     18476     18479     18482     18484     18476     18479     18482     18485
     18477     18476     18479     18480     18477     18476     18479     18481
     18477     18476     18479     18482     18478     18476     18479     18480
     18478     18476     18479     18481     18478     18476     18479     18482
     18479     18482     18485     18486     18479     18482     18485     18487
     18479     18482     18485     18488     18480     18479     18482     18483
     18480     18479     18482     18484     18480     18479     18482     18485
     18481     18479     18482     18483     18481     18479     18482     18484
     18481     18479     18482     18485     18482     18485     18488     18489
     18482     18485     18488     18490     18482     18485     18488     18491
     18483     18482     18485     18486     18483     18482     18485     18487
     18483     18482     18485     18488     18484     18482     18485     18486
     18484     18482     18485     18487     18484     18482     18485     18488
     18485     18488     18491     18492     18485     18488     18491     18493
     18485     18488     18491     18494     18486     18485     18488     18489
     18486     18485     18488     18490     18486     18485     18488     18491
     18487     18485     18488     18489     18487     18485     18488     18490
     18487     18485     18488     18491     18488     18491     18494     18495
     18488     18491     18494     18496     18488     18491     18494     18497
     18489     18488     18491     18492     18489     18488     18491     18493
     18489     18488     18491     18494     18490     18488     18491     18492
     18490     18488     18491     18493     18490     18488     18491     18494
     18491     18494     18497     18498     18491     18494     18497     18499
     18491     18494     18497     18500     18492     18491     18494     18495
     18492     18491     18494     18496     18492     18491     18494     18497
     18493     18491     18494     18495     18493     18491     18494     18496
     18493     18491     18494     18497     18495     18494     18497     18498
     18495     18494     18497     18499     18495     18494     18497     18500
     18496     18494     18497     18498     18496     18494     18497     18499
     18496     18494     18497     18500     18501     18504     18507     18508
     18501     18504     18507     18509     18501     18504     18507     18510
     18502     18501     18504     18505     18502     18501     18504     18506
     18502     18501     18504     18507     18503     18501     18504     18505
     18503     18501     18504     18506     18503     18501     18504     18507
     18504     18507     18510     18511     18504     18507     18510     18512
     18504     18507     18510     18513     18505     18504     18507     18508
     18505     18504     18507     18509     18505     18504     18507     18510
     18506     18504     18507     18508     18506     18504     18507     18509
     18506     18504     18507     18510     18507     18510     18513     18514
     18507     18510     18513     18515     18507     18510     18513     18516
     18508     18507     18510     18511     18508     18507     18510     18512
     18508     18507     18510     18513     18509     18507     18510     18511
     18509     18507     18510     18512     18509     18507     18510     18513
     18510     18513     18516     18517     18510     18513     18516     18518
     18510     18513     18516     18519     18511     18510     18513     18514
     18511     18510     18513     18515     18511     18510     18513     18516
     18512     18510     18513     18514     18512     18510     18513     18515
     18512     18510     18513     18516     18513     18516     18519     18520
     18513     18516     18519     18521     18513     18516     18519     18522
     18514     18513     18516     18517     18514     18513     18516     18518
     18514     18513     18516     18519     18515     18513     18516     18517
     18515     18513     18516     18518     18515     18513     18516     18519
     18516     18519     18522     18523     18516     18519     18522     18524
     18516     18519     18522     18525     18517     18516     18519     18520
     18517     18516     18519     18521     18517     18516     18519     18522
     18518     18516     18519     18520     18518     18516     18519     18521
     18518     18516     18519     18522     18519     18522     18525     18526
     18519     18522     18525     18527     18519     18522     18525     18528
     18520     18519     18522     18523     18520     18519     18522     18524
     18520     18519     18522     18525     18521     18519     18522     18523
     18521     18519     18522     18524     18521     18519     18522     18525
     18522     18525     18528     18529     18522     18525     18528     18530
     18522     18525     18528     18531     18523     18522     18525     18526
     18523     18522     18525     18527     18523     18522     18525     18528
     18524     18522     18525     18526     18524     18522     18525     18527
     18524     18522     18525     18528     18525     18528     18531     18532
     18525     18528     18531     18533     18525     18528     18531     18534
     18526     18525     18528     18529     18526     18525     18528     18530
     18526     18525     18528     18531     18527     18525     18528     18529
     18527     18525     18528     18530     18527     18525     18528     18531
     18528     18531     18534     18535     18528     18531     18534     18536
     18528     18531     18534     18537     18529     18528     18531     18532
     18529     18528     18531     18533     18529     18528     18531     18534
     18530     18528     18531     18532     18530     18528     18531     18533
     18530     18528     18531     18534     18531     18534     18537     18538
     18531     18534     18537     18539     18531     18534     18537     18540
     18532     18531     18534     18535     18532     18531     18534     18536
     18532     18531     18534     18537     18533     18531     18534     18535
     18533     18531     18534     18536     18533     18531     18534     18537
     18534     18537     18540     18541     18534     18537     18540     18542
     18534     18537     18540     18543     18535     18534     18537     18538
     18535     18534     18537     18539     18535     18534     18537     18540
     18536     18534     18537     18538     18536     18534     18537     18539
     18536     18534     18537     18540     18538     18537     18540     18541
     18538     18537     18540     18542     18538     18537     18540     18543
     18539     18537     18540     18541     18539     18537     18540     18542
     18539     18537     18540     18543     18544     18548     18550     18551
     18544     18548     18550     18552     18544     18548     18553     18554
     18544     18548     18553     18555     18544     18548     18553     18559
     18545     18544     18548     18549     18545     18544     18548     18550
     18545     18544     18548     18553     18546     18544     18548     18549
     18546     18544     18548     18550     18546     18544     18548     18553
     18547     18544     18548     18549     18547     18544     18548     18550
     18547     18544     18548     18553     18548     18553     18559     18556
     18549     18548     18550     18551     18549     18548     18550     18552
     18549     18548     18553     18554     18549     18548     18553     18555
     18549     18548     18553     18559     18550     18548     18553     18554
     18550     18548     18553     18555     18550     18548     18553     18559
     18551     18550     18548     18553     18552     18550     18548     18553
     18553     18559     18556     18557     18553     18559     18556     18558
     18553     18559     18556     18560     18554     18553     18559     18556
     18555     18553     18559     18556     18556     18560     18561     18562
     18556     18560     18561     18563     18556     18560     18561     18564
     18557     18556     18560     18561     18558     18556     18560     18561
     18559     18556     18560     18561     18560     18561     18564     18565
     18560     18561     18564     18566     18560     18561     18564     18572
     18561     18564     18566     18567     18561     18564     18572     18573
     18561     18564     18572     18574     18561     18564     18572     18575
     18562     18561     18564     18565     18562     18561     18564     18566
     18562     18561     18564     18572     18563     18561     18564     18565
     18563     18561     18564     18566     18563     18561     18564     18572
     18564     18566     18567     18568     18564     18566     18567     18569
     18564     18572     18575     18576     18565     18564     18566     18567
     18565     18564     18572     18573     18565     18564     18572     18574
     18565     18564     18572     18575     18566     18564     18572     18573
     18566     18564     18572     18574     18566     18564     18572     18575
     18566     18567     18569     18570     18566     18567     18569     18571
     18566     18567     18569     18581     18567     18566     18564     18572
     18567     18569     18581     18582     18567     18569     18581     18583
     18567     18569     18581     18584     18568     18567     18569     18570
     18568     18567     18569     18571     18568     18567     18569     18581
     18569     18581     18584     18585     18569     18581     18584     18586
     18569     18581     18584     18587     18570     18569     18581     18582
     18570     18569     18581     18583     18570     18569     18581     18584
     18571     18569     18581     18582     18571     18569     18581     18583
     18571     18569     18581     18584     18572     18575     18576     18577
     18572     18575     18576     18578     18573     18572     18575     18576
     18574     18572     18575     18576     18575     18576     18578     18579
     18575     18576     18578     18580     18575     18576     18578     18628
     18576     18578     18628     18629     18576     18578     18628     18630
     18576     18578     18628     18631     18577     18576     18578     18579
     18577     18576     18578     18580     18577     18576     18578     18628
     18578     18628     18631     18632     18578     18628     18631     18633
     18578     18628     18631     18634     18579     18578     18628     18629
     18579     18578     18628     18630     18579     18578     18628     18631
     18580     18578     18628     18629     18580     18578     18628     18630
     18580     18578     18628     18631     18581     18584     18587     18588
     18581     18584     18587     18589     18581     18584     18587     18590
     18582     18581     18584     18585     18582     18581     18584     18586
     18582     18581     18584     18587     18583     18581     18584     18585
     18583     18581     18584     18586     18583     18581     18584     18587
     18584     18587     18590     18591     18584     18587     18590     18592
     18584     18587     18590     18593     18585     18584     18587     18588
     18585     18584     18587     18589     18585     18584     18587     18590
     18586     18584     18587     18588     18586     18584     18587     18589
     18586     18584     18587     18590     18587     18590     18593     18594
     18587     18590     18593     18595     18587     18590     18593     18596
     18588     18587     18590     18591     18588     18587     18590     18592
     18588     18587     18590     18593     18589     18587     18590     18591
     18589     18587     18590     18592     18589     18587     18590     18593
     18590     18593     18596     18597     18590     18593     18596     18598
     18590     18593     18596     18599     18591     18590     18593     18594
     18591     18590     18593     18595     18591     18590     18593     18596
     18592     18590     18593     18594     18592     18590     18593     18595
     18592     18590     18593     18596     18593     18596     18599     18600
     18593     18596     18599     18601     18594     18593     18596     18597
     18594     18593     18596     18598     18594     18593     18596     18599
     18595     18593     18596     18597     18595     18593     18596     18598
     18595     18593     18596     18599     18596     18599     18601     18602
     18596     18599     18601     18603     18597     18596     18599     18600
     18597     18596     18599     18601     18598     18596     18599     18600
     18598     18596     18599     18601     18599     18601     18603     18604
     18599     18601     18603     18605     18599     18601     18603     18606
     18600     18599     18601     18602     18600     18599     18601     18603
     18601     18603     18606     18607     18601     18603     18606     18608
     18601     18603     18606     18609     18602     18601     18603     18604
     18602     18601     18603     18605     18602     18601     18603     18606
     18603     18606     18609     18610     18603     18606     18609     18611
     18603     18606     18609     18612     18604     18603     18606     18607
     18604     18603     18606     18608     18604     18603     18606     18609
     18605     18603     18606     18607     18605     18603     18606     18608
     18605     18603     18606     18609     18606     18609     18612     18613
     18606     18609     18612     18614     18606     18609     18612     18615
     18607     18606     18609     18610     18607     18606     18609     18611
     18607     18606     18609     18612     18608     18606     18609     18610
     18608     18606     18609     18611     18608     18606     18609     18612
     18609     18612     18615     18616     18609     18612     18615     18617
     18609     18612     18615     18618     18610     18609     18612     18613
     18610     18609     18612     18614     18610     18609     18612     18615
     18611     18609     18612     18613     18611     18609     18612     18614
     18611     18609     18612     18615     18612     18615     18618     18619
     18612     18615     18618     18620     18612     18615     18618     18621
     18613     18612     18615     18616     18613     18612     18615     18617
     18613     18612     18615     18618     18614     18612     18615     18616
     18614     18612     18615     18617     18614     18612     18615     18618
     18615     18618     18621     18622     18615     18618     18621     18623
     18615     18618     18621     18624     18616     18615     18618     18619
     18616     18615     18618     18620     18616     18615     18618     18621
     18617     18615     18618     18619     18617     18615     18618     18620
     18617     18615     18618     18621     18618     18621     18624     18625
     18618     18621     18624     18626     18618     18621     18624     18627
     18619     18618     18621     18622     18619     18618     18621     18623
     18619     18618     18621     18624     18620     18618     18621     18622
     18620     18618     18621     18623     18620     18618     18621     18624
     18622     18621     18624     18625     18622     18621     18624     18626
     18622     18621     18624     18627     18623     18621     18624     18625
     18623     18621     18624     18626     18623     18621     18624     18627
     18628     18631     18634     18635     18628     18631     18634     18636
     18628     18631     18634     18637     18629     18628     18631     18632
     18629     18628     18631     18633     18629     18628     18631     18634
     18630     18628     18631     18632     18630     18628     18631     18633
     18630     18628     18631     18634     18631     18634     18637     18638
     18631     18634     18637     18639     18631     18634     18637     18640
     18632     18631     18634     18635     18632     18631     18634     18636
     18632     18631     18634     18637     18633     18631     18634     18635
     18633     18631     18634     18636     18633     18631     18634     18637
     18634     18637     18640     18641     18634     18637     18640     18642
     18634     18637     18640     18643     18635     18634     18637     18638
     18635     18634     18637     18639     18635     18634     18637     18640
     18636     18634     18637     18638     18636     18634     18637     18639
     18636     18634     18637     18640     18637     18640     18643     18644
     18637     18640     18643     18645     18637     18640     18643     18646
     18638     18637     18640     18641     18638     18637     18640     18642
     18638     18637     18640     18643     18639     18637     18640     18641
     18639     18637     18640     18642     18639     18637     18640     18643
     18640     18643     18646     18647     18640     18643     18646     18648
     18640     18643     18646     18649     18641     18640     18643     18644
     18641     18640     18643     18645     18641     18640     18643     18646
     18642     18640     18643     18644     18642     18640     18643     18645
     18642     18640     18643     18646     18643     18646     18649     18650
     18643     18646     18649     18651     18643     18646     18649     18652
     18644     18643     18646     18647     18644     18643     18646     18648
     18644     18643     18646     18649     18645     18643     18646     18647
     18645     18643     18646     18648     18645     18643     18646     18649
     18646     18649     18652     18653     18646     18649     18652     18654
     18646     18649     18652     18655     18647     18646     18649     18650
     18647     18646     18649     18651     18647     18646     18649     18652
     18648     18646     18649     18650     18648     18646     18649     18651
     18648     18646     18649     18652     18649     18652     18655     18656
     18649     18652     18655     18657     18649     18652     18655     18658
     18650     18649     18652     18653     18650     18649     18652     18654
     18650     18649     18652     18655     18651     18649     18652     18653
     18651     18649     18652     18654     18651     18649     18652     18655
     18652     18655     18658     18659     18652     18655     18658     18660
     18652     18655     18658     18661     18653     18652     18655     18656
     18653     18652     18655     18657     18653     18652     18655     18658
     18654     18652     18655     18656     18654     18652     18655     18657
     18654     18652     18655     18658     18655     18658     18661     18662
     18655     18658     18661     18663     18655     18658     18661     18664
     18656     18655     18658     18659     18656     18655     18658     18660
     18656     18655     18658     18661     18657     18655     18658     18659
     18657     18655     18658     18660     18657     18655     18658     18661
     18658     18661     18664     18665     18658     18661     18664     18666
     18658     18661     18664     18667     18659     18658     18661     18662
     18659     18658     18661     18663     18659     18658     18661     18664
     18660     18658     18661     18662     18660     18658     18661     18663
     18660     18658     18661     18664     18661     18664     18667     18668
     18661     18664     18667     18669     18661     18664     18667     18670
     18662     18661     18664     18665     18662     18661     18664     18666
     18662     18661     18664     18667     18663     18661     18664     18665
     18663     18661     18664     18666     18663     18661     18664     18667
     18665     18664     18667     18668     18665     18664     18667     18669
     18665     18664     18667     18670     18666     18664     18667     18668
     18666     18664     18667     18669     18666     18664     18667     18670
     18671     18672     18687     18688     18671     18672     18687     18689
     18671     18672     18687     18693     18672     18671     18675     18676
     18672     18671     18675     18677     18672     18671     18675     18678
     18672     18671     18679     18680     18672     18671     18679     18681
     18672     18671     18679     18682     18672     18671     18683     18684
     18672     18671     18683     18685     18672     18671     18683     18686
     18672     18687     18693     18690     18673     18672     18671     18675
     18673     18672     18671     18679     18673     18672     18671     18683
     18673     18672     18687     18688     18673     18672     18687     18689
     18673     18672     18687     18693     18674     18672     18671     18675
     18674     18672     18671     18679     18674     18672     18671     18683
     18674     18672     18687     18688     18674     18672     18687     18689
     18674     18672     18687     18693     18675     18671     18672     18687
     18675     18671     18679     18680     18675     18671     18679     18681
     18675     18671     18679     18682     18675     18671     18683     18684
     18675     18671     18683     18685     18675     18671     18683     18686
     18676     18675     18671     18679     18676     18675     18671     18683
     18677     18675     18671     18679     18677     18675     18671     18683
     18678     18675     18671     18679     18678     18675     18671     18683
     18679     18671     18672     18687     18679     18671     18683     18684
     18679     18671     18683     18685     18679     18671     18683     18686
     18680     18679     18671     18683     18681     18679     18671     18683
     18682     18679     18671     18683     18683     18671     18672     18687
     18687     18693     18690     18691     18687     18693     18690     18692
     18687     18693     18690     18694     18688     18687     18693     18690
     18689     18687     18693     18690     18690     18694     18695     18696
     18690     18694     18695     18697     18690     18694     18695     18698
     18691     18690     18694     18695     18692     18690     18694     18695
     18693     18690     18694     18695     18694     18695     18698     18699
     18694     18695     18698     18700     18694     18695     18698     18706
     18695     18698     18700     18701     18695     18698     18706     18707
     18695     18698     18706     18708     18695     18698     18706     18709
     18696     18695     18698     18699     18696     18695     18698     18700
     18696     18695     18698     18706     18697     18695     18698     18699
     18697     18695     18698     18700     18697     18695     18698     18706
     18698     18700     18701     18702     18698     18700     18701     18703
     18698     18706     18709     18710     18699     18698     18700     18701
     18699     18698     18706     18707     18699     18698     18706     18708
     18699     18698     18706     18709     18700     18698     18706     18707
     18700     18698     18706     18708     18700     18698     18706     18709
     18700     18701     18703     18704     18700     18701     18703     18705
     18700     18701     18703     18715     18701     18700     18698     18706
     18701     18703     18715     18716     18701     18703     18715     18717
     18701     18703     18715     18718     18702     18701     18703     18704
     18702     18701     18703     18705     18702     18701     18703     18715
     18703     18715     18718     18719     18703     18715     18718     18720
     18703     18715     18718     18721     18704     18703     18715     18716
     18704     18703     18715     18717     18704     18703     18715     18718
     18705     18703     18715     18716     18705     18703     18715     18717
     18705     18703     18715     18718     18706     18709     18710     18711
     18706     18709     18710     18712     18707     18706     18709     18710
     18708     18706     18709     18710     18709     18710     18712     18713
     18709     18710     18712     18714     18709     18710     18712     18762
     18710     18712     18762     18763     18710     18712     18762     18764
     18710     18712     18762     18765     18711     18710     18712     18713
     18711     18710     18712     18714     18711     18710     18712     18762
     18712     18762     18765     18766     18712     18762     18765     18767
     18712     18762     18765     18768     18713     18712     18762     18763
     18713     18712     18762     18764     18713     18712     18762     18765
     18714     18712     18762     18763     18714     18712     18762     18764
     18714     18712     18762     18765     18715     18718     18721     18722
     18715     18718     18721     18723     18715     18718     18721     18724
     18716     18715     18718     18719     18716     18715     18718     18720
     18716     18715     18718     18721     18717     18715     18718     18719
     18717     18715     18718     18720     18717     18715     18718     18721
     18718     18721     18724     18725     18718     18721     18724     18726
     18718     18721     18724     18727     18719     18718     18721     18722
     18719     18718     18721     18723     18719     18718     18721     18724
     18720     18718     18721     18722     18720     18718     18721     18723
     18720     18718     18721     18724     18721     18724     18727     18728
     18721     18724     18727     18729     18721     18724     18727     18730
     18722     18721     18724     18725     18722     18721     18724     18726
     18722     18721     18724     18727     18723     18721     18724     18725
     18723     18721     18724     18726     18723     18721     18724     18727
     18724     18727     18730     18731     18724     18727     18730     18732
     18724     18727     18730     18733     18725     18724     18727     18728
     18725     18724     18727     18729     18725     18724     18727     18730
     18726     18724     18727     18728     18726     18724     18727     18729
     18726     18724     18727     18730     18727     18730     18733     18734
     18727     18730     18733     18735     18728     18727     18730     18731
     18728     18727     18730     18732     18728     18727     18730     18733
     18729     18727     18730     18731     18729     18727     18730     18732
     18729     18727     18730     18733     18730     18733     18735     18736
     18730     18733     18735     18737     18731     18730     18733     18734
     18731     18730     18733     18735     18732     18730     18733     18734
     18732     18730     18733     18735     18733     18735     18737     18738
     18733     18735     18737     18739     18733     18735     18737     18740
     18734     18733     18735     18736     18734     18733     18735     18737
     18735     18737     18740     18741     18735     18737     18740     18742
     18735     18737     18740     18743     18736     18735     18737     18738
     18736     18735     18737     18739     18736     18735     18737     18740
     18737     18740     18743     18744     18737     18740     18743     18745
     18737     18740     18743     18746     18738     18737     18740     18741
     18738     18737     18740     18742     18738     18737     18740     18743
     18739     18737     18740     18741     18739     18737     18740     18742
     18739     18737     18740     18743     18740     18743     18746     18747
     18740     18743     18746     18748     18740     18743     18746     18749
     18741     18740     18743     18744     18741     18740     18743     18745
     18741     18740     18743     18746     18742     18740     18743     18744
     18742     18740     18743     18745     18742     18740     18743     18746
     18743     18746     18749     18750     18743     18746     18749     18751
     18743     18746     18749     18752     18744     18743     18746     18747
     18744     18743     18746     18748     18744     18743     18746     18749
     18745     18743     18746     18747     18745     18743     18746     18748
     18745     18743     18746     18749     18746     18749     18752     18753
     18746     18749     18752     18754     18746     18749     18752     18755
     18747     18746     18749     18750     18747     18746     18749     18751
     18747     18746     18749     18752     18748     18746     18749     18750
     18748     18746     18749     18751     18748     18746     18749     18752
     18749     18752     18755     18756     18749     18752     18755     18757
     18749     18752     18755     18758     18750     18749     18752     18753
     18750     18749     18752     18754     18750     18749     18752     18755
     18751     18749     18752     18753     18751     18749     18752     18754
     18751     18749     18752     18755     18752     18755     18758     18759
     18752     18755     18758     18760     18752     18755     18758     18761
     18753     18752     18755     18756     18753     18752     18755     18757
     18753     18752     18755     18758     18754     18752     18755     18756
     18754     18752     18755     18757     18754     18752     18755     18758
     18756     18755     18758     18759     18756     18755     18758     18760
     18756     18755     18758     18761     18757     18755     18758     18759
     18757     18755     18758     18760     18757     18755     18758     18761
     18762     18765     18768     18769     18762     18765     18768     18770
     18762     18765     18768     18771     18763     18762     18765     18766
     18763     18762     18765     18767     18763     18762     18765     18768
     18764     18762     18765     18766     18764     18762     18765     18767
     18764     18762     18765     18768     18765     18768     18771     18772
     18765     18768     18771     18773     18765     18768     18771     18774
     18766     18765     18768     18769     18766     18765     18768     18770
     18766     18765     18768     18771     18767     18765     18768     18769
     18767     18765     18768     18770     18767     18765     18768     18771
     18768     18771     18774     18775     18768     18771     18774     18776
     18768     18771     18774     18777     18769     18768     18771     18772
     18769     18768     18771     18773     18769     18768     18771     18774
     18770     18768     18771     18772     18770     18768     18771     18773
     18770     18768     18771     18774     18771     18774     18777     18778
     18771     18774     18777     18779     18771     18774     18777     18780
     18772     18771     18774     18775     18772     18771     18774     18776
     18772     18771     18774     18777     18773     18771     18774     18775
     18773     18771     18774     18776     18773     18771     18774     18777
     18774     18777     18780     18781     18774     18777     18780     18782
     18774     18777     18780     18783     18775     18774     18777     18778
     18775     18774     18777     18779     18775     18774     18777     18780
     18776     18774     18777     18778     18776     18774     18777     18779
     18776     18774     18777     18780     18777     18780     18783     18784
     18777     18780     18783     18785     18777     18780     18783     18786
     18778     18777     18780     18781     18778     18777     18780     18782
     18778     18777     18780     18783     18779     18777     18780     18781
     18779     18777     18780     18782     18779     18777     18780     18783
     18780     18783     18786     18787     18780     18783     18786     18788
     18780     18783     18786     18789     18781     18780     18783     18784
     18781     18780     18783     18785     18781     18780     18783     18786
     18782     18780     18783     18784     18782     18780     18783     18785
     18782     18780     18783     18786     18783     18786     18789     18790
     18783     18786     18789     18791     18783     18786     18789     18792
     18784     18783     18786     18787     18784     18783     18786     18788
     18784     18783     18786     18789     18785     18783     18786     18787
     18785     18783     18786     18788     18785     18783     18786     18789
     18786     18789     18792     18793     18786     18789     18792     18794
     18786     18789     18792     18795     18787     18786     18789     18790
     18787     18786     18789     18791     18787     18786     18789     18792
     18788     18786     18789     18790     18788     18786     18789     18791
     18788     18786     18789     18792     18789     18792     18795     18796
     18789     18792     18795     18797     18789     18792     18795     18798
     18790     18789     18792     18793     18790     18789     18792     18794
     18790     18789     18792     18795     18791     18789     18792     18793
     18791     18789     18792     18794     18791     18789     18792     18795
     18792     18795     18798     18799     18792     18795     18798     18800
     18792     18795     18798     18801     18793     18792     18795     18796
     18793     18792     18795     18797     18793     18792     18795     18798
     18794     18792     18795     18796     18794     18792     18795     18797
     18794     18792     18795     18798     18795     18798     18801     18802
     18795     18798     18801     18803     18795     18798     18801     18804
     18796     18795     18798     18799     18796     18795     18798     18800
     18796     18795     18798     18801     18797     18795     18798     18799
     18797     18795     18798     18800     18797     18795     18798     18801
     18799     18798     18801     18802     18799     18798     18801     18803
     18799     18798     18801     18804     18800     18798     18801     18802
     18800     18798     18801     18803     18800     18798     18801     18804
     18805     18806     18821     18822     18805     18806     18821     18823
     18805     18806     18821     18827     18806     18805     18809     18810
     18806     18805     18809     18811     18806     18805     18809     18812
     18806     18805     18813     18814     18806     18805     18813     18815
     18806     18805     18813     18816     18806     18805     18817     18818
     18806     18805     18817     18819     18806     18805     18817     18820
     18806     18821     18827     18824     18807     18806     18805     18809
     18807     18806     18805     18813     18807     18806     18805     18817
     18807     18806     18821     18822     18807     18806     18821     18823
     18807     18806     18821     18827     18808     18806     18805     18809
     18808     18806     18805     18813     18808     18806     18805     18817
     18808     18806     18821     18822     18808     18806     18821     18823
     18808     18806     18821     18827     18809     18805     18806     18821
     18809     18805     18813     18814     18809     18805     18813     18815
     18809     18805     18813     18816     18809     18805     18817     18818
     18809     18805     18817     18819     18809     18805     18817     18820
     18810     18809     18805     18813     18810     18809     18805     18817
     18811     18809     18805     18813     18811     18809     18805     18817
     18812     18809     18805     18813     18812     18809     18805     18817
     18813     18805     18806     18821     18813     18805     18817     18818
     18813     18805     18817     18819     18813     18805     18817     18820
     18814     18813     18805     18817     18815     18813     18805     18817
     18816     18813     18805     18817     18817     18805     18806     18821
     18821     18827     18824     18825     18821     18827     18824     18826
     18821     18827     18824     18828     18822     18821     18827     18824
     18823     18821     18827     18824     18824     18828     18829     18830
     18824     18828     18829     18831     18824     18828     18829     18832
     18825     18824     18828     18829     18826     18824     18828     18829
     18827     18824     18828     18829     18828     18829     18832     18833
     18828     18829     18832     18834     18828     18829     18832     18840
     18829     18832     18834     18835     18829     18832     18840     18841
     18829     18832     18840     18842     18829     18832     18840     18843
     18830     18829     18832     18833     18830     18829     18832     18834
     18830     18829     18832     18840     18831     18829     18832     18833
     18831     18829     18832     18834     18831     18829     18832     18840
     18832     18834     18835     18836     18832     18834     18835     18837
     18832     18840     18843     18844     18833     18832     18834     18835
     18833     18832     18840     18841     18833     18832     18840     18842
     18833     18832     18840     18843     18834     18832     18840     18841
     18834     18832     18840     18842     18834     18832     18840     18843
     18834     18835     18837     18838     18834     18835     18837     18839
     18834     18835     18837     18849     18835     18834     18832     18840
     18835     18837     18849     18850     18835     18837     18849     18851
     18835     18837     18849     18852     18836     18835     18837     18838
     18836     18835     18837     18839     18836     18835     18837     18849
     18837     18849     18852     18853     18837     18849     18852     18854
     18837     18849     18852     18855     18838     18837     18849     18850
     18838     18837     18849     18851     18838     18837     18849     18852
     18839     18837     18849     18850     18839     18837     18849     18851
     18839     18837     18849     18852     18840     18843     18844     18845
     18840     18843     18844     18846     18841     18840     18843     18844
     18842     18840     18843     18844     18843     18844     18846     18847
     18843     18844     18846     18848     18843     18844     18846     18896
     18844     18846     18896     18897     18844     18846     18896     18898
     18844     18846     18896     18899     18845     18844     18846     18847
     18845     18844     18846     18848     18845     18844     18846     18896
     18846     18896     18899     18900     18846     18896     18899     18901
     18846     18896     18899     18902     18847     18846     18896     18897
     18847     18846     18896     18898     18847     18846     18896     18899
     18848     18846     18896     18897     18848     18846     18896     18898
     18848     18846     18896     18899     18849     18852     18855     18856
     18849     18852     18855     18857     18849     18852     18855     18858
     18850     18849     18852     18853     18850     18849     18852     18854
     18850     18849     18852     18855     18851     18849     18852     18853
     18851     18849     18852     18854     18851     18849     18852     18855
     18852     18855     18858     18859     18852     18855     18858     18860
     18852     18855     18858     18861     18853     18852     18855     18856
     18853     18852     18855     18857     18853     18852     18855     18858
     18854     18852     18855     18856     18854     18852     18855     18857
     18854     18852     18855     18858     18855     18858     18861     18862
     18855     18858     18861     18863     18855     18858     18861     18864
     18856     18855     18858     18859     18856     18855     18858     18860
     18856     18855     18858     18861     18857     18855     18858     18859
     18857     18855     18858     18860     18857     18855     18858     18861
     18858     18861     18864     18865     18858     18861     18864     18866
     18858     18861     18864     18867     18859     18858     18861     18862
     18859     18858     18861     18863     18859     18858     18861     18864
     18860     18858     18861     18862     18860     18858     18861     18863
     18860     18858     18861     18864     18861     18864     18867     18868
     18861     18864     18867     18869     18862     18861     18864     18865
     18862     18861     18864     18866     18862     18861     18864     18867
     18863     18861     18864     18865     18863     18861     18864     18866
     18863     18861     18864     18867     18864     18867     18869     18870
     18864     18867     18869     18871     18865     18864     18867     18868
     18865     18864     18867     18869     18866     18864     18867     18868
     18866     18864     18867     18869     18867     18869     18871     18872
     18867     18869     18871     18873     18867     18869     18871     18874
     18868     18867     18869     18870     18868     18867     18869     18871
     18869     18871     18874     18875     18869     18871     18874     18876
     18869     18871     18874     18877     18870     18869     18871     18872
     18870     18869     18871     18873     18870     18869     18871     18874
     18871     18874     18877     18878     18871     18874     18877     18879
     18871     18874     18877     18880     18872     18871     18874     18875
     18872     18871     18874     18876     18872     18871     18874     18877
     18873     18871     18874     18875     18873     18871     18874     18876
     18873     18871     18874     18877     18874     18877     18880     18881
     18874     18877     18880     18882     18874     18877     18880     18883
     18875     18874     18877     18878     18875     18874     18877     18879
     18875     18874     18877     18880     18876     18874     18877     18878
     18876     18874     18877     18879     18876     18874     18877     18880
     18877     18880     18883     18884     18877     18880     18883     18885
     18877     18880     18883     18886     18878     18877     18880     18881
     18878     18877     18880     18882     18878     18877     18880     18883
     18879     18877     18880     18881     18879     18877     18880     18882
     18879     18877     18880     18883     18880     18883     18886     18887
     18880     18883     18886     18888     18880     18883     18886     18889
     18881     18880     18883     18884     18881     18880     18883     18885
     18881     18880     18883     18886     18882     18880     18883     18884
     18882     18880     18883     18885     18882     18880     18883     18886
     18883     18886     18889     18890     18883     18886     18889     18891
     18883     18886     18889     18892     18884     18883     18886     18887
     18884     18883     18886     18888     18884     18883     18886     18889
     18885     18883     18886     18887     18885     18883     18886     18888
     18885     18883     18886     18889     18886     18889     18892     18893
     18886     18889     18892     18894     18886     18889     18892     18895
     18887     18886     18889     18890     18887     18886     18889     18891
     18887     18886     18889     18892     18888     18886     18889     18890
     18888     18886     18889     18891     18888     18886     18889     18892
     18890     18889     18892     18893     18890     18889     18892     18894
     18890     18889     18892     18895     18891     18889     18892     18893
     18891     18889     18892     18894     18891     18889     18892     18895
     18896     18899     18902     18903     18896     18899     18902     18904
     18896     18899     18902     18905     18897     18896     18899     18900
     18897     18896     18899     18901     18897     18896     18899     18902
     18898     18896     18899     18900     18898     18896     18899     18901
     18898     18896     18899     18902     18899     18902     18905     18906
     18899     18902     18905     18907     18899     18902     18905     18908
     18900     18899     18902     18903     18900     18899     18902     18904
     18900     18899     18902     18905     18901     18899     18902     18903
     18901     18899     18902     18904     18901     18899     18902     18905
     18902     18905     18908     18909     18902     18905     18908     18910
     18902     18905     18908     18911     18903     18902     18905     18906
     18903     18902     18905     18907     18903     18902     18905     18908
     18904     18902     18905     18906     18904     18902     18905     18907
     18904     18902     18905     18908     18905     18908     18911     18912
     18905     18908     18911     18913     18905     18908     18911     18914
     18906     18905     18908     18909     18906     18905     18908     18910
     18906     18905     18908     18911     18907     18905     18908     18909
     18907     18905     18908     18910     18907     18905     18908     18911
     18908     18911     18914     18915     18908     18911     18914     18916
     18908     18911     18914     18917     18909     18908     18911     18912
     18909     18908     18911     18913     18909     18908     18911     18914
     18910     18908     18911     18912     18910     18908     18911     18913
     18910     18908     18911     18914     18911     18914     18917     18918
     18911     18914     18917     18919     18911     18914     18917     18920
     18912     18911     18914     18915     18912     18911     18914     18916
     18912     18911     18914     18917     18913     18911     18914     18915
     18913     18911     18914     18916     18913     18911     18914     18917
     18914     18917     18920     18921     18914     18917     18920     18922
     18914     18917     18920     18923     18915     18914     18917     18918
     18915     18914     18917     18919     18915     18914     18917     18920
     18916     18914     18917     18918     18916     18914     18917     18919
     18916     18914     18917     18920     18917     18920     18923     18924
     18917     18920     18923     18925     18917     18920     18923     18926
     18918     18917     18920     18921     18918     18917     18920     18922
     18918     18917     18920     18923     18919     18917     18920     18921
     18919     18917     18920     18922     18919     18917     18920     18923
     18920     18923     18926     18927     18920     18923     18926     18928
     18920     18923     18926     18929     18921     18920     18923     18924
     18921     18920     18923     18925     18921     18920     18923     18926
     18922     18920     18923     18924     18922     18920     18923     18925
     18922     18920     18923     18926     18923     18926     18929     18930
     18923     18926     18929     18931     18923     18926     18929     18932
     18924     18923     18926     18927     18924     18923     18926     18928
     18924     18923     18926     18929     18925     18923     18926     18927
     18925     18923     18926     18928     18925     18923     18926     18929
     18926     18929     18932     18933     18926     18929     18932     18934
     18926     18929     18932     18935     18927     18926     18929     18930
     18927     18926     18929     18931     18927     18926     18929     18932
     18928     18926     18929     18930     18928     18926     18929     18931
     18928     18926     18929     18932     18929     18932     18935     18936
     18929     18932     18935     18937     18929     18932     18935     18938
     18930     18929     18932     18933     18930     18929     18932     18934
     18930     18929     18932     18935     18931     18929     18932     18933
     18931     18929     18932     18934     18931     18929     18932     18935
     18933     18932     18935     18936     18933     18932     18935     18937
     18933     18932     18935     18938     18934     18932     18935     18936
     18934     18932     18935     18937     18934     18932     18935     18938
     18939     18940     18955     18956     18939     18940     18955     18957
     18939     18940     18955     18961     18940     18939     18943     18944
     18940     18939     18943     18945     18940     18939     18943     18946
     18940     18939     18947     18948     18940     18939     18947     18949
     18940     18939     18947     18950     18940     18939     18951     18952
     18940     18939     18951     18953     18940     18939     18951     18954
     18940     18955     18961     18958     18941     18940     18939     18943
     18941     18940     18939     18947     18941     18940     18939     18951
     18941     18940     18955     18956     18941     18940     18955     18957
     18941     18940     18955     18961     18942     18940     18939     18943
     18942     18940     18939     18947     18942     18940     18939     18951
     18942     18940     18955     18956     18942     18940     18955     18957
     18942     18940     18955     18961     18943     18939     18940     18955
     18943     18939     18947     18948     18943     18939     18947     18949
     18943     18939     18947     18950     18943     18939     18951     18952
     18943     18939     18951     18953     18943     18939     18951     18954
     18944     18943     18939     18947     18944     18943     18939     18951
     18945     18943     18939     18947     18945     18943     18939     18951
     18946     18943     18939     18947     18946     18943     18939     18951
     18947     18939     18940     18955     18947     18939     18951     18952
     18947     18939     18951     18953     18947     18939     18951     18954
     18948     18947     18939     18951     18949     18947     18939     18951
     18950     18947     18939     18951     18951     18939     18940     18955
     18955     18961     18958     18959     18955     18961     18958     18960
     18955     18961     18958     18962     18956     18955     18961     18958
     18957     18955     18961     18958     18958     18962     18963     18964
     18958     18962     18963     18965     18958     18962     18963     18966
     18959     18958     18962     18963     18960     18958     18962     18963
     18961     18958     18962     18963     18962     18963     18966     18967
     18962     18963     18966     18968     18962     18963     18966     18974
     18963     18966     18968     18969     18963     18966     18974     18975
     18963     18966     18974     18976     18963     18966     18974     18977
     18964     18963     18966     18967     18964     18963     18966     18968
     18964     18963     18966     18974     18965     18963     18966     18967
     18965     18963     18966     18968     18965     18963     18966     18974
     18966     18968     18969     18970     18966     18968     18969     18971
     18966     18974     18977     18978     18967     18966     18968     18969
     18967     18966     18974     18975     18967     18966     18974     18976
     18967     18966     18974     18977     18968     18966     18974     18975
     18968     18966     18974     18976     18968     18966     18974     18977
     18968     18969     18971     18972     18968     18969     18971     18973
     18968     18969     18971     18983     18969     18968     18966     18974
     18969     18971     18983     18984     18969     18971     18983     18985
     18969     18971     18983     18986     18970     18969     18971     18972
     18970     18969     18971     18973     18970     18969     18971     18983
     18971     18983     18986     18987     18971     18983     18986     18988
     18971     18983     18986     18989     18972     18971     18983     18984
     18972     18971     18983     18985     18972     18971     18983     18986
     18973     18971     18983     18984     18973     18971     18983     18985
     18973     18971     18983     18986     18974     18977     18978     18979
     18974     18977     18978     18980     18975     18974     18977     18978
     18976     18974     18977     18978     18977     18978     18980     18981
     18977     18978     18980     18982     18977     18978     18980     19030
     18978     18980     19030     19031     18978     18980     19030     19032
     18978     18980     19030     19033     18979     18978     18980     18981
     18979     18978     18980     18982     18979     18978     18980     19030
     18980     19030     19033     19034     18980     19030     19033     19035
     18980     19030     19033     19036     18981     18980     19030     19031
     18981     18980     19030     19032     18981     18980     19030     19033
     18982     18980     19030     19031     18982     18980     19030     19032
     18982     18980     19030     19033     18983     18986     18989     18990
     18983     18986     18989     18991     18983     18986     18989     18992
     18984     18983     18986     18987     18984     18983     18986     18988
     18984     18983     18986     18989     18985     18983     18986     18987
     18985     18983     18986     18988     18985     18983     18986     18989
     18986     18989     18992     18993     18986     18989     18992     18994
     18986     18989     18992     18995     18987     18986     18989     18990
     18987     18986     18989     18991     18987     18986     18989     18992
     18988     18986     18989     18990     18988     18986     18989     18991
     18988     18986     18989     18992     18989     18992     18995     18996
     18989     18992     18995     18997     18989     18992     18995     18998
     18990     18989     18992     18993     18990     18989     18992     18994
     18990     18989     18992     18995     18991     18989     18992     18993
     18991     18989     18992     18994     18991     18989     18992     18995
     18992     18995     18998     18999     18992     18995     18998     19000
     18992     18995     18998     19001     18993     18992     18995     18996
     18993     18992     18995     18997     18993     18992     18995     18998
     18994     18992     18995     18996     18994     18992     18995     18997
     18994     18992     18995     18998     18995     18998     19001     19002
     18995     18998     19001     19003     18996     18995     18998     18999
     18996     18995     18998     19000     18996     18995     18998     19001
     18997     18995     18998     18999     18997     18995     18998     19000
     18997     18995     18998     19001     18998     19001     19003     19004
     18998     19001     19003     19005     18999     18998     19001     19002
     18999     18998     19001     19003     19000     18998     19001     19002
     19000     18998     19001     19003     19001     19003     19005     19006
     19001     19003     19005     19007     19001     19003     19005     19008
     19002     19001     19003     19004     19002     19001     19003     19005
     19003     19005     19008     19009     19003     19005     19008     19010
     19003     19005     19008     19011     19004     19003     19005     19006
     19004     19003     19005     19007     19004     19003     19005     19008
     19005     19008     19011     19012     19005     19008     19011     19013
     19005     19008     19011     19014     19006     19005     19008     19009
     19006     19005     19008     19010     19006     19005     19008     19011
     19007     19005     19008     19009     19007     19005     19008     19010
     19007     19005     19008     19011     19008     19011     19014     19015
     19008     19011     19014     19016     19008     19011     19014     19017
     19009     19008     19011     19012     19009     19008     19011     19013
     19009     19008     19011     19014     19010     19008     19011     19012
     19010     19008     19011     19013     19010     19008     19011     19014
     19011     19014     19017     19018     19011     19014     19017     19019
     19011     19014     19017     19020     19012     19011     19014     19015
     19012     19011     19014     19016     19012     19011     19014     19017
     19013     19011     19014     19015     19013     19011     19014     19016
     19013     19011     19014     19017     19014     19017     19020     19021
     19014     19017     19020     19022     19014     19017     19020     19023
     19015     19014     19017     19018     19015     19014     19017     19019
     19015     19014     19017     19020     19016     19014     19017     19018
     19016     19014     19017     19019     19016     19014     19017     19020
     19017     19020     19023     19024     19017     19020     19023     19025
     19017     19020     19023     19026     19018     19017     19020     19021
     19018     19017     19020     19022     19018     19017     19020     19023
     19019     19017     19020     19021     19019     19017     19020     19022
     19019     19017     19020     19023     19020     19023     19026     19027
     19020     19023     19026     19028     19020     19023     19026     19029
     19021     19020     19023     19024     19021     19020     19023     19025
     19021     19020     19023     19026     19022     19020     19023     19024
     19022     19020     19023     19025     19022     19020     19023     19026
     19024     19023     19026     19027     19024     19023     19026     19028
     19024     19023     19026     19029     19025     19023     19026     19027
     19025     19023     19026     19028     19025     19023     19026     19029
     19030     19033     19036     19037     19030     19033     19036     19038
     19030     19033     19036     19039     19031     19030     19033     19034
     19031     19030     19033     19035     19031     19030     19033     19036
     19032     19030     19033     19034     19032     19030     19033     19035
     19032     19030     19033     19036     19033     19036     19039     19040
     19033     19036     19039     19041     19033     19036     19039     19042
     19034     19033     19036     19037     19034     19033     19036     19038
     19034     19033     19036     19039     19035     19033     19036     19037
     19035     19033     19036     19038     19035     19033     19036     19039
     19036     19039     19042     19043     19036     19039     19042     19044
     19036     19039     19042     19045     19037     19036     19039     19040
     19037     19036     19039     19041     19037     19036     19039     19042
     19038     19036     19039     19040     19038     19036     19039     19041
     19038     19036     19039     19042     19039     19042     19045     19046
     19039     19042     19045     19047     19039     19042     19045     19048
     19040     19039     19042     19043     19040     19039     19042     19044
     19040     19039     19042     19045     19041     19039     19042     19043
     19041     19039     19042     19044     19041     19039     19042     19045
     19042     19045     19048     19049     19042     19045     19048     19050
     19042     19045     19048     19051     19043     19042     19045     19046
     19043     19042     19045     19047     19043     19042     19045     19048
     19044     19042     19045     19046     19044     19042     19045     19047
     19044     19042     19045     19048     19045     19048     19051     19052
     19045     19048     19051     19053     19045     19048     19051     19054
     19046     19045     19048     19049     19046     19045     19048     19050
     19046     19045     19048     19051     19047     19045     19048     19049
     19047     19045     19048     19050     19047     19045     19048     19051
     19048     19051     19054     19055     19048     19051     19054     19056
     19048     19051     19054     19057     19049     19048     19051     19052
     19049     19048     19051     19053     19049     19048     19051     19054
     19050     19048     19051     19052     19050     19048     19051     19053
     19050     19048     19051     19054     19051     19054     19057     19058
     19051     19054     19057     19059     19051     19054     19057     19060
     19052     19051     19054     19055     19052     19051     19054     19056
     19052     19051     19054     19057     19053     19051     19054     19055
     19053     19051     19054     19056     19053     19051     19054     19057
     19054     19057     19060     19061     19054     19057     19060     19062
     19054     19057     19060     19063     19055     19054     19057     19058
     19055     19054     19057     19059     19055     19054     19057     19060
     19056     19054     19057     19058     19056     19054     19057     19059
     19056     19054     19057     19060     19057     19060     19063     19064
     19057     19060     19063     19065     19057     19060     19063     19066
     19058     19057     19060     19061     19058     19057     19060     19062
     19058     19057     19060     19063     19059     19057     19060     19061
     19059     19057     19060     19062     19059     19057     19060     19063
     19060     19063     19066     19067     19060     19063     19066     19068
     19060     19063     19066     19069     19061     19060     19063     19064
     19061     19060     19063     19065     19061     19060     19063     19066
     19062     19060     19063     19064     19062     19060     19063     19065
     19062     19060     19063     19066     19063     19066     19069     19070
     19063     19066     19069     19071     19063     19066     19069     19072
     19064     19063     19066     19067     19064     19063     19066     19068
     19064     19063     19066     19069     19065     19063     19066     19067
     19065     19063     19066     19068     19065     19063     19066     19069
     19067     19066     19069     19070     19067     19066     19069     19071
     19067     19066     19069     19072     19068     19066     19069     19070
     19068     19066     19069     19071     19068     19066     19069     19072
     19073     19074     19089     19090     19073     19074     19089     19091
     19073     19074     19089     19095     19074     19073     19077     19078
     19074     19073     19077     19079     19074     19073     19077     19080
     19074     19073     19081     19082     19074     19073     19081     19083
     19074     19073     19081     19084     19074     19073     19085     19086
     19074     19073     19085     19087     19074     19073     19085     19088
     19074     19089     19095     19092     19075     19074     19073     19077
     19075     19074     19073     19081     19075     19074     19073     19085
     19075     19074     19089     19090     19075     19074     19089     19091
     19075     19074     19089     19095     19076     19074     19073     19077
     19076     19074     19073     19081     19076     19074     19073     19085
     19076     19074     19089     19090     19076     19074     19089     19091
     19076     19074     19089     19095     19077     19073     19074     19089
     19077     19073     19081     19082     19077     19073     19081     19083
     19077     19073     19081     19084     19077     19073     19085     19086
     19077     19073     19085     19087     19077     19073     19085     19088
     19078     19077     19073     19081     19078     19077     19073     19085
     19079     19077     19073     19081     19079     19077     19073     19085
     19080     19077     19073     19081     19080     19077     19073     19085
     19081     19073     19074     19089     19081     19073     19085     19086
     19081     19073     19085     19087     19081     19073     19085     19088
     19082     19081     19073     19085     19083     19081     19073     19085
     19084     19081     19073     19085     19085     19073     19074     19089
     19089     19095     19092     19093     19089     19095     19092     19094
     19089     19095     19092     19096     19090     19089     19095     19092
     19091     19089     19095     19092     19092     19096     19097     19098
     19092     19096     19097     19099     19092     19096     19097     19100
     19093     19092     19096     19097     19094     19092     19096     19097
     19095     19092     19096     19097     19096     19097     19100     19101
     19096     19097     19100     19102     19096     19097     19100     19108
     19097     19100     19102     19103     19097     19100     19108     19109
     19097     19100     19108     19110     19097     19100     19108     19111
     19098     19097     19100     19101     19098     19097     19100     19102
     19098     19097     19100     19108     19099     19097     19100     19101
     19099     19097     19100     19102     19099     19097     19100     19108
     19100     19102     19103     19104     19100     19102     19103     19105
     19100     19108     19111     19112     19101     19100     19102     19103
     19101     19100     19108     19109     19101     19100     19108     19110
     19101     19100     19108     19111     19102     19100     19108     19109
     19102     19100     19108     19110     19102     19100     19108     19111
     19102     19103     19105     19106     19102     19103     19105     19107
     19102     19103     19105     19117     19103     19102     19100     19108
     19103     19105     19117     19118     19103     19105     19117     19119
     19103     19105     19117     19120     19104     19103     19105     19106
     19104     19103     19105     19107     19104     19103     19105     19117
     19105     19117     19120     19121     19105     19117     19120     19122
     19105     19117     19120     19123     19106     19105     19117     19118
     19106     19105     19117     19119     19106     19105     19117     19120
     19107     19105     19117     19118     19107     19105     19117     19119
     19107     19105     19117     19120     19108     19111     19112     19113
     19108     19111     19112     19114     19109     19108     19111     19112
     19110     19108     19111     19112     19111     19112     19114     19115
     19111     19112     19114     19116     19111     19112     19114     19164
     19112     19114     19164     19165     19112     19114     19164     19166
     19112     19114     19164     19167     19113     19112     19114     19115
     19113     19112     19114     19116     19113     19112     19114     19164
     19114     19164     19167     19168     19114     19164     19167     19169
     19114     19164     19167     19170     19115     19114     19164     19165
     19115     19114     19164     19166     19115     19114     19164     19167
     19116     19114     19164     19165     19116     19114     19164     19166
     19116     19114     19164     19167     19117     19120     19123     19124
     19117     19120     19123     19125     19117     19120     19123     19126
     19118     19117     19120     19121     19118     19117     19120     19122
     19118     19117     19120     19123     19119     19117     19120     19121
     19119     19117     19120     19122     19119     19117     19120     19123
     19120     19123     19126     19127     19120     19123     19126     19128
     19120     19123     19126     19129     19121     19120     19123     19124
     19121     19120     19123     19125     19121     19120     19123     19126
     19122     19120     19123     19124     19122     19120     19123     19125
     19122     19120     19123     19126     19123     19126     19129     19130
     19123     19126     19129     19131     19123     19126     19129     19132
     19124     19123     19126     19127     19124     19123     19126     19128
     19124     19123     19126     19129     19125     19123     19126     19127
     19125     19123     19126     19128     19125     19123     19126     19129
     19126     19129     19132     19133     19126     19129     19132     19134
     19126     19129     19132     19135     19127     19126     19129     19130
     19127     19126     19129     19131     19127     19126     19129     19132
     19128     19126     19129     19130     19128     19126     19129     19131
     19128     19126     19129     19132     19129     19132     19135     19136
     19129     19132     19135     19137     19130     19129     19132     19133
     19130     19129     19132     19134     19130     19129     19132     19135
     19131     19129     19132     19133     19131     19129     19132     19134
     19131     19129     19132     19135     19132     19135     19137     19138
     19132     19135     19137     19139     19133     19132     19135     19136
     19133     19132     19135     19137     19134     19132     19135     19136
     19134     19132     19135     19137     19135     19137     19139     19140
     19135     19137     19139     19141     19135     19137     19139     19142
     19136     19135     19137     19138     19136     19135     19137     19139
     19137     19139     19142     19143     19137     19139     19142     19144
     19137     19139     19142     19145     19138     19137     19139     19140
     19138     19137     19139     19141     19138     19137     19139     19142
     19139     19142     19145     19146     19139     19142     19145     19147
     19139     19142     19145     19148     19140     19139     19142     19143
     19140     19139     19142     19144     19140     19139     19142     19145
     19141     19139     19142     19143     19141     19139     19142     19144
     19141     19139     19142     19145     19142     19145     19148     19149
     19142     19145     19148     19150     19142     19145     19148     19151
     19143     19142     19145     19146     19143     19142     19145     19147
     19143     19142     19145     19148     19144     19142     19145     19146
     19144     19142     19145     19147     19144     19142     19145     19148
     19145     19148     19151     19152     19145     19148     19151     19153
     19145     19148     19151     19154     19146     19145     19148     19149
     19146     19145     19148     19150     19146     19145     19148     19151
     19147     19145     19148     19149     19147     19145     19148     19150
     19147     19145     19148     19151     19148     19151     19154     19155
     19148     19151     19154     19156     19148     19151     19154     19157
     19149     19148     19151     19152     19149     19148     19151     19153
     19149     19148     19151     19154     19150     19148     19151     19152
     19150     19148     19151     19153     19150     19148     19151     19154
     19151     19154     19157     19158     19151     19154     19157     19159
     19151     19154     19157     19160     19152     19151     19154     19155
     19152     19151     19154     19156     19152     19151     19154     19157
     19153     19151     19154     19155     19153     19151     19154     19156
     19153     19151     19154     19157     19154     19157     19160     19161
     19154     19157     19160     19162     19154     19157     19160     19163
     19155     19154     19157     19158     19155     19154     19157     19159
     19155     19154     19157     19160     19156     19154     19157     19158
     19156     19154     19157     19159     19156     19154     19157     19160
     19158     19157     19160     19161     19158     19157     19160     19162
     19158     19157     19160     19163     19159     19157     19160     19161
     19159     19157     19160     19162     19159     19157     19160     19163
     19164     19167     19170     19171     19164     19167     19170     19172
     19164     19167     19170     19173     19165     19164     19167     19168
     19165     19164     19167     19169     19165     19164     19167     19170
     19166     19164     19167     19168     19166     19164     19167     19169
     19166     19164     19167     19170     19167     19170     19173     19174
     19167     19170     19173     19175     19167     19170     19173     19176
     19168     19167     19170     19171     19168     19167     19170     19172
     19168     19167     19170     19173     19169     19167     19170     19171
     19169     19167     19170     19172     19169     19167     19170     19173
     19170     19173     19176     19177     19170     19173     19176     19178
     19170     19173     19176     19179     19171     19170     19173     19174
     19171     19170     19173     19175     19171     19170     19173     19176
     19172     19170     19173     19174     19172     19170     19173     19175
     19172     19170     19173     19176     19173     19176     19179     19180
     19173     19176     19179     19181     19173     19176     19179     19182
     19174     19173     19176     19177     19174     19173     19176     19178
     19174     19173     19176     19179     19175     19173     19176     19177
     19175     19173     19176     19178     19175     19173     19176     19179
     19176     19179     19182     19183     19176     19179     19182     19184
     19176     19179     19182     19185     19177     19176     19179     19180
     19177     19176     19179     19181     19177     19176     19179     19182
     19178     19176     19179     19180     19178     19176     19179     19181
     19178     19176     19179     19182     19179     19182     19185     19186
     19179     19182     19185     19187     19179     19182     19185     19188
     19180     19179     19182     19183     19180     19179     19182     19184
     19180     19179     19182     19185     19181     19179     19182     19183
     19181     19179     19182     19184     19181     19179     19182     19185
     19182     19185     19188     19189     19182     19185     19188     19190
     19182     19185     19188     19191     19183     19182     19185     19186
     19183     19182     19185     19187     19183     19182     19185     19188
     19184     19182     19185     19186     19184     19182     19185     19187
     19184     19182     19185     19188     19185     19188     19191     19192
     19185     19188     19191     19193     19185     19188     19191     19194
     19186     19185     19188     19189     19186     19185     19188     19190
     19186     19185     19188     19191     19187     19185     19188     19189
     19187     19185     19188     19190     19187     19185     19188     19191
     19188     19191     19194     19195     19188     19191     19194     19196
     19188     19191     19194     19197     19189     19188     19191     19192
     19189     19188     19191     19193     19189     19188     19191     19194
     19190     19188     19191     19192     19190     19188     19191     19193
     19190     19188     19191     19194     19191     19194     19197     19198
     19191     19194     19197     19199     19191     19194     19197     19200
     19192     19191     19194     19195     19192     19191     19194     19196
     19192     19191     19194     19197     19193     19191     19194     19195
     19193     19191     19194     19196     19193     19191     19194     19197
     19194     19197     19200     19201     19194     19197     19200     19202
     19194     19197     19200     19203     19195     19194     19197     19198
     19195     19194     19197     19199     19195     19194     19197     19200
     19196     19194     19197     19198     19196     19194     19197     19199
     19196     19194     19197     19200     19197     19200     19203     19204
     19197     19200     19203     19205     19197     19200     19203     19206
     19198     19197     19200     19201     19198     19197     19200     19202
     19198     19197     19200     19203     19199     19197     19200     19201
     19199     19197     19200     19202     19199     19197     19200     19203
     19201     19200     19203     19204     19201     19200     19203     19205
     19201     19200     19203     19206     19202     19200     19203     19204
     19202     19200     19203     19205     19202     19200     19203     19206
     19207     19208     19223     19224     19207     19208     19223     19225
     19207     19208     19223     19229     19208     19207     19211     19212
     19208     19207     19211     19213     19208     19207     19211     19214
     19208     19207     19215     19216     19208     19207     19215     19217
     19208     19207     19215     19218     19208     19207     19219     19220
     19208     19207     19219     19221     19208     19207     19219     19222
     19208     19223     19229     19226     19209     19208     19207     19211
     19209     19208     19207     19215     19209     19208     19207     19219
     19209     19208     19223     19224     19209     19208     19223     19225
     19209     19208     19223     19229     19210     19208     19207     19211
     19210     19208     19207     19215     19210     19208     19207     19219
     19210     19208     19223     19224     19210     19208     19223     19225
     19210     19208     19223     19229     19211     19207     19208     19223
     19211     19207     19215     19216     19211     19207     19215     19217
     19211     19207     19215     19218     19211     19207     19219     19220
     19211     19207     19219     19221     19211     19207     19219     19222
     19212     19211     19207     19215     19212     19211     19207     19219
     19213     19211     19207     19215     19213     19211     19207     19219
     19214     19211     19207     19215     19214     19211     19207     19219
     19215     19207     19208     19223     19215     19207     19219     19220
     19215     19207     19219     19221     19215     19207     19219     19222
     19216     19215     19207     19219     19217     19215     19207     19219
     19218     19215     19207     19219     19219     19207     19208     19223
     19223     19229     19226     19227     19223     19229     19226     19228
     19223     19229     19226     19230     19224     19223     19229     19226
     19225     19223     19229     19226     19226     19230     19231     19232
     19226     19230     19231     19233     19226     19230     19231     19234
     19227     19226     19230     19231     19228     19226     19230     19231
     19229     19226     19230     19231     19230     19231     19234     19235
     19230     19231     19234     19236     19230     19231     19234     19242
     19231     19234     19236     19237     19231     19234     19242     19243
     19231     19234     19242     19244     19231     19234     19242     19245
     19232     19231     19234     19235     19232     19231     19234     19236
     19232     19231     19234     19242     19233     19231     19234     19235
     19233     19231     19234     19236     19233     19231     19234     19242
     19234     19236     19237     19238     19234     19236     19237     19239
     19234     19242     19245     19246     19235     19234     19236     19237
     19235     19234     19242     19243     19235     19234     19242     19244
     19235     19234     19242     19245     19236     19234     19242     19243
     19236     19234     19242     19244     19236     19234     19242     19245
     19236     19237     19239     19240     19236     19237     19239     19241
     19236     19237     19239     19251     19237     19236     19234     19242
     19237     19239     19251     19252     19237     19239     19251     19253
     19237     19239     19251     19254     19238     19237     19239     19240
     19238     19237     19239     19241     19238     19237     19239     19251
     19239     19251     19254     19255     19239     19251     19254     19256
     19239     19251     19254     19257     19240     19239     19251     19252
     19240     19239     19251     19253     19240     19239     19251     19254
     19241     19239     19251     19252     19241     19239     19251     19253
     19241     19239     19251     19254     19242     19245     19246     19247
     19242     19245     19246     19248     19243     19242     19245     19246
     19244     19242     19245     19246     19245     19246     19248     19249
     19245     19246     19248     19250     19245     19246     19248     19298
     19246     19248     19298     19299     19246     19248     19298     19300
     19246     19248     19298     19301     19247     19246     19248     19249
     19247     19246     19248     19250     19247     19246     19248     19298
     19248     19298     19301     19302     19248     19298     19301     19303
     19248     19298     19301     19304     19249     19248     19298     19299
     19249     19248     19298     19300     19249     19248     19298     19301
     19250     19248     19298     19299     19250     19248     19298     19300
     19250     19248     19298     19301     19251     19254     19257     19258
     19251     19254     19257     19259     19251     19254     19257     19260
     19252     19251     19254     19255     19252     19251     19254     19256
     19252     19251     19254     19257     19253     19251     19254     19255
     19253     19251     19254     19256     19253     19251     19254     19257
     19254     19257     19260     19261     19254     19257     19260     19262
     19254     19257     19260     19263     19255     19254     19257     19258
     19255     19254     19257     19259     19255     19254     19257     19260
     19256     19254     19257     19258     19256     19254     19257     19259
     19256     19254     19257     19260     19257     19260     19263     19264
     19257     19260     19263     19265     19257     19260     19263     19266
     19258     19257     19260     19261     19258     19257     19260     19262
     19258     19257     19260     19263     19259     19257     19260     19261
     19259     19257     19260     19262     19259     19257     19260     19263
     19260     19263     19266     19267     19260     19263     19266     19268
     19260     19263     19266     19269     19261     19260     19263     19264
     19261     19260     19263     19265     19261     19260     19263     19266
     19262     19260     19263     19264     19262     19260     19263     19265
     19262     19260     19263     19266     19263     19266     19269     19270
     19263     19266     19269     19271     19264     19263     19266     19267
     19264     19263     19266     19268     19264     19263     19266     19269
     19265     19263     19266     19267     19265     19263     19266     19268
     19265     19263     19266     19269     19266     19269     19271     19272
     19266     19269     19271     19273     19267     19266     19269     19270
     19267     19266     19269     19271     19268     19266     19269     19270
     19268     19266     19269     19271     19269     19271     19273     19274
     19269     19271     19273     19275     19269     19271     19273     19276
     19270     19269     19271     19272     19270     19269     19271     19273
     19271     19273     19276     19277     19271     19273     19276     19278
     19271     19273     19276     19279     19272     19271     19273     19274
     19272     19271     19273     19275     19272     19271     19273     19276
     19273     19276     19279     19280     19273     19276     19279     19281
     19273     19276     19279     19282     19274     19273     19276     19277
     19274     19273     19276     19278     19274     19273     19276     19279
     19275     19273     19276     19277     19275     19273     19276     19278
     19275     19273     19276     19279     19276     19279     19282     19283
     19276     19279     19282     19284     19276     19279     19282     19285
     19277     19276     19279     19280     19277     19276     19279     19281
     19277     19276     19279     19282     19278     19276     19279     19280
     19278     19276     19279     19281     19278     19276     19279     19282
     19279     19282     19285     19286     19279     19282     19285     19287
     19279     19282     19285     19288     19280     19279     19282     19283
     19280     19279     19282     19284     19280     19279     19282     19285
     19281     19279     19282     19283     19281     19279     19282     19284
     19281     19279     19282     19285     19282     19285     19288     19289
     19282     19285     19288     19290     19282     19285     19288     19291
     19283     19282     19285     19286     19283     19282     19285     19287
     19283     19282     19285     19288     19284     19282     19285     19286
     19284     19282     19285     19287     19284     19282     19285     19288
     19285     19288     19291     19292     19285     19288     19291     19293
     19285     19288     19291     19294     19286     19285     19288     19289
     19286     19285     19288     19290     19286     19285     19288     19291
     19287     19285     19288     19289     19287     19285     19288     19290
     19287     19285     19288     19291     19288     19291     19294     19295
     19288     19291     19294     19296     19288     19291     19294     19297
     19289     19288     19291     19292     19289     19288     19291     19293
     19289     19288     19291     19294     19290     19288     19291     19292
     19290     19288     19291     19293     19290     19288     19291     19294
     19292     19291     19294     19295     19292     19291     19294     19296
     19292     19291     19294     19297     19293     19291     19294     19295
     19293     19291     19294     19296     19293     19291     19294     19297
     19298     19301     19304     19305     19298     19301     19304     19306
     19298     19301     19304     19307     19299     19298     19301     19302
     19299     19298     19301     19303     19299     19298     19301     19304
     19300     19298     19301     19302     19300     19298     19301     19303
     19300     19298     19301     19304     19301     19304     19307     19308
     19301     19304     19307     19309     19301     19304     19307     19310
     19302     19301     19304     19305     19302     19301     19304     19306
     19302     19301     19304     19307     19303     19301     19304     19305
     19303     19301     19304     19306     19303     19301     19304     19307
     19304     19307     19310     19311     19304     19307     19310     19312
     19304     19307     19310     19313     19305     19304     19307     19308
     19305     19304     19307     19309     19305     19304     19307     19310
     19306     19304     19307     19308     19306     19304     19307     19309
     19306     19304     19307     19310     19307     19310     19313     19314
     19307     19310     19313     19315     19307     19310     19313     19316
     19308     19307     19310     19311     19308     19307     19310     19312
     19308     19307     19310     19313     19309     19307     19310     19311
     19309     19307     19310     19312     19309     19307     19310     19313
     19310     19313     19316     19317     19310     19313     19316     19318
     19310     19313     19316     19319     19311     19310     19313     19314
     19311     19310     19313     19315     19311     19310     19313     19316
     19312     19310     19313     19314     19312     19310     19313     19315
     19312     19310     19313     19316     19313     19316     19319     19320
     19313     19316     19319     19321     19313     19316     19319     19322
     19314     19313     19316     19317     19314     19313     19316     19318
     19314     19313     19316     19319     19315     19313     19316     19317
     19315     19313     19316     19318     19315     19313     19316     19319
     19316     19319     19322     19323     19316     19319     19322     19324
     19316     19319     19322     19325     19317     19316     19319     19320
     19317     19316     19319     19321     19317     19316     19319     19322
     19318     19316     19319     19320     19318     19316     19319     19321
     19318     19316     19319     19322     19319     19322     19325     19326
     19319     19322     19325     19327     19319     19322     19325     19328
     19320     19319     19322     19323     19320     19319     19322     19324
     19320     19319     19322     19325     19321     19319     19322     19323
     19321     19319     19322     19324     19321     19319     19322     19325
     19322     19325     19328     19329     19322     19325     19328     19330
     19322     19325     19328     19331     19323     19322     19325     19326
     19323     19322     19325     19327     19323     19322     19325     19328
     19324     19322     19325     19326     19324     19322     19325     19327
     19324     19322     19325     19328     19325     19328     19331     19332
     19325     19328     19331     19333     19325     19328     19331     19334
     19326     19325     19328     19329     19326     19325     19328     19330
     19326     19325     19328     19331     19327     19325     19328     19329
     19327     19325     19328     19330     19327     19325     19328     19331
     19328     19331     19334     19335     19328     19331     19334     19336
     19328     19331     19334     19337     19329     19328     19331     19332
     19329     19328     19331     19333     19329     19328     19331     19334
     19330     19328     19331     19332     19330     19328     19331     19333
     19330     19328     19331     19334     19331     19334     19337     19338
     19331     19334     19337     19339     19331     19334     19337     19340
     19332     19331     19334     19335     19332     19331     19334     19336
     19332     19331     19334     19337     19333     19331     19334     19335
     19333     19331     19334     19336     19333     19331     19334     19337
     19335     19334     19337     19338     19335     19334     19337     19339
     19335     19334     19337     19340     19336     19334     19337     19338
     19336     19334     19337     19339     19336     19334     19337     19340
     19341     19345     19347     19348     19341     19345     19347     19349
     19341     19345     19350     19351     19341     19345     19350     19352
     19341     19345     19350     19356     19342     19341     19345     19346
     19342     19341     19345     19347     19342     19341     19345     19350
     19343     19341     19345     19346     19343     19341     19345     19347
     19343     19341     19345     19350     19344     19341     19345     19346
     19344     19341     19345     19347     19344     19341     19345     19350
     19345     19350     19356     19353     19346     19345     19347     19348
     19346     19345     19347     19349     19346     19345     19350     19351
     19346     19345     19350     19352     19346     19345     19350     19356
     19347     19345     19350     19351     19347     19345     19350     19352
     19347     19345     19350     19356     19348     19347     19345     19350
     19349     19347     19345     19350     19350     19356     19353     19354
     19350     19356     19353     19355     19350     19356     19353     19357
     19351     19350     19356     19353     19352     19350     19356     19353
     19353     19357     19358     19359     19353     19357     19358     19360
     19353     19357     19358     19361     19354     19353     19357     19358
     19355     19353     19357     19358     19356     19353     19357     19358
     19357     19358     19361     19362     19357     19358     19361     19363
     19357     19358     19361     19369     19358     19361     19363     19364
     19358     19361     19369     19370     19358     19361     19369     19371
     19358     19361     19369     19372     19359     19358     19361     19362
     19359     19358     19361     19363     19359     19358     19361     19369
     19360     19358     19361     19362     19360     19358     19361     19363
     19360     19358     19361     19369     19361     19363     19364     19365
     19361     19363     19364     19366     19361     19369     19372     19373
     19362     19361     19363     19364     19362     19361     19369     19370
     19362     19361     19369     19371     19362     19361     19369     19372
     19363     19361     19369     19370     19363     19361     19369     19371
     19363     19361     19369     19372     19363     19364     19366     19367
     19363     19364     19366     19368     19363     19364     19366     19378
     19364     19363     19361     19369     19364     19366     19378     19379
     19364     19366     19378     19380     19364     19366     19378     19381
     19365     19364     19366     19367     19365     19364     19366     19368
     19365     19364     19366     19378     19366     19378     19381     19382
     19366     19378     19381     19383     19366     19378     19381     19384
     19367     19366     19378     19379     19367     19366     19378     19380
     19367     19366     19378     19381     19368     19366     19378     19379
     19368     19366     19378     19380     19368     19366     19378     19381
     19369     19372     19373     19374     19369     19372     19373     19375
     19370     19369     19372     19373     19371     19369     19372     19373
     19372     19373     19375     19376     19372     19373     19375     19377
     19372     19373     19375     19425     19373     19375     19425     19426
     19373     19375     19425     19427     19373     19375     19425     19428
     19374     19373     19375     19376     19374     19373     19375     19377
     19374     19373     19375     19425     19375     19425     19428     19429
     19375     19425     19428     19430     19375     19425     19428     19431
     19376     19375     19425     19426     19376     19375     19425     19427
     19376     19375     19425     19428     19377     19375     19425     19426
     19377     19375     19425     19427     19377     19375     19425     19428
     19378     19381     19384     19385     19378     19381     19384     19386
     19378     19381     19384     19387     19379     19378     19381     19382
     19379     19378     19381     19383     19379     19378     19381     19384
     19380     19378     19381     19382     19380     19378     19381     19383
     19380     19378     19381     19384     19381     19384     19387     19388
     19381     19384     19387     19389     19381     19384     19387     19390
     19382     19381     19384     19385     19382     19381     19384     19386
     19382     19381     19384     19387     19383     19381     19384     19385
     19383     19381     19384     19386     19383     19381     19384     19387
     19384     19387     19390     19391     19384     19387     19390     19392
     19384     19387     19390     19393     19385     19384     19387     19388
     19385     19384     19387     19389     19385     19384     19387     19390
     19386     19384     19387     19388     19386     19384     19387     19389
     19386     19384     19387     19390     19387     19390     19393     19394
     19387     19390     19393     19395     19387     19390     19393     19396
     19388     19387     19390     19391     19388     19387     19390     19392
     19388     19387     19390     19393     19389     19387     19390     19391
     19389     19387     19390     19392     19389     19387     19390     19393
     19390     19393     19396     19397     19390     19393     19396     19398
     19391     19390     19393     19394     19391     19390     19393     19395
     19391     19390     19393     19396     19392     19390     19393     19394
     19392     19390     19393     19395     19392     19390     19393     19396
     19393     19396     19398     19399     19393     19396     19398     19400
     19394     19393     19396     19397     19394     19393     19396     19398
     19395     19393     19396     19397     19395     19393     19396     19398
     19396     19398     19400     19401     19396     19398     19400     19402
     19396     19398     19400     19403     19397     19396     19398     19399
     19397     19396     19398     19400     19398     19400     19403     19404
     19398     19400     19403     19405     19398     19400     19403     19406
     19399     19398     19400     19401     19399     19398     19400     19402
     19399     19398     19400     19403     19400     19403     19406     19407
     19400     19403     19406     19408     19400     19403     19406     19409
     19401     19400     19403     19404     19401     19400     19403     19405
     19401     19400     19403     19406     19402     19400     19403     19404
     19402     19400     19403     19405     19402     19400     19403     19406
     19403     19406     19409     19410     19403     19406     19409     19411
     19403     19406     19409     19412     19404     19403     19406     19407
     19404     19403     19406     19408     19404     19403     19406     19409
     19405     19403     19406     19407     19405     19403     19406     19408
     19405     19403     19406     19409     19406     19409     19412     19413
     19406     19409     19412     19414     19406     19409     19412     19415
     19407     19406     19409     19410     19407     19406     19409     19411
     19407     19406     19409     19412     19408     19406     19409     19410
     19408     19406     19409     19411     19408     19406     19409     19412
     19409     19412     19415     19416     19409     19412     19415     19417
     19409     19412     19415     19418     19410     19409     19412     19413
     19410     19409     19412     19414     19410     19409     19412     19415
     19411     19409     19412     19413     19411     19409     19412     19414
     19411     19409     19412     19415     19412     19415     19418     19419
     19412     19415     19418     19420     19412     19415     19418     19421
     19413     19412     19415     19416     19413     19412     19415     19417
     19413     19412     19415     19418     19414     19412     19415     19416
     19414     19412     19415     19417     19414     19412     19415     19418
     19415     19418     19421     19422     19415     19418     19421     19423
     19415     19418     19421     19424     19416     19415     19418     19419
     19416     19415     19418     19420     19416     19415     19418     19421
     19417     19415     19418     19419     19417     19415     19418     19420
     19417     19415     19418     19421     19419     19418     19421     19422
     19419     19418     19421     19423     19419     19418     19421     19424
     19420     19418     19421     19422     19420     19418     19421     19423
     19420     19418     19421     19424     19425     19428     19431     19432
     19425     19428     19431     19433     19425     19428     19431     19434
     19426     19425     19428     19429     19426     19425     19428     19430
     19426     19425     19428     19431     19427     19425     19428     19429
     19427     19425     19428     19430     19427     19425     19428     19431
     19428     19431     19434     19435     19428     19431     19434     19436
     19428     19431     19434     19437     19429     19428     19431     19432
     19429     19428     19431     19433     19429     19428     19431     19434
     19430     19428     19431     19432     19430     19428     19431     19433
     19430     19428     19431     19434     19431     19434     19437     19438
     19431     19434     19437     19439     19431     19434     19437     19440
     19432     19431     19434     19435     19432     19431     19434     19436
     19432     19431     19434     19437     19433     19431     19434     19435
     19433     19431     19434     19436     19433     19431     19434     19437
     19434     19437     19440     19441     19434     19437     19440     19442
     19434     19437     19440     19443     19435     19434     19437     19438
     19435     19434     19437     19439     19435     19434     19437     19440
     19436     19434     19437     19438     19436     19434     19437     19439
     19436     19434     19437     19440     19437     19440     19443     19444
     19437     19440     19443     19445     19437     19440     19443     19446
     19438     19437     19440     19441     19438     19437     19440     19442
     19438     19437     19440     19443     19439     19437     19440     19441
     19439     19437     19440     19442     19439     19437     19440     19443
     19440     19443     19446     19447     19440     19443     19446     19448
     19440     19443     19446     19449     19441     19440     19443     19444
     19441     19440     19443     19445     19441     19440     19443     19446
     19442     19440     19443     19444     19442     19440     19443     19445
     19442     19440     19443     19446     19443     19446     19449     19450
     19443     19446     19449     19451     19443     19446     19449     19452
     19444     19443     19446     19447     19444     19443     19446     19448
     19444     19443     19446     19449     19445     19443     19446     19447
     19445     19443     19446     19448     19445     19443     19446     19449
     19446     19449     19452     19453     19446     19449     19452     19454
     19446     19449     19452     19455     19447     19446     19449     19450
     19447     19446     19449     19451     19447     19446     19449     19452
     19448     19446     19449     19450     19448     19446     19449     19451
     19448     19446     19449     19452     19449     19452     19455     19456
     19449     19452     19455     19457     19449     19452     19455     19458
     19450     19449     19452     19453     19450     19449     19452     19454
     19450     19449     19452     19455     19451     19449     19452     19453
     19451     19449     19452     19454     19451     19449     19452     19455
     19452     19455     19458     19459     19452     19455     19458     19460
     19452     19455     19458     19461     19453     19452     19455     19456
     19453     19452     19455     19457     19453     19452     19455     19458
     19454     19452     19455     19456     19454     19452     19455     19457
     19454     19452     19455     19458     19455     19458     19461     19462
     19455     19458     19461     19463     19455     19458     19461     19464
     19456     19455     19458     19459     19456     19455     19458     19460
     19456     19455     19458     19461     19457     19455     19458     19459
     19457     19455     19458     19460     19457     19455     19458     19461
     19458     19461     19464     19465     19458     19461     19464     19466
     19458     19461     19464     19467     19459     19458     19461     19462
     19459     19458     19461     19463     19459     19458     19461     19464
     19460     19458     19461     19462     19460     19458     19461     19463
     19460     19458     19461     19464     19462     19461     19464     19465
     19462     19461     19464     19466     19462     19461     19464     19467
     19463     19461     19464     19465     19463     19461     19464     19466
     19463     19461     19464     19467     19468     19469     19484     19485
     19468     19469     19484     19486     19468     19469     19484     19490
     19469     19468     19472     19473     19469     19468     19472     19474
     19469     19468     19472     19475     19469     19468     19476     19477
     19469     19468     19476     19478     19469     19468     19476     19479
     19469     19468     19480     19481     19469     19468     19480     19482
     19469     19468     19480     19483     19469     19484     19490     19487
     19470     19469     19468     19472     19470     19469     19468     19476
     19470     19469     19468     19480     19470     19469     19484     19485
     19470     19469     19484     19486     19470     19469     19484     19490
     19471     19469     19468     19472     19471     19469     19468     19476
     19471     19469     19468     19480     19471     19469     19484     19485
     19471     19469     19484     19486     19471     19469     19484     19490
     19472     19468     19469     19484     19472     19468     19476     19477
     19472     19468     19476     19478     19472     19468     19476     19479
     19472     19468     19480     19481     19472     19468     19480     19482
     19472     19468     19480     19483     19473     19472     19468     19476
     19473     19472     19468     19480     19474     19472     19468     19476
     19474     19472     19468     19480     19475     19472     19468     19476
     19475     19472     19468     19480     19476     19468     19469     19484
     19476     19468     19480     19481     19476     19468     19480     19482
     19476     19468     19480     19483     19477     19476     19468     19480
     19478     19476     19468     19480     19479     19476     19468     19480
     19480     19468     19469     19484     19484     19490     19487     19488
     19484     19490     19487     19489     19484     19490     19487     19491
     19485     19484     19490     19487     19486     19484     19490     19487
     19487     19491     19492     19493     19487     19491     19492     19494
     19487     19491     19492     19495     19488     19487     19491     19492
     19489     19487     19491     19492     19490     19487     19491     19492
     19491     19492     19495     19496     19491     19492     19495     19497
     19491     19492     19495     19503     19492     19495     19497     19498
     19492     19495     19503     19504     19492     19495     19503     19505
     19492     19495     19503     19506     19493     19492     19495     19496
     19493     19492     19495     19497     19493     19492     19495     19503
     19494     19492     19495     19496     19494     19492     19495     19497
     19494     19492     19495     19503     19495     19497     19498     19499
     19495     19497     19498     19500     19495     19503     19506     19507
     19496     19495     19497     19498     19496     19495     19503     19504
     19496     19495     19503     19505     19496     19495     19503     19506
     19497     19495     19503     19504     19497     19495     19503     19505
     19497     19495     19503     19506     19497     19498     19500     19501
     19497     19498     19500     19502     19497     19498     19500     19512
     19498     19497     19495     19503     19498     19500     19512     19513
     19498     19500     19512     19514     19498     19500     19512     19515
     19499     19498     19500     19501     19499     19498     19500     19502
     19499     19498     19500     19512     19500     19512     19515     19516
     19500     19512     19515     19517     19500     19512     19515     19518
     19501     19500     19512     19513     19501     19500     19512     19514
     19501     19500     19512     19515     19502     19500     19512     19513
     19502     19500     19512     19514     19502     19500     19512     19515
     19503     19506     19507     19508     19503     19506     19507     19509
     19504     19503     19506     19507     19505     19503     19506     19507
     19506     19507     19509     19510     19506     19507     19509     19511
     19506     19507     19509     19559     19507     19509     19559     19560
     19507     19509     19559     19561     19507     19509     19559     19562
     19508     19507     19509     19510     19508     19507     19509     19511
     19508     19507     19509     19559     19509     19559     19562     19563
     19509     19559     19562     19564     19509     19559     19562     19565
     19510     19509     19559     19560     19510     19509     19559     19561
     19510     19509     19559     19562     19511     19509     19559     19560
     19511     19509     19559     19561     19511     19509     19559     19562
     19512     19515     19518     19519     19512     19515     19518     19520
     19512     19515     19518     19521     19513     19512     19515     19516
     19513     19512     19515     19517     19513     19512     19515     19518
     19514     19512     19515     19516     19514     19512     19515     19517
     19514     19512     19515     19518     19515     19518     19521     19522
     19515     19518     19521     19523     19515     19518     19521     19524
     19516     19515     19518     19519     19516     19515     19518     19520
     19516     19515     19518     19521     19517     19515     19518     19519
     19517     19515     19518     19520     19517     19515     19518     19521
     19518     19521     19524     19525     19518     19521     19524     19526
     19518     19521     19524     19527     19519     19518     19521     19522
     19519     19518     19521     19523     19519     19518     19521     19524
     19520     19518     19521     19522     19520     19518     19521     19523
     19520     19518     19521     19524     19521     19524     19527     19528
     19521     19524     19527     19529     19521     19524     19527     19530
     19522     19521     19524     19525     19522     19521     19524     19526
     19522     19521     19524     19527     19523     19521     19524     19525
     19523     19521     19524     19526     19523     19521     19524     19527
     19524     19527     19530     19531     19524     19527     19530     19532
     19525     19524     19527     19528     19525     19524     19527     19529
     19525     19524     19527     19530     19526     19524     19527     19528
     19526     19524     19527     19529     19526     19524     19527     19530
     19527     19530     19532     19533     19527     19530     19532     19534
     19528     19527     19530     19531     19528     19527     19530     19532
     19529     19527     19530     19531     19529     19527     19530     19532
     19530     19532     19534     19535     19530     19532     19534     19536
     19530     19532     19534     19537     19531     19530     19532     19533
     19531     19530     19532     19534     19532     19534     19537     19538
     19532     19534     19537     19539     19532     19534     19537     19540
     19533     19532     19534     19535     19533     19532     19534     19536
     19533     19532     19534     19537     19534     19537     19540     19541
     19534     19537     19540     19542     19534     19537     19540     19543
     19535     19534     19537     19538     19535     19534     19537     19539
     19535     19534     19537     19540     19536     19534     19537     19538
     19536     19534     19537     19539     19536     19534     19537     19540
     19537     19540     19543     19544     19537     19540     19543     19545
     19537     19540     19543     19546     19538     19537     19540     19541
     19538     19537     19540     19542     19538     19537     19540     19543
     19539     19537     19540     19541     19539     19537     19540     19542
     19539     19537     19540     19543     19540     19543     19546     19547
     19540     19543     19546     19548     19540     19543     19546     19549
     19541     19540     19543     19544     19541     19540     19543     19545
     19541     19540     19543     19546     19542     19540     19543     19544
     19542     19540     19543     19545     19542     19540     19543     19546
     19543     19546     19549     19550     19543     19546     19549     19551
     19543     19546     19549     19552     19544     19543     19546     19547
     19544     19543     19546     19548     19544     19543     19546     19549
     19545     19543     19546     19547     19545     19543     19546     19548
     19545     19543     19546     19549     19546     19549     19552     19553
     19546     19549     19552     19554     19546     19549     19552     19555
     19547     19546     19549     19550     19547     19546     19549     19551
     19547     19546     19549     19552     19548     19546     19549     19550
     19548     19546     19549     19551     19548     19546     19549     19552
     19549     19552     19555     19556     19549     19552     19555     19557
     19549     19552     19555     19558     19550     19549     19552     19553
     19550     19549     19552     19554     19550     19549     19552     19555
     19551     19549     19552     19553     19551     19549     19552     19554
     19551     19549     19552     19555     19553     19552     19555     19556
     19553     19552     19555     19557     19553     19552     19555     19558
     19554     19552     19555     19556     19554     19552     19555     19557
     19554     19552     19555     19558     19559     19562     19565     19566
     19559     19562     19565     19567     19559     19562     19565     19568
     19560     19559     19562     19563     19560     19559     19562     19564
     19560     19559     19562     19565     19561     19559     19562     19563
     19561     19559     19562     19564     19561     19559     19562     19565
     19562     19565     19568     19569     19562     19565     19568     19570
     19562     19565     19568     19571     19563     19562     19565     19566
     19563     19562     19565     19567     19563     19562     19565     19568
     19564     19562     19565     19566     19564     19562     19565     19567
     19564     19562     19565     19568     19565     19568     19571     19572
     19565     19568     19571     19573     19565     19568     19571     19574
     19566     19565     19568     19569     19566     19565     19568     19570
     19566     19565     19568     19571     19567     19565     19568     19569
     19567     19565     19568     19570     19567     19565     19568     19571
     19568     19571     19574     19575     19568     19571     19574     19576
     19568     19571     19574     19577     19569     19568     19571     19572
     19569     19568     19571     19573     19569     19568     19571     19574
     19570     19568     19571     19572     19570     19568     19571     19573
     19570     19568     19571     19574     19571     19574     19577     19578
     19571     19574     19577     19579     19571     19574     19577     19580
     19572     19571     19574     19575     19572     19571     19574     19576
     19572     19571     19574     19577     19573     19571     19574     19575
     19573     19571     19574     19576     19573     19571     19574     19577
     19574     19577     19580     19581     19574     19577     19580     19582
     19574     19577     19580     19583     19575     19574     19577     19578
     19575     19574     19577     19579     19575     19574     19577     19580
     19576     19574     19577     19578     19576     19574     19577     19579
     19576     19574     19577     19580     19577     19580     19583     19584
     19577     19580     19583     19585     19577     19580     19583     19586
     19578     19577     19580     19581     19578     19577     19580     19582
     19578     19577     19580     19583     19579     19577     19580     19581
     19579     19577     19580     19582     19579     19577     19580     19583
     19580     19583     19586     19587     19580     19583     19586     19588
     19580     19583     19586     19589     19581     19580     19583     19584
     19581     19580     19583     19585     19581     19580     19583     19586
     19582     19580     19583     19584     19582     19580     19583     19585
     19582     19580     19583     19586     19583     19586     19589     19590
     19583     19586     19589     19591     19583     19586     19589     19592
     19584     19583     19586     19587     19584     19583     19586     19588
     19584     19583     19586     19589     19585     19583     19586     19587
     19585     19583     19586     19588     19585     19583     19586     19589
     19586     19589     19592     19593     19586     19589     19592     19594
     19586     19589     19592     19595     19587     19586     19589     19590
     19587     19586     19589     19591     19587     19586     19589     19592
     19588     19586     19589     19590     19588     19586     19589     19591
     19588     19586     19589     19592     19589     19592     19595     19596
     19589     19592     19595     19597     19589     19592     19595     19598
     19590     19589     19592     19593     19590     19589     19592     19594
     19590     19589     19592     19595     19591     19589     19592     19593
     19591     19589     19592     19594     19591     19589     19592     19595
     19592     19595     19598     19599     19592     19595     19598     19600
     19592     19595     19598     19601     19593     19592     19595     19596
     19593     19592     19595     19597     19593     19592     19595     19598
     19594     19592     19595     19596     19594     19592     19595     19597
     19594     19592     19595     19598     19596     19595     19598     19599
     19596     19595     19598     19600     19596     19595     19598     19601
     19597     19595     19598     19599     19597     19595     19598     19600
     19597     19595     19598     19601     19602     19603     19618     19619
     19602     19603     19618     19620     19602     19603     19618     19624
     19603     19602     19606     19607     19603     19602     19606     19608
     19603     19602     19606     19609     19603     19602     19610     19611
     19603     19602     19610     19612     19603     19602     19610     19613
     19603     19602     19614     19615     19603     19602     19614     19616
     19603     19602     19614     19617     19603     19618     19624     19621
     19604     19603     19602     19606     19604     19603     19602     19610
     19604     19603     19602     19614     19604     19603     19618     19619
     19604     19603     19618     19620     19604     19603     19618     19624
     19605     19603     19602     19606     19605     19603     19602     19610
     19605     19603     19602     19614     19605     19603     19618     19619
     19605     19603     19618     19620     19605     19603     19618     19624
     19606     19602     19603     19618     19606     19602     19610     19611
     19606     19602     19610     19612     19606     19602     19610     19613
     19606     19602     19614     19615     19606     19602     19614     19616
     19606     19602     19614     19617     19607     19606     19602     19610
     19607     19606     19602     19614     19608     19606     19602     19610
     19608     19606     19602     19614     19609     19606     19602     19610
     19609     19606     19602     19614     19610     19602     19603     19618
     19610     19602     19614     19615     19610     19602     19614     19616
     19610     19602     19614     19617     19611     19610     19602     19614
     19612     19610     19602     19614     19613     19610     19602     19614
     19614     19602     19603     19618     19618     19624     19621     19622
     19618     19624     19621     19623     19618     19624     19621     19625
     19619     19618     19624     19621     19620     19618     19624     19621
     19621     19625     19626     19627     19621     19625     19626     19628
     19621     19625     19626     19629     19622     19621     19625     19626
     19623     19621     19625     19626     19624     19621     19625     19626
     19625     19626     19629     19630     19625     19626     19629     19631
     19625     19626     19629     19637     19626     19629     19631     19632
     19626     19629     19637     19638     19626     19629     19637     19639
     19626     19629     19637     19640     19627     19626     19629     19630
     19627     19626     19629     19631     19627     19626     19629     19637
     19628     19626     19629     19630     19628     19626     19629     19631
     19628     19626     19629     19637     19629     19631     19632     19633
     19629     19631     19632     19634     19629     19637     19640     19641
     19630     19629     19631     19632     19630     19629     19637     19638
     19630     19629     19637     19639     19630     19629     19637     19640
     19631     19629     19637     19638     19631     19629     19637     19639
     19631     19629     19637     19640     19631     19632     19634     19635
     19631     19632     19634     19636     19631     19632     19634     19646
     19632     19631     19629     19637     19632     19634     19646     19647
     19632     19634     19646     19648     19632     19634     19646     19649
     19633     19632     19634     19635     19633     19632     19634     19636
     19633     19632     19634     19646     19634     19646     19649     19650
     19634     19646     19649     19651     19634     19646     19649     19652
     19635     19634     19646     19647     19635     19634     19646     19648
     19635     19634     19646     19649     19636     19634     19646     19647
     19636     19634     19646     19648     19636     19634     19646     19649
     19637     19640     19641     19642     19637     19640     19641     19643
     19638     19637     19640     19641     19639     19637     19640     19641
     19640     19641     19643     19644     19640     19641     19643     19645
     19640     19641     19643     19693     19641     19643     19693     19694
     19641     19643     19693     19695     19641     19643     19693     19696
     19642     19641     19643     19644     19642     19641     19643     19645
     19642     19641     19643     19693     19643     19693     19696     19697
     19643     19693     19696     19698     19643     19693     19696     19699
     19644     19643     19693     19694     19644     19643     19693     19695
     19644     19643     19693     19696     19645     19643     19693     19694
     19645     19643     19693     19695     19645     19643     19693     19696
     19646     19649     19652     19653     19646     19649     19652     19654
     19646     19649     19652     19655     19647     19646     19649     19650
     19647     19646     19649     19651     19647     19646     19649     19652
     19648     19646     19649     19650     19648     19646     19649     19651
     19648     19646     19649     19652     19649     19652     19655     19656
     19649     19652     19655     19657     19649     19652     19655     19658
     19650     19649     19652     19653     19650     19649     19652     19654
     19650     19649     19652     19655     19651     19649     19652     19653
     19651     19649     19652     19654     19651     19649     19652     19655
     19652     19655     19658     19659     19652     19655     19658     19660
     19652     19655     19658     19661     19653     19652     19655     19656
     19653     19652     19655     19657     19653     19652     19655     19658
     19654     19652     19655     19656     19654     19652     19655     19657
     19654     19652     19655     19658     19655     19658     19661     19662
     19655     19658     19661     19663     19655     19658     19661     19664
     19656     19655     19658     19659     19656     19655     19658     19660
     19656     19655     19658     19661     19657     19655     19658     19659
     19657     19655     19658     19660     19657     19655     19658     19661
     19658     19661     19664     19665     19658     19661     19664     19666
     19659     19658     19661     19662     19659     19658     19661     19663
     19659     19658     19661     19664     19660     19658     19661     19662
     19660     19658     19661     19663     19660     19658     19661     19664
     19661     19664     19666     19667     19661     19664     19666     19668
     19662     19661     19664     19665     19662     19661     19664     19666
     19663     19661     19664     19665     19663     19661     19664     19666
     19664     19666     19668     19669     19664     19666     19668     19670
     19664     19666     19668     19671     19665     19664     19666     19667
     19665     19664     19666     19668     19666     19668     19671     19672
     19666     19668     19671     19673     19666     19668     19671     19674
     19667     19666     19668     19669     19667     19666     19668     19670
     19667     19666     19668     19671     19668     19671     19674     19675
     19668     19671     19674     19676     19668     19671     19674     19677
     19669     19668     19671     19672     19669     19668     19671     19673
     19669     19668     19671     19674     19670     19668     19671     19672
     19670     19668     19671     19673     19670     19668     19671     19674
     19671     19674     19677     19678     19671     19674     19677     19679
     19671     19674     19677     19680     19672     19671     19674     19675
     19672     19671     19674     19676     19672     19671     19674     19677
     19673     19671     19674     19675     19673     19671     19674     19676
     19673     19671     19674     19677     19674     19677     19680     19681
     19674     19677     19680     19682     19674     19677     19680     19683
     19675     19674     19677     19678     19675     19674     19677     19679
     19675     19674     19677     19680     19676     19674     19677     19678
     19676     19674     19677     19679     19676     19674     19677     19680
     19677     19680     19683     19684     19677     19680     19683     19685
     19677     19680     19683     19686     19678     19677     19680     19681
     19678     19677     19680     19682     19678     19677     19680     19683
     19679     19677     19680     19681     19679     19677     19680     19682
     19679     19677     19680     19683     19680     19683     19686     19687
     19680     19683     19686     19688     19680     19683     19686     19689
     19681     19680     19683     19684     19681     19680     19683     19685
     19681     19680     19683     19686     19682     19680     19683     19684
     19682     19680     19683     19685     19682     19680     19683     19686
     19683     19686     19689     19690     19683     19686     19689     19691
     19683     19686     19689     19692     19684     19683     19686     19687
     19684     19683     19686     19688     19684     19683     19686     19689
     19685     19683     19686     19687     19685     19683     19686     19688
     19685     19683     19686     19689     19687     19686     19689     19690
     19687     19686     19689     19691     19687     19686     19689     19692
     19688     19686     19689     19690     19688     19686     19689     19691
     19688     19686     19689     19692     19693     19696     19699     19700
     19693     19696     19699     19701     19693     19696     19699     19702
     19694     19693     19696     19697     19694     19693     19696     19698
     19694     19693     19696     19699     19695     19693     19696     19697
     19695     19693     19696     19698     19695     19693     19696     19699
     19696     19699     19702     19703     19696     19699     19702     19704
     19696     19699     19702     19705     19697     19696     19699     19700
     19697     19696     19699     19701     19697     19696     19699     19702
     19698     19696     19699     19700     19698     19696     19699     19701
     19698     19696     19699     19702     19699     19702     19705     19706
     19699     19702     19705     19707     19699     19702     19705     19708
     19700     19699     19702     19703     19700     19699     19702     19704
     19700     19699     19702     19705     19701     19699     19702     19703
     19701     19699     19702     19704     19701     19699     19702     19705
     19702     19705     19708     19709     19702     19705     19708     19710
     19702     19705     19708     19711     19703     19702     19705     19706
     19703     19702     19705     19707     19703     19702     19705     19708
     19704     19702     19705     19706     19704     19702     19705     19707
     19704     19702     19705     19708     19705     19708     19711     19712
     19705     19708     19711     19713     19705     19708     19711     19714
     19706     19705     19708     19709     19706     19705     19708     19710
     19706     19705     19708     19711     19707     19705     19708     19709
     19707     19705     19708     19710     19707     19705     19708     19711
     19708     19711     19714     19715     19708     19711     19714     19716
     19708     19711     19714     19717     19709     19708     19711     19712
     19709     19708     19711     19713     19709     19708     19711     19714
     19710     19708     19711     19712     19710     19708     19711     19713
     19710     19708     19711     19714     19711     19714     19717     19718
     19711     19714     19717     19719     19711     19714     19717     19720
     19712     19711     19714     19715     19712     19711     19714     19716
     19712     19711     19714     19717     19713     19711     19714     19715
     19713     19711     19714     19716     19713     19711     19714     19717
     19714     19717     19720     19721     19714     19717     19720     19722
     19714     19717     19720     19723     19715     19714     19717     19718
     19715     19714     19717     19719     19715     19714     19717     19720
     19716     19714     19717     19718     19716     19714     19717     19719
     19716     19714     19717     19720     19717     19720     19723     19724
     19717     19720     19723     19725     19717     19720     19723     19726
     19718     19717     19720     19721     19718     19717     19720     19722
     19718     19717     19720     19723     19719     19717     19720     19721
     19719     19717     19720     19722     19719     19717     19720     19723
     19720     19723     19726     19727     19720     19723     19726     19728
     19720     19723     19726     19729     19721     19720     19723     19724
     19721     19720     19723     19725     19721     19720     19723     19726
     19722     19720     19723     19724     19722     19720     19723     19725
     19722     19720     19723     19726     19723     19726     19729     19730
     19723     19726     19729     19731     19723     19726     19729     19732
     19724     19723     19726     19727     19724     19723     19726     19728
     19724     19723     19726     19729     19725     19723     19726     19727
     19725     19723     19726     19728     19725     19723     19726     19729
     19726     19729     19732     19733     19726     19729     19732     19734
     19726     19729     19732     19735     19727     19726     19729     19730
     19727     19726     19729     19731     19727     19726     19729     19732
     19728     19726     19729     19730     19728     19726     19729     19731
     19728     19726     19729     19732     19730     19729     19732     19733
     19730     19729     19732     19734     19730     19729     19732     19735
     19731     19729     19732     19733     19731     19729     19732     19734
     19731     19729     19732     19735     19736     19737     19752     19753
     19736     19737     19752     19754     19736     19737     19752     19758
     19737     19736     19740     19741     19737     19736     19740     19742
     19737     19736     19740     19743     19737     19736     19744     19745
     19737     19736     19744     19746     19737     19736     19744     19747
     19737     19736     19748     19749     19737     19736     19748     19750
     19737     19736     19748     19751     19737     19752     19758     19755
     19738     19737     19736     19740     19738     19737     19736     19744
     19738     19737     19736     19748     19738     19737     19752     19753
     19738     19737     19752     19754     19738     19737     19752     19758
     19739     19737     19736     19740     19739     19737     19736     19744
     19739     19737     19736     19748     19739     19737     19752     19753
     19739     19737     19752     19754     19739     19737     19752     19758
     19740     19736     19737     19752     19740     19736     19744     19745
     19740     19736     19744     19746     19740     19736     19744     19747
     19740     19736     19748     19749     19740     19736     19748     19750
     19740     19736     19748     19751     19741     19740     19736     19744
     19741     19740     19736     19748     19742     19740     19736     19744
     19742     19740     19736     19748     19743     19740     19736     19744
     19743     19740     19736     19748     19744     19736     19737     19752
     19744     19736     19748     19749     19744     19736     19748     19750
     19744     19736     19748     19751     19745     19744     19736     19748
     19746     19744     19736     19748     19747     19744     19736     19748
     19748     19736     19737     19752     19752     19758     19755     19756
     19752     19758     19755     19757     19752     19758     19755     19759
     19753     19752     19758     19755     19754     19752     19758     19755
     19755     19759     19760     19761     19755     19759     19760     19762
     19755     19759     19760     19763     19756     19755     19759     19760
     19757     19755     19759     19760     19758     19755     19759     19760
     19759     19760     19763     19764     19759     19760     19763     19765
     19759     19760     19763     19771     19760     19763     19765     19766
     19760     19763     19771     19772     19760     19763     19771     19773
     19760     19763     19771     19774     19761     19760     19763     19764
     19761     19760     19763     19765     19761     19760     19763     19771
     19762     19760     19763     19764     19762     19760     19763     19765
     19762     19760     19763     19771     19763     19765     19766     19767
     19763     19765     19766     19768     19763     19771     19774     19775
     19764     19763     19765     19766     19764     19763     19771     19772
     19764     19763     19771     19773     19764     19763     19771     19774
     19765     19763     19771     19772     19765     19763     19771     19773
     19765     19763     19771     19774     19765     19766     19768     19769
     19765     19766     19768     19770     19765     19766     19768     19780
     19766     19765     19763     19771     19766     19768     19780     19781
     19766     19768     19780     19782     19766     19768     19780     19783
     19767     19766     19768     19769     19767     19766     19768     19770
     19767     19766     19768     19780     19768     19780     19783     19784
     19768     19780     19783     19785     19768     19780     19783     19786
     19769     19768     19780     19781     19769     19768     19780     19782
     19769     19768     19780     19783     19770     19768     19780     19781
     19770     19768     19780     19782     19770     19768     19780     19783
     19771     19774     19775     19776     19771     19774     19775     19777
     19772     19771     19774     19775     19773     19771     19774     19775
     19774     19775     19777     19778     19774     19775     19777     19779
     19774     19775     19777     19827     19775     19777     19827     19828
     19775     19777     19827     19829     19775     19777     19827     19830
     19776     19775     19777     19778     19776     19775     19777     19779
     19776     19775     19777     19827     19777     19827     19830     19831
     19777     19827     19830     19832     19777     19827     19830     19833
     19778     19777     19827     19828     19778     19777     19827     19829
     19778     19777     19827     19830     19779     19777     19827     19828
     19779     19777     19827     19829     19779     19777     19827     19830
     19780     19783     19786     19787     19780     19783     19786     19788
     19780     19783     19786     19789     19781     19780     19783     19784
     19781     19780     19783     19785     19781     19780     19783     19786
     19782     19780     19783     19784     19782     19780     19783     19785
     19782     19780     19783     19786     19783     19786     19789     19790
     19783     19786     19789     19791     19783     19786     19789     19792
     19784     19783     19786     19787     19784     19783     19786     19788
     19784     19783     19786     19789     19785     19783     19786     19787
     19785     19783     19786     19788     19785     19783     19786     19789
     19786     19789     19792     19793     19786     19789     19792     19794
     19786     19789     19792     19795     19787     19786     19789     19790
     19787     19786     19789     19791     19787     19786     19789     19792
     19788     19786     19789     19790     19788     19786     19789     19791
     19788     19786     19789     19792     19789     19792     19795     19796
     19789     19792     19795     19797     19789     19792     19795     19798
     19790     19789     19792     19793     19790     19789     19792     19794
     19790     19789     19792     19795     19791     19789     19792     19793
     19791     19789     19792     19794     19791     19789     19792     19795
     19792     19795     19798     19799     19792     19795     19798     19800
     19793     19792     19795     19796     19793     19792     19795     19797
     19793     19792     19795     19798     19794     19792     19795     19796
     19794     19792     19795     19797     19794     19792     19795     19798
     19795     19798     19800     19801     19795     19798     19800     19802
     19796     19795     19798     19799     19796     19795     19798     19800
     19797     19795     19798     19799     19797     19795     19798     19800
     19798     19800     19802     19803     19798     19800     19802     19804
     19798     19800     19802     19805     19799     19798     19800     19801
     19799     19798     19800     19802     19800     19802     19805     19806
     19800     19802     19805     19807     19800     19802     19805     19808
     19801     19800     19802     19803     19801     19800     19802     19804
     19801     19800     19802     19805     19802     19805     19808     19809
     19802     19805     19808     19810     19802     19805     19808     19811
     19803     19802     19805     19806     19803     19802     19805     19807
     19803     19802     19805     19808     19804     19802     19805     19806
     19804     19802     19805     19807     19804     19802     19805     19808
     19805     19808     19811     19812     19805     19808     19811     19813
     19805     19808     19811     19814     19806     19805     19808     19809
     19806     19805     19808     19810     19806     19805     19808     19811
     19807     19805     19808     19809     19807     19805     19808     19810
     19807     19805     19808     19811     19808     19811     19814     19815
     19808     19811     19814     19816     19808     19811     19814     19817
     19809     19808     19811     19812     19809     19808     19811     19813
     19809     19808     19811     19814     19810     19808     19811     19812
     19810     19808     19811     19813     19810     19808     19811     19814
     19811     19814     19817     19818     19811     19814     19817     19819
     19811     19814     19817     19820     19812     19811     19814     19815
     19812     19811     19814     19816     19812     19811     19814     19817
     19813     19811     19814     19815     19813     19811     19814     19816
     19813     19811     19814     19817     19814     19817     19820     19821
     19814     19817     19820     19822     19814     19817     19820     19823
     19815     19814     19817     19818     19815     19814     19817     19819
     19815     19814     19817     19820     19816     19814     19817     19818
     19816     19814     19817     19819     19816     19814     19817     19820
     19817     19820     19823     19824     19817     19820     19823     19825
     19817     19820     19823     19826     19818     19817     19820     19821
     19818     19817     19820     19822     19818     19817     19820     19823
     19819     19817     19820     19821     19819     19817     19820     19822
     19819     19817     19820     19823     19821     19820     19823     19824
     19821     19820     19823     19825     19821     19820     19823     19826
     19822     19820     19823     19824     19822     19820     19823     19825
     19822     19820     19823     19826     19827     19830     19833     19834
     19827     19830     19833     19835     19827     19830     19833     19836
     19828     19827     19830     19831     19828     19827     19830     19832
     19828     19827     19830     19833     19829     19827     19830     19831
     19829     19827     19830     19832     19829     19827     19830     19833
     19830     19833     19836     19837     19830     19833     19836     19838
     19830     19833     19836     19839     19831     19830     19833     19834
     19831     19830     19833     19835     19831     19830     19833     19836
     19832     19830     19833     19834     19832     19830     19833     19835
     19832     19830     19833     19836     19833     19836     19839     19840
     19833     19836     19839     19841     19833     19836     19839     19842
     19834     19833     19836     19837     19834     19833     19836     19838
     19834     19833     19836     19839     19835     19833     19836     19837
     19835     19833     19836     19838     19835     19833     19836     19839
     19836     19839     19842     19843     19836     19839     19842     19844
     19836     19839     19842     19845     19837     19836     19839     19840
     19837     19836     19839     19841     19837     19836     19839     19842
     19838     19836     19839     19840     19838     19836     19839     19841
     19838     19836     19839     19842     19839     19842     19845     19846
     19839     19842     19845     19847     19839     19842     19845     19848
     19840     19839     19842     19843     19840     19839     19842     19844
     19840     19839     19842     19845     19841     19839     19842     19843
     19841     19839     19842     19844     19841     19839     19842     19845
     19842     19845     19848     19849     19842     19845     19848     19850
     19842     19845     19848     19851     19843     19842     19845     19846
     19843     19842     19845     19847     19843     19842     19845     19848
     19844     19842     19845     19846     19844     19842     19845     19847
     19844     19842     19845     19848     19845     19848     19851     19852
     19845     19848     19851     19853     19845     19848     19851     19854
     19846     19845     19848     19849     19846     19845     19848     19850
     19846     19845     19848     19851     19847     19845     19848     19849
     19847     19845     19848     19850     19847     19845     19848     19851
     19848     19851     19854     19855     19848     19851     19854     19856
     19848     19851     19854     19857     19849     19848     19851     19852
     19849     19848     19851     19853     19849     19848     19851     19854
     19850     19848     19851     19852     19850     19848     19851     19853
     19850     19848     19851     19854     19851     19854     19857     19858
     19851     19854     19857     19859     19851     19854     19857     19860
     19852     19851     19854     19855     19852     19851     19854     19856
     19852     19851     19854     19857     19853     19851     19854     19855
     19853     19851     19854     19856     19853     19851     19854     19857
     19854     19857     19860     19861     19854     19857     19860     19862
     19854     19857     19860     19863     19855     19854     19857     19858
     19855     19854     19857     19859     19855     19854     19857     19860
     19856     19854     19857     19858     19856     19854     19857     19859
     19856     19854     19857     19860     19857     19860     19863     19864
     19857     19860     19863     19865     19857     19860     19863     19866
     19858     19857     19860     19861     19858     19857     19860     19862
     19858     19857     19860     19863     19859     19857     19860     19861
     19859     19857     19860     19862     19859     19857     19860     19863
     19860     19863     19866     19867     19860     19863     19866     19868
     19860     19863     19866     19869     19861     19860     19863     19864
     19861     19860     19863     19865     19861     19860     19863     19866
     19862     19860     19863     19864     19862     19860     19863     19865
     19862     19860     19863     19866     19864     19863     19866     19867
     19864     19863     19866     19868     19864     19863     19866     19869
     19865     19863     19866     19867     19865     19863     19866     19868
     19865     19863     19866     19869     19870     19871     19886     19887
     19870     19871     19886     19888     19870     19871     19886     19892
     19871     19870     19874     19875     19871     19870     19874     19876
     19871     19870     19874     19877     19871     19870     19878     19879
     19871     19870     19878     19880     19871     19870     19878     19881
     19871     19870     19882     19883     19871     19870     19882     19884
     19871     19870     19882     19885     19871     19886     19892     19889
     19872     19871     19870     19874     19872     19871     19870     19878
     19872     19871     19870     19882     19872     19871     19886     19887
     19872     19871     19886     19888     19872     19871     19886     19892
     19873     19871     19870     19874     19873     19871     19870     19878
     19873     19871     19870     19882     19873     19871     19886     19887
     19873     19871     19886     19888     19873     19871     19886     19892
     19874     19870     19871     19886     19874     19870     19878     19879
     19874     19870     19878     19880     19874     19870     19878     19881
     19874     19870     19882     19883     19874     19870     19882     19884
     19874     19870     19882     19885     19875     19874     19870     19878
     19875     19874     19870     19882     19876     19874     19870     19878
     19876     19874     19870     19882     19877     19874     19870     19878
     19877     19874     19870     19882     19878     19870     19871     19886
     19878     19870     19882     19883     19878     19870     19882     19884
     19878     19870     19882     19885     19879     19878     19870     19882
     19880     19878     19870     19882     19881     19878     19870     19882
     19882     19870     19871     19886     19886     19892     19889     19890
     19886     19892     19889     19891     19886     19892     19889     19893
     19887     19886     19892     19889     19888     19886     19892     19889
     19889     19893     19894     19895     19889     19893     19894     19896
     19889     19893     19894     19897     19890     19889     19893     19894
     19891     19889     19893     19894     19892     19889     19893     19894
     19893     19894     19897     19898     19893     19894     19897     19899
     19893     19894     19897     19905     19894     19897     19899     19900
     19894     19897     19905     19906     19894     19897     19905     19907
     19894     19897     19905     19908     19895     19894     19897     19898
     19895     19894     19897     19899     19895     19894     19897     19905
     19896     19894     19897     19898     19896     19894     19897     19899
     19896     19894     19897     19905     19897     19899     19900     19901
     19897     19899     19900     19902     19897     19905     19908     19909
     19898     19897     19899     19900     19898     19897     19905     19906
     19898     19897     19905     19907     19898     19897     19905     19908
     19899     19897     19905     19906     19899     19897     19905     19907
     19899     19897     19905     19908     19899     19900     19902     19903
     19899     19900     19902     19904     19899     19900     19902     19914
     19900     19899     19897     19905     19900     19902     19914     19915
     19900     19902     19914     19916     19900     19902     19914     19917
     19901     19900     19902     19903     19901     19900     19902     19904
     19901     19900     19902     19914     19902     19914     19917     19918
     19902     19914     19917     19919     19902     19914     19917     19920
     19903     19902     19914     19915     19903     19902     19914     19916
     19903     19902     19914     19917     19904     19902     19914     19915
     19904     19902     19914     19916     19904     19902     19914     19917
     19905     19908     19909     19910     19905     19908     19909     19911
     19906     19905     19908     19909     19907     19905     19908     19909
     19908     19909     19911     19912     19908     19909     19911     19913
     19908     19909     19911     19961     19909     19911     19961     19962
     19909     19911     19961     19963     19909     19911     19961     19964
     19910     19909     19911     19912     19910     19909     19911     19913
     19910     19909     19911     19961     19911     19961     19964     19965
     19911     19961     19964     19966     19911     19961     19964     19967
     19912     19911     19961     19962     19912     19911     19961     19963
     19912     19911     19961     19964     19913     19911     19961     19962
     19913     19911     19961     19963     19913     19911     19961     19964
     19914     19917     19920     19921     19914     19917     19920     19922
     19914     19917     19920     19923     19915     19914     19917     19918
     19915     19914     19917     19919     19915     19914     19917     19920
     19916     19914     19917     19918     19916     19914     19917     19919
     19916     19914     19917     19920     19917     19920     19923     19924
     19917     19920     19923     19925     19917     19920     19923     19926
     19918     19917     19920     19921     19918     19917     19920     19922
     19918     19917     19920     19923     19919     19917     19920     19921
     19919     19917     19920     19922     19919     19917     19920     19923
     19920     19923     19926     19927     19920     19923     19926     19928
     19920     19923     19926     19929     19921     19920     19923     19924
     19921     19920     19923     19925     19921     19920     19923     19926
     19922     19920     19923     19924     19922     19920     19923     19925
     19922     19920     19923     19926     19923     19926     19929     19930
     19923     19926     19929     19931     19923     19926     19929     19932
     19924     19923     19926     19927     19924     19923     19926     19928
     19924     19923     19926     19929     19925     19923     19926     19927
     19925     19923     19926     19928     19925     19923     19926     19929
     19926     19929     19932     19933     19926     19929     19932     19934
     19927     19926     19929     19930     19927     19926     19929     19931
     19927     19926     19929     19932     19928     19926     19929     19930
     19928     19926     19929     19931     19928     19926     19929     19932
     19929     19932     19934     19935     19929     19932     19934     19936
     19930     19929     19932     19933     19930     19929     19932     19934
     19931     19929     19932     19933     19931     19929     19932     19934
     19932     19934     19936     19937     19932     19934     19936     19938
     19932     19934     19936     19939     19933     19932     19934     19935
     19933     19932     19934     19936     19934     19936     19939     19940
     19934     19936     19939     19941     19934     19936     19939     19942
     19935     19934     19936     19937     19935     19934     19936     19938
     19935     19934     19936     19939     19936     19939     19942     19943
     19936     19939     19942     19944     19936     19939     19942     19945
     19937     19936     19939     19940     19937     19936     19939     19941
     19937     19936     19939     19942     19938     19936     19939     19940
     19938     19936     19939     19941     19938     19936     19939     19942
     19939     19942     19945     19946     19939     19942     19945     19947
     19939     19942     19945     19948     19940     19939     19942     19943
     19940     19939     19942     19944     19940     19939     19942     19945
     19941     19939     19942     19943     19941     19939     19942     19944
     19941     19939     19942     19945     19942     19945     19948     19949
     19942     19945     19948     19950     19942     19945     19948     19951
     19943     19942     19945     19946     19943     19942     19945     19947
     19943     19942     19945     19948     19944     19942     19945     19946
     19944     19942     19945     19947     19944     19942     19945     19948
     19945     19948     19951     19952     19945     19948     19951     19953
     19945     19948     19951     19954     19946     19945     19948     19949
     19946     19945     19948     19950     19946     19945     19948     19951
     19947     19945     19948     19949     19947     19945     19948     19950
     19947     19945     19948     19951     19948     19951     19954     19955
     19948     19951     19954     19956     19948     19951     19954     19957
     19949     19948     19951     19952     19949     19948     19951     19953
     19949     19948     19951     19954     19950     19948     19951     19952
     19950     19948     19951     19953     19950     19948     19951     19954
     19951     19954     19957     19958     19951     19954     19957     19959
     19951     19954     19957     19960     19952     19951     19954     19955
     19952     19951     19954     19956     19952     19951     19954     19957
     19953     19951     19954     19955     19953     19951     19954     19956
     19953     19951     19954     19957     19955     19954     19957     19958
     19955     19954     19957     19959     19955     19954     19957     19960
     19956     19954     19957     19958     19956     19954     19957     19959
     19956     19954     19957     19960     19961     19964     19967     19968
     19961     19964     19967     19969     19961     19964     19967     19970
     19962     19961     19964     19965     19962     19961     19964     19966
     19962     19961     19964     19967     19963     19961     19964     19965
     19963     19961     19964     19966     19963     19961     19964     19967
     19964     19967     19970     19971     19964     19967     19970     19972
     19964     19967     19970     19973     19965     19964     19967     19968
     19965     19964     19967     19969     19965     19964     19967     19970
     19966     19964     19967     19968     19966     19964     19967     19969
     19966     19964     19967     19970     19967     19970     19973     19974
     19967     19970     19973     19975     19967     19970     19973     19976
     19968     19967     19970     19971     19968     19967     19970     19972
     19968     19967     19970     19973     19969     19967     19970     19971
     19969     19967     19970     19972     19969     19967     19970     19973
     19970     19973     19976     19977     19970     19973     19976     19978
     19970     19973     19976     19979     19971     19970     19973     19974
     19971     19970     19973     19975     19971     19970     19973     19976
     19972     19970     19973     19974     19972     19970     19973     19975
     19972     19970     19973     19976     19973     19976     19979     19980
     19973     19976     19979     19981     19973     19976     19979     19982
     19974     19973     19976     19977     19974     19973     19976     19978
     19974     19973     19976     19979     19975     19973     19976     19977
     19975     19973     19976     19978     19975     19973     19976     19979
     19976     19979     19982     19983     19976     19979     19982     19984
     19976     19979     19982     19985     19977     19976     19979     19980
     19977     19976     19979     19981     19977     19976     19979     19982
     19978     19976     19979     19980     19978     19976     19979     19981
     19978     19976     19979     19982     19979     19982     19985     19986
     19979     19982     19985     19987     19979     19982     19985     19988
     19980     19979     19982     19983     19980     19979     19982     19984
     19980     19979     19982     19985     19981     19979     19982     19983
     19981     19979     19982     19984     19981     19979     19982     19985
     19982     19985     19988     19989     19982     19985     19988     19990
     19982     19985     19988     19991     19983     19982     19985     19986
     19983     19982     19985     19987     19983     19982     19985     19988
     19984     19982     19985     19986     19984     19982     19985     19987
     19984     19982     19985     19988     19985     19988     19991     19992
     19985     19988     19991     19993     19985     19988     19991     19994
     19986     19985     19988     19989     19986     19985     19988     19990
     19986     19985     19988     19991     19987     19985     19988     19989
     19987     19985     19988     19990     19987     19985     19988     19991
     19988     19991     19994     19995     19988     19991     19994     19996
     19988     19991     19994     19997     19989     19988     19991     19992
     19989     19988     19991     19993     19989     19988     19991     19994
     19990     19988     19991     19992     19990     19988     19991     19993
     19990     19988     19991     19994     19991     19994     19997     19998
     19991     19994     19997     19999     19991     19994     19997     20000
     19992     19991     19994     19995     19992     19991     19994     19996
     19992     19991     19994     19997     19993     19991     19994     19995
     19993     19991     19994     19996     19993     19991     19994     19997
     19994     19997     20000     20001     19994     19997     20000     20002
     19994     19997     20000     20003     19995     19994     19997     19998
     19995     19994     19997     19999     19995     19994     19997     20000
     19996     19994     19997     19998     19996     19994     19997     19999
     19996     19994     19997     20000     19998     19997     20000     20001
     19998     19997     20000     20002     19998     19997     20000     20003
     19999     19997     20000     20001     19999     19997     20000     20002
     19999     19997     20000     20003     20004     20005     20020     20021
     20004     20005     20020     20022     20004     20005     20020     20026
     20005     20004     20008     20009     20005     20004     20008     20010
     20005     20004     20008     20011     20005     20004     20012     20013
     20005     20004     20012     20014     20005     20004     20012     20015
     20005     20004     20016     20017     20005     20004     20016     20018
     20005     20004     20016     20019     20005     20020     20026     20023
     20006     20005     20004     20008     20006     20005     20004     20012
     20006     20005     20004     20016     20006     20005     20020     20021
     20006     20005     20020     20022     20006     20005     20020     20026
     20007     20005     20004     20008     20007     20005     20004     20012
     20007     20005     20004     20016     20007     20005     20020     20021
     20007     20005     20020     20022     20007     20005     20020     20026
     20008     20004     20005     20020     20008     20004     20012     20013
     20008     20004     20012     20014     20008     20004     20012     20015
     20008     20004     20016     20017     20008     20004     20016     20018
     20008     20004     20016     20019     20009     20008     20004     20012
     20009     20008     20004     20016     20010     20008     20004     20012
     20010     20008     20004     20016     20011     20008     20004     20012
     20011     20008     20004     20016     20012     20004     20005     20020
     20012     20004     20016     20017     20012     20004     20016     20018
     20012     20004     20016     20019     20013     20012     20004     20016
     20014     20012     20004     20016     20015     20012     20004     20016
     20016     20004     20005     20020     20020     20026     20023     20024
     20020     20026     20023     20025     20020     20026     20023     20027
     20021     20020     20026     20023     20022     20020     20026     20023
     20023     20027     20028     20029     20023     20027     20028     20030
     20023     20027     20028     20031     20024     20023     20027     20028
     20025     20023     20027     20028     20026     20023     20027     20028
     20027     20028     20031     20032     20027     20028     20031     20033
     20027     20028     20031     20039     20028     20031     20033     20034
     20028     20031     20039     20040     20028     20031     20039     20041
     20028     20031     20039     20042     20029     20028     20031     20032
     20029     20028     20031     20033     20029     20028     20031     20039
     20030     20028     20031     20032     20030     20028     20031     20033
     20030     20028     20031     20039     20031     20033     20034     20035
     20031     20033     20034     20036     20031     20039     20042     20043
     20032     20031     20033     20034     20032     20031     20039     20040
     20032     20031     20039     20041     20032     20031     20039     20042
     20033     20031     20039     20040     20033     20031     20039     20041
     20033     20031     20039     20042     20033     20034     20036     20037
     20033     20034     20036     20038     20033     20034     20036     20048
     20034     20033     20031     20039     20034     20036     20048     20049
     20034     20036     20048     20050     20034     20036     20048     20051
     20035     20034     20036     20037     20035     20034     20036     20038
     20035     20034     20036     20048     20036     20048     20051     20052
     20036     20048     20051     20053     20036     20048     20051     20054
     20037     20036     20048     20049     20037     20036     20048     20050
     20037     20036     20048     20051     20038     20036     20048     20049
     20038     20036     20048     20050     20038     20036     20048     20051
     20039     20042     20043     20044     20039     20042     20043     20045
     20040     20039     20042     20043     20041     20039     20042     20043
     20042     20043     20045     20046     20042     20043     20045     20047
     20042     20043     20045     20095     20043     20045     20095     20096
     20043     20045     20095     20097     20043     20045     20095     20098
     20044     20043     20045     20046     20044     20043     20045     20047
     20044     20043     20045     20095     20045     20095     20098     20099
     20045     20095     20098     20100     20045     20095     20098     20101
     20046     20045     20095     20096     20046     20045     20095     20097
     20046     20045     20095     20098     20047     20045     20095     20096
     20047     20045     20095     20097     20047     20045     20095     20098
     20048     20051     20054     20055     20048     20051     20054     20056
     20048     20051     20054     20057     20049     20048     20051     20052
     20049     20048     20051     20053     20049     20048     20051     20054
     20050     20048     20051     20052     20050     20048     20051     20053
     20050     20048     20051     20054     20051     20054     20057     20058
     20051     20054     20057     20059     20051     20054     20057     20060
     20052     20051     20054     20055     20052     20051     20054     20056
     20052     20051     20054     20057     20053     20051     20054     20055
     20053     20051     20054     20056     20053     20051     20054     20057
     20054     20057     20060     20061     20054     20057     20060     20062
     20054     20057     20060     20063     20055     20054     20057     20058
     20055     20054     20057     20059     20055     20054     20057     20060
     20056     20054     20057     20058     20056     20054     20057     20059
     20056     20054     20057     20060     20057     20060     20063     20064
     20057     20060     20063     20065     20057     20060     20063     20066
     20058     20057     20060     20061     20058     20057     20060     20062
     20058     20057     20060     20063     20059     20057     20060     20061
     20059     20057     20060     20062     20059     20057     20060     20063
     20060     20063     20066     20067     20060     20063     20066     20068
     20061     20060     20063     20064     20061     20060     20063     20065
     20061     20060     20063     20066     20062     20060     20063     20064
     20062     20060     20063     20065     20062     20060     20063     20066
     20063     20066     20068     20069     20063     20066     20068     20070
     20064     20063     20066     20067     20064     20063     20066     20068
     20065     20063     20066     20067     20065     20063     20066     20068
     20066     20068     20070     20071     20066     20068     20070     20072
     20066     20068     20070     20073     20067     20066     20068     20069
     20067     20066     20068     20070     20068     20070     20073     20074
     20068     20070     20073     20075     20068     20070     20073     20076
     20069     20068     20070     20071     20069     20068     20070     20072
     20069     20068     20070     20073     20070     20073     20076     20077
     20070     20073     20076     20078     20070     20073     20076     20079
     20071     20070     20073     20074     20071     20070     20073     20075
     20071     20070     20073     20076     20072     20070     20073     20074
     20072     20070     20073     20075     20072     20070     20073     20076
     20073     20076     20079     20080     20073     20076     20079     20081
     20073     20076     20079     20082     20074     20073     20076     20077
     20074     20073     20076     20078     20074     20073     20076     20079
     20075     20073     20076     20077     20075     20073     20076     20078
     20075     20073     20076     20079     20076     20079     20082     20083
     20076     20079     20082     20084     20076     20079     20082     20085
     20077     20076     20079     20080     20077     20076     20079     20081
     20077     20076     20079     20082     20078     20076     20079     20080
     20078     20076     20079     20081     20078     20076     20079     20082
     20079     20082     20085     20086     20079     20082     20085     20087
     20079     20082     20085     20088     20080     20079     20082     20083
     20080     20079     20082     20084     20080     20079     20082     20085
     20081     20079     20082     20083     20081     20079     20082     20084
     20081     20079     20082     20085     20082     20085     20088     20089
     20082     20085     20088     20090     20082     20085     20088     20091
     20083     20082     20085     20086     20083     20082     20085     20087
     20083     20082     20085     20088     20084     20082     20085     20086
     20084     20082     20085     20087     20084     20082     20085     20088
     20085     20088     20091     20092     20085     20088     20091     20093
     20085     20088     20091     20094     20086     20085     20088     20089
     20086     20085     20088     20090     20086     20085     20088     20091
     20087     20085     20088     20089     20087     20085     20088     20090
     20087     20085     20088     20091     20089     20088     20091     20092
     20089     20088     20091     20093     20089     20088     20091     20094
     20090     20088     20091     20092     20090     20088     20091     20093
     20090     20088     20091     20094     20095     20098     20101     20102
     20095     20098     20101     20103     20095     20098     20101     20104
     20096     20095     20098     20099     20096     20095     20098     20100
     20096     20095     20098     20101     20097     20095     20098     20099
     20097     20095     20098     20100     20097     20095     20098     20101
     20098     20101     20104     20105     20098     20101     20104     20106
     20098     20101     20104     20107     20099     20098     20101     20102
     20099     20098     20101     20103     20099     20098     20101     20104
     20100     20098     20101     20102     20100     20098     20101     20103
     20100     20098     20101     20104     20101     20104     20107     20108
     20101     20104     20107     20109     20101     20104     20107     20110
     20102     20101     20104     20105     20102     20101     20104     20106
     20102     20101     20104     20107     20103     20101     20104     20105
     20103     20101     20104     20106     20103     20101     20104     20107
     20104     20107     20110     20111     20104     20107     20110     20112
     20104     20107     20110     20113     20105     20104     20107     20108
     20105     20104     20107     20109     20105     20104     20107     20110
     20106     20104     20107     20108     20106     20104     20107     20109
     20106     20104     20107     20110     20107     20110     20113     20114
     20107     20110     20113     20115     20107     20110     20113     20116
     20108     20107     20110     20111     20108     20107     20110     20112
     20108     20107     20110     20113     20109     20107     20110     20111
     20109     20107     20110     20112     20109     20107     20110     20113
     20110     20113     20116     20117     20110     20113     20116     20118
     20110     20113     20116     20119     20111     20110     20113     20114
     20111     20110     20113     20115     20111     20110     20113     20116
     20112     20110     20113     20114     20112     20110     20113     20115
     20112     20110     20113     20116     20113     20116     20119     20120
     20113     20116     20119     20121     20113     20116     20119     20122
     20114     20113     20116     20117     20114     20113     20116     20118
     20114     20113     20116     20119     20115     20113     20116     20117
     20115     20113     20116     20118     20115     20113     20116     20119
     20116     20119     20122     20123     20116     20119     20122     20124
     20116     20119     20122     20125     20117     20116     20119     20120
     20117     20116     20119     20121     20117     20116     20119     20122
     20118     20116     20119     20120     20118     20116     20119     20121
     20118     20116     20119     20122     20119     20122     20125     20126
     20119     20122     20125     20127     20119     20122     20125     20128
     20120     20119     20122     20123     20120     20119     20122     20124
     20120     20119     20122     20125     20121     20119     20122     20123
     20121     20119     20122     20124     20121     20119     20122     20125
     20122     20125     20128     20129     20122     20125     20128     20130
     20122     20125     20128     20131     20123     20122     20125     20126
     20123     20122     20125     20127     20123     20122     20125     20128
     20124     20122     20125     20126     20124     20122     20125     20127
     20124     20122     20125     20128     20125     20128     20131     20132
     20125     20128     20131     20133     20125     20128     20131     20134
     20126     20125     20128     20129     20126     20125     20128     20130
     20126     20125     20128     20131     20127     20125     20128     20129
     20127     20125     20128     20130     20127     20125     20128     20131
     20128     20131     20134     20135     20128     20131     20134     20136
     20128     20131     20134     20137     20129     20128     20131     20132
     20129     20128     20131     20133     20129     20128     20131     20134
     20130     20128     20131     20132     20130     20128     20131     20133
     20130     20128     20131     20134     20132     20131     20134     20135
     20132     20131     20134     20136     20132     20131     20134     20137
     20133     20131     20134     20135     20133     20131     20134     20136
     20133     20131     20134     20137     20138     20142     20144     20145
     20138     20142     20144     20146     20138     20142     20147     20148
     20138     20142     20147     20149     20138     20142     20147     20153
     20139     20138     20142     20143     20139     20138     20142     20144
     20139     20138     20142     20147     20140     20138     20142     20143
     20140     20138     20142     20144     20140     20138     20142     20147
     20141     20138     20142     20143     20141     20138     20142     20144
     20141     20138     20142     20147     20142     20147     20153     20150
     20143     20142     20144     20145     20143     20142     20144     20146
     20143     20142     20147     20148     20143     20142     20147     20149
     20143     20142     20147     20153     20144     20142     20147     20148
     20144     20142     20147     20149     20144     20142     20147     20153
     20145     20144     20142     20147     20146     20144     20142     20147
     20147     20153     20150     20151     20147     20153     20150     20152
     20147     20153     20150     20154     20148     20147     20153     20150
     20149     20147     20153     20150     20150     20154     20155     20156
     20150     20154     20155     20157     20150     20154     20155     20158
     20151     20150     20154     20155     20152     20150     20154     20155
     20153     20150     20154     20155     20154     20155     20158     20159
     20154     20155     20158     20160     20154     20155     20158     20166
     20155     20158     20160     20161     20155     20158     20166     20167
     20155     20158     20166     20168     20155     20158     20166     20169
     20156     20155     20158     20159     20156     20155     20158     20160
     20156     20155     20158     20166     20157     20155     20158     20159
     20157     20155     20158     20160     20157     20155     20158     20166
     20158     20160     20161     20162     20158     20160     20161     20163
     20158     20166     20169     20170     20159     20158     20160     20161
     20159     20158     20166     20167     20159     20158     20166     20168
     20159     20158     20166     20169     20160     20158     20166     20167
     20160     20158     20166     20168     20160     20158     20166     20169
     20160     20161     20163     20164     20160     20161     20163     20165
     20160     20161     20163     20175     20161     20160     20158     20166
     20161     20163     20175     20176     20161     20163     20175     20177
     20161     20163     20175     20178     20162     20161     20163     20164
     20162     20161     20163     20165     20162     20161     20163     20175
     20163     20175     20178     20179     20163     20175     20178     20180
     20163     20175     20178     20181     20164     20163     20175     20176
     20164     20163     20175     20177     20164     20163     20175     20178
     20165     20163     20175     20176     20165     20163     20175     20177
     20165     20163     20175     20178     20166     20169     20170     20171
     20166     20169     20170     20172     20167     20166     20169     20170
     20168     20166     20169     20170     20169     20170     20172     20173
     20169     20170     20172     20174     20169     20170     20172     20222
     20170     20172     20222     20223     20170     20172     20222     20224
     20170     20172     20222     20225     20171     20170     20172     20173
     20171     20170     20172     20174     20171     20170     20172     20222
     20172     20222     20225     20226     20172     20222     20225     20227
     20172     20222     20225     20228     20173     20172     20222     20223
     20173     20172     20222     20224     20173     20172     20222     20225
     20174     20172     20222     20223     20174     20172     20222     20224
     20174     20172     20222     20225     20175     20178     20181     20182
     20175     20178     20181     20183     20175     20178     20181     20184
     20176     20175     20178     20179     20176     20175     20178     20180
     20176     20175     20178     20181     20177     20175     20178     20179
     20177     20175     20178     20180     20177     20175     20178     20181
     20178     20181     20184     20185     20178     20181     20184     20186
     20178     20181     20184     20187     20179     20178     20181     20182
     20179     20178     20181     20183     20179     20178     20181     20184
     20180     20178     20181     20182     20180     20178     20181     20183
     20180     20178     20181     20184     20181     20184     20187     20188
     20181     20184     20187     20189     20181     20184     20187     20190
     20182     20181     20184     20185     20182     20181     20184     20186
     20182     20181     20184     20187     20183     20181     20184     20185
     20183     20181     20184     20186     20183     20181     20184     20187
     20184     20187     20190     20191     20184     20187     20190     20192
     20184     20187     20190     20193     20185     20184     20187     20188
     20185     20184     20187     20189     20185     20184     20187     20190
     20186     20184     20187     20188     20186     20184     20187     20189
     20186     20184     20187     20190     20187     20190     20193     20194
     20187     20190     20193     20195     20188     20187     20190     20191
     20188     20187     20190     20192     20188     20187     20190     20193
     20189     20187     20190     20191     20189     20187     20190     20192
     20189     20187     20190     20193     20190     20193     20195     20196
     20190     20193     20195     20197     20191     20190     20193     20194
     20191     20190     20193     20195     20192     20190     20193     20194
     20192     20190     20193     20195     20193     20195     20197     20198
     20193     20195     20197     20199     20193     20195     20197     20200
     20194     20193     20195     20196     20194     20193     20195     20197
     20195     20197     20200     20201     20195     20197     20200     20202
     20195     20197     20200     20203     20196     20195     20197     20198
     20196     20195     20197     20199     20196     20195     20197     20200
     20197     20200     20203     20204     20197     20200     20203     20205
     20197     20200     20203     20206     20198     20197     20200     20201
     20198     20197     20200     20202     20198     20197     20200     20203
     20199     20197     20200     20201     20199     20197     20200     20202
     20199     20197     20200     20203     20200     20203     20206     20207
     20200     20203     20206     20208     20200     20203     20206     20209
     20201     20200     20203     20204     20201     20200     20203     20205
     20201     20200     20203     20206     20202     20200     20203     20204
     20202     20200     20203     20205     20202     20200     20203     20206
     20203     20206     20209     20210     20203     20206     20209     20211
     20203     20206     20209     20212     20204     20203     20206     20207
     20204     20203     20206     20208     20204     20203     20206     20209
     20205     20203     20206     20207     20205     20203     20206     20208
     20205     20203     20206     20209     20206     20209     20212     20213
     20206     20209     20212     20214     20206     20209     20212     20215
     20207     20206     20209     20210     20207     20206     20209     20211
     20207     20206     20209     20212     20208     20206     20209     20210
     20208     20206     20209     20211     20208     20206     20209     20212
     20209     20212     20215     20216     20209     20212     20215     20217
     20209     20212     20215     20218     20210     20209     20212     20213
     20210     20209     20212     20214     20210     20209     20212     20215
     20211     20209     20212     20213     20211     20209     20212     20214
     20211     20209     20212     20215     20212     20215     20218     20219
     20212     20215     20218     20220     20212     20215     20218     20221
     20213     20212     20215     20216     20213     20212     20215     20217
     20213     20212     20215     20218     20214     20212     20215     20216
     20214     20212     20215     20217     20214     20212     20215     20218
     20216     20215     20218     20219     20216     20215     20218     20220
     20216     20215     20218     20221     20217     20215     20218     20219
     20217     20215     20218     20220     20217     20215     20218     20221
     20222     20225     20228     20229     20222     20225     20228     20230
     20222     20225     20228     20231     20223     20222     20225     20226
     20223     20222     20225     20227     20223     20222     20225     20228
     20224     20222     20225     20226     20224     20222     20225     20227
     20224     20222     20225     20228     20225     20228     20231     20232
     20225     20228     20231     20233     20225     20228     20231     20234
     20226     20225     20228     20229     20226     20225     20228     20230
     20226     20225     20228     20231     20227     20225     20228     20229
     20227     20225     20228     20230     20227     20225     20228     20231
     20228     20231     20234     20235     20228     20231     20234     20236
     20228     20231     20234     20237     20229     20228     20231     20232
     20229     20228     20231     20233     20229     20228     20231     20234
     20230     20228     20231     20232     20230     20228     20231     20233
     20230     20228     20231     20234     20231     20234     20237     20238
     20231     20234     20237     20239     20231     20234     20237     20240
     20232     20231     20234     20235     20232     20231     20234     20236
     20232     20231     20234     20237     20233     20231     20234     20235
     20233     20231     20234     20236     20233     20231     20234     20237
     20234     20237     20240     20241     20234     20237     20240     20242
     20234     20237     20240     20243     20235     20234     20237     20238
     20235     20234     20237     20239     20235     20234     20237     20240
     20236     20234     20237     20238     20236     20234     20237     20239
     20236     20234     20237     20240     20237     20240     20243     20244
     20237     20240     20243     20245     20237     20240     20243     20246
     20238     20237     20240     20241     20238     20237     20240     20242
     20238     20237     20240     20243     20239     20237     20240     20241
     20239     20237     20240     20242     20239     20237     20240     20243
     20240     20243     20246     20247     20240     20243     20246     20248
     20240     20243     20246     20249     20241     20240     20243     20244
     20241     20240     20243     20245     20241     20240     20243     20246
     20242     20240     20243     20244     20242     20240     20243     20245
     20242     20240     20243     20246     20243     20246     20249     20250
     20243     20246     20249     20251     20243     20246     20249     20252
     20244     20243     20246     20247     20244     20243     20246     20248
     20244     20243     20246     20249     20245     20243     20246     20247
     20245     20243     20246     20248     20245     20243     20246     20249
     20246     20249     20252     20253     20246     20249     20252     20254
     20246     20249     20252     20255     20247     20246     20249     20250
     20247     20246     20249     20251     20247     20246     20249     20252
     20248     20246     20249     20250     20248     20246     20249     20251
     20248     20246     20249     20252     20249     20252     20255     20256
     20249     20252     20255     20257     20249     20252     20255     20258
     20250     20249     20252     20253     20250     20249     20252     20254
     20250     20249     20252     20255     20251     20249     20252     20253
     20251     20249     20252     20254     20251     20249     20252     20255
     20252     20255     20258     20259     20252     20255     20258     20260
     20252     20255     20258     20261     20253     20252     20255     20256
     20253     20252     20255     20257     20253     20252     20255     20258
     20254     20252     20255     20256     20254     20252     20255     20257
     20254     20252     20255     20258     20255     20258     20261     20262
     20255     20258     20261     20263     20255     20258     20261     20264
     20256     20255     20258     20259     20256     20255     20258     20260
     20256     20255     20258     20261     20257     20255     20258     20259
     20257     20255     20258     20260     20257     20255     20258     20261
     20259     20258     20261     20262     20259     20258     20261     20263
     20259     20258     20261     20264     20260     20258     20261     20262
     20260     20258     20261     20263     20260     20258     20261     20264
     20265     20269     20271     20272     20265     20269     20271     20273
     20265     20269     20274     20275     20265     20269     20274     20276
     20265     20269     20274     20280     20266     20265     20269     20270
     20266     20265     20269     20271     20266     20265     20269     20274
     20267     20265     20269     20270     20267     20265     20269     20271
     20267     20265     20269     20274     20268     20265     20269     20270
     20268     20265     20269     20271     20268     20265     20269     20274
     20269     20274     20280     20277     20270     20269     20271     20272
     20270     20269     20271     20273     20270     20269     20274     20275
     20270     20269     20274     20276     20270     20269     20274     20280
     20271     20269     20274     20275     20271     20269     20274     20276
     20271     20269     20274     20280     20272     20271     20269     20274
     20273     20271     20269     20274     20274     20280     20277     20278
     20274     20280     20277     20279     20274     20280     20277     20281
     20275     20274     20280     20277     20276     20274     20280     20277
     20277     20281     20282     20283     20277     20281     20282     20284
     20277     20281     20282     20285     20278     20277     20281     20282
     20279     20277     20281     20282     20280     20277     20281     20282
     20281     20282     20285     20286     20281     20282     20285     20287
     20281     20282     20285     20293     20282     20285     20287     20288
     20282     20285     20293     20294     20282     20285     20293     20295
     20282     20285     20293     20296     20283     20282     20285     20286
     20283     20282     20285     20287     20283     20282     20285     20293
     20284     20282     20285     20286     20284     20282     20285     20287
     20284     20282     20285     20293     20285     20287     20288     20289
     20285     20287     20288     20290     20285     20293     20296     20297
     20286     20285     20287     20288     20286     20285     20293     20294
     20286     20285     20293     20295     20286     20285     20293     20296
     20287     20285     20293     20294     20287     20285     20293     20295
     20287     20285     20293     20296     20287     20288     20290     20291
     20287     20288     20290     20292     20287     20288     20290     20302
     20288     20287     20285     20293     20288     20290     20302     20303
     20288     20290     20302     20304     20288     20290     20302     20305
     20289     20288     20290     20291     20289     20288     20290     20292
     20289     20288     20290     20302     20290     20302     20305     20306
     20290     20302     20305     20307     20290     20302     20305     20308
     20291     20290     20302     20303     20291     20290     20302     20304
     20291     20290     20302     20305     20292     20290     20302     20303
     20292     20290     20302     20304     20292     20290     20302     20305
     20293     20296     20297     20298     20293     20296     20297     20299
     20294     20293     20296     20297     20295     20293     20296     20297
     20296     20297     20299     20300     20296     20297     20299     20301
     20296     20297     20299     20349     20297     20299     20349     20350
     20297     20299     20349     20351     20297     20299     20349     20352
     20298     20297     20299     20300     20298     20297     20299     20301
     20298     20297     20299     20349     20299     20349     20352     20353
     20299     20349     20352     20354     20299     20349     20352     20355
     20300     20299     20349     20350     20300     20299     20349     20351
     20300     20299     20349     20352     20301     20299     20349     20350
     20301     20299     20349     20351     20301     20299     20349     20352
     20302     20305     20308     20309     20302     20305     20308     20310
     20302     20305     20308     20311     20303     20302     20305     20306
     20303     20302     20305     20307     20303     20302     20305     20308
     20304     20302     20305     20306     20304     20302     20305     20307
     20304     20302     20305     20308     20305     20308     20311     20312
     20305     20308     20311     20313     20305     20308     20311     20314
     20306     20305     20308     20309     20306     20305     20308     20310
     20306     20305     20308     20311     20307     20305     20308     20309
     20307     20305     20308     20310     20307     20305     20308     20311
     20308     20311     20314     20315     20308     20311     20314     20316
     20308     20311     20314     20317     20309     20308     20311     20312
     20309     20308     20311     20313     20309     20308     20311     20314
     20310     20308     20311     20312     20310     20308     20311     20313
     20310     20308     20311     20314     20311     20314     20317     20318
     20311     20314     20317     20319     20311     20314     20317     20320
     20312     20311     20314     20315     20312     20311     20314     20316
     20312     20311     20314     20317     20313     20311     20314     20315
     20313     20311     20314     20316     20313     20311     20314     20317
     20314     20317     20320     20321     20314     20317     20320     20322
     20315     20314     20317     20318     20315     20314     20317     20319
     20315     20314     20317     20320     20316     20314     20317     20318
     20316     20314     20317     20319     20316     20314     20317     20320
     20317     20320     20322     20323     20317     20320     20322     20324
     20318     20317     20320     20321     20318     20317     20320     20322
     20319     20317     20320     20321     20319     20317     20320     20322
     20320     20322     20324     20325     20320     20322     20324     20326
     20320     20322     20324     20327     20321     20320     20322     20323
     20321     20320     20322     20324     20322     20324     20327     20328
     20322     20324     20327     20329     20322     20324     20327     20330
     20323     20322     20324     20325     20323     20322     20324     20326
     20323     20322     20324     20327     20324     20327     20330     20331
     20324     20327     20330     20332     20324     20327     20330     20333
     20325     20324     20327     20328     20325     20324     20327     20329
     20325     20324     20327     20330     20326     20324     20327     20328
     20326     20324     20327     20329     20326     20324     20327     20330
     20327     20330     20333     20334     20327     20330     20333     20335
     20327     20330     20333     20336     20328     20327     20330     20331
     20328     20327     20330     20332     20328     20327     20330     20333
     20329     20327     20330     20331     20329     20327     20330     20332
     20329     20327     20330     20333     20330     20333     20336     20337
     20330     20333     20336     20338     20330     20333     20336     20339
     20331     20330     20333     20334     20331     20330     20333     20335
     20331     20330     20333     20336     20332     20330     20333     20334
     20332     20330     20333     20335     20332     20330     20333     20336
     20333     20336     20339     20340     20333     20336     20339     20341
     20333     20336     20339     20342     20334     20333     20336     20337
     20334     20333     20336     20338     20334     20333     20336     20339
     20335     20333     20336     20337     20335     20333     20336     20338
     20335     20333     20336     20339     20336     20339     20342     20343
     20336     20339     20342     20344     20336     20339     20342     20345
     20337     20336     20339     20340     20337     20336     20339     20341
     20337     20336     20339     20342     20338     20336     20339     20340
     20338     20336     20339     20341     20338     20336     20339     20342
     20339     20342     20345     20346     20339     20342     20345     20347
     20339     20342     20345     20348     20340     20339     20342     20343
     20340     20339     20342     20344     20340     20339     20342     20345
     20341     20339     20342     20343     20341     20339     20342     20344
     20341     20339     20342     20345     20343     20342     20345     20346
     20343     20342     20345     20347     20343     20342     20345     20348
     20344     20342     20345     20346     20344     20342     20345     20347
     20344     20342     20345     20348     20349     20352     20355     20356
     20349     20352     20355     20357     20349     20352     20355     20358
     20350     20349     20352     20353     20350     20349     20352     20354
     20350     20349     20352     20355     20351     20349     20352     20353
     20351     20349     20352     20354     20351     20349     20352     20355
     20352     20355     20358     20359     20352     20355     20358     20360
     20352     20355     20358     20361     20353     20352     20355     20356
     20353     20352     20355     20357     20353     20352     20355     20358
     20354     20352     20355     20356     20354     20352     20355     20357
     20354     20352     20355     20358     20355     20358     20361     20362
     20355     20358     20361     20363     20355     20358     20361     20364
     20356     20355     20358     20359     20356     20355     20358     20360
     20356     20355     20358     20361     20357     20355     20358     20359
     20357     20355     20358     20360     20357     20355     20358     20361
     20358     20361     20364     20365     20358     20361     20364     20366
     20358     20361     20364     20367     20359     20358     20361     20362
     20359     20358     20361     20363     20359     20358     20361     20364
     20360     20358     20361     20362     20360     20358     20361     20363
     20360     20358     20361     20364     20361     20364     20367     20368
     20361     20364     20367     20369     20361     20364     20367     20370
     20362     20361     20364     20365     20362     20361     20364     20366
     20362     20361     20364     20367     20363     20361     20364     20365
     20363     20361     20364     20366     20363     20361     20364     20367
     20364     20367     20370     20371     20364     20367     20370     20372
     20364     20367     20370     20373     20365     20364     20367     20368
     20365     20364     20367     20369     20365     20364     20367     20370
     20366     20364     20367     20368     20366     20364     20367     20369
     20366     20364     20367     20370     20367     20370     20373     20374
     20367     20370     20373     20375     20367     20370     20373     20376
     20368     20367     20370     20371     20368     20367     20370     20372
     20368     20367     20370     20373     20369     20367     20370     20371
     20369     20367     20370     20372     20369     20367     20370     20373
     20370     20373     20376     20377     20370     20373     20376     20378
     20370     20373     20376     20379     20371     20370     20373     20374
     20371     20370     20373     20375     20371     20370     20373     20376
     20372     20370     20373     20374     20372     20370     20373     20375
     20372     20370     20373     20376     20373     20376     20379     20380
     20373     20376     20379     20381     20373     20376     20379     20382
     20374     20373     20376     20377     20374     20373     20376     20378
     20374     20373     20376     20379     20375     20373     20376     20377
     20375     20373     20376     20378     20375     20373     20376     20379
     20376     20379     20382     20383     20376     20379     20382     20384
     20376     20379     20382     20385     20377     20376     20379     20380
     20377     20376     20379     20381     20377     20376     20379     20382
     20378     20376     20379     20380     20378     20376     20379     20381
     20378     20376     20379     20382     20379     20382     20385     20386
     20379     20382     20385     20387     20379     20382     20385     20388
     20380     20379     20382     20383     20380     20379     20382     20384
     20380     20379     20382     20385     20381     20379     20382     20383
     20381     20379     20382     20384     20381     20379     20382     20385
     20382     20385     20388     20389     20382     20385     20388     20390
     20382     20385     20388     20391     20383     20382     20385     20386
     20383     20382     20385     20387     20383     20382     20385     20388
     20384     20382     20385     20386     20384     20382     20385     20387
     20384     20382     20385     20388     20386     20385     20388     20389
     20386     20385     20388     20390     20386     20385     20388     20391
     20387     20385     20388     20389     20387     20385     20388     20390
     20387     20385     20388     20391     20392     20393     20408     20409
     20392     20393     20408     20410     20392     20393     20408     20414
     20393     20392     20396     20397     20393     20392     20396     20398
     20393     20392     20396     20399     20393     20392     20400     20401
     20393     20392     20400     20402     20393     20392     20400     20403
     20393     20392     20404     20405     20393     20392     20404     20406
     20393     20392     20404     20407     20393     20408     20414     20411
     20394     20393     20392     20396     20394     20393     20392     20400
     20394     20393     20392     20404     20394     20393     20408     20409
     20394     20393     20408     20410     20394     20393     20408     20414
     20395     20393     20392     20396     20395     20393     20392     20400
     20395     20393     20392     20404     20395     20393     20408     20409
     20395     20393     20408     20410     20395     20393     20408     20414
     20396     20392     20393     20408     20396     20392     20400     20401
     20396     20392     20400     20402     20396     20392     20400     20403
     20396     20392     20404     20405     20396     20392     20404     20406
     20396     20392     20404     20407     20397     20396     20392     20400
     20397     20396     20392     20404     20398     20396     20392     20400
     20398     20396     20392     20404     20399     20396     20392     20400
     20399     20396     20392     20404     20400     20392     20393     20408
     20400     20392     20404     20405     20400     20392     20404     20406
     20400     20392     20404     20407     20401     20400     20392     20404
     20402     20400     20392     20404     20403     20400     20392     20404
     20404     20392     20393     20408     20408     20414     20411     20412
     20408     20414     20411     20413     20408     20414     20411     20415
     20409     20408     20414     20411     20410     20408     20414     20411
     20411     20415     20416     20417     20411     20415     20416     20418
     20411     20415     20416     20419     20412     20411     20415     20416
     20413     20411     20415     20416     20414     20411     20415     20416
     20415     20416     20419     20420     20415     20416     20419     20421
     20415     20416     20419     20427     20416     20419     20421     20422
     20416     20419     20427     20428     20416     20419     20427     20429
     20416     20419     20427     20430     20417     20416     20419     20420
     20417     20416     20419     20421     20417     20416     20419     20427
     20418     20416     20419     20420     20418     20416     20419     20421
     20418     20416     20419     20427     20419     20421     20422     20423
     20419     20421     20422     20424     20419     20427     20430     20431
     20420     20419     20421     20422     20420     20419     20427     20428
     20420     20419     20427     20429     20420     20419     20427     20430
     20421     20419     20427     20428     20421     20419     20427     20429
     20421     20419     20427     20430     20421     20422     20424     20425
     20421     20422     20424     20426     20421     20422     20424     20436
     20422     20421     20419     20427     20422     20424     20436     20437
     20422     20424     20436     20438     20422     20424     20436     20439
     20423     20422     20424     20425     20423     20422     20424     20426
     20423     20422     20424     20436     20424     20436     20439     20440
     20424     20436     20439     20441     20424     20436     20439     20442
     20425     20424     20436     20437     20425     20424     20436     20438
     20425     20424     20436     20439     20426     20424     20436     20437
     20426     20424     20436     20438     20426     20424     20436     20439
     20427     20430     20431     20432     20427     20430     20431     20433
     20428     20427     20430     20431     20429     20427     20430     20431
     20430     20431     20433     20434     20430     20431     20433     20435
     20430     20431     20433     20483     20431     20433     20483     20484
     20431     20433     20483     20485     20431     20433     20483     20486
     20432     20431     20433     20434     20432     20431     20433     20435
     20432     20431     20433     20483     20433     20483     20486     20487
     20433     20483     20486     20488     20433     20483     20486     20489
     20434     20433     20483     20484     20434     20433     20483     20485
     20434     20433     20483     20486     20435     20433     20483     20484
     20435     20433     20483     20485     20435     20433     20483     20486
     20436     20439     20442     20443     20436     20439     20442     20444
     20436     20439     20442     20445     20437     20436     20439     20440
     20437     20436     20439     20441     20437     20436     20439     20442
     20438     20436     20439     20440     20438     20436     20439     20441
     20438     20436     20439     20442     20439     20442     20445     20446
     20439     20442     20445     20447     20439     20442     20445     20448
     20440     20439     20442     20443     20440     20439     20442     20444
     20440     20439     20442     20445     20441     20439     20442     20443
     20441     20439     20442     20444     20441     20439     20442     20445
     20442     20445     20448     20449     20442     20445     20448     20450
     20442     20445     20448     20451     20443     20442     20445     20446
     20443     20442     20445     20447     20443     20442     20445     20448
     20444     20442     20445     20446     20444     20442     20445     20447
     20444     20442     20445     20448     20445     20448     20451     20452
     20445     20448     20451     20453     20445     20448     20451     20454
     20446     20445     20448     20449     20446     20445     20448     20450
     20446     20445     20448     20451     20447     20445     20448     20449
     20447     20445     20448     20450     20447     20445     20448     20451
     20448     20451     20454     20455     20448     20451     20454     20456
     20449     20448     20451     20452     20449     20448     20451     20453
     20449     20448     20451     20454     20450     20448     20451     20452
     20450     20448     20451     20453     20450     20448     20451     20454
     20451     20454     20456     20457     20451     20454     20456     20458
     20452     20451     20454     20455     20452     20451     20454     20456
     20453     20451     20454     20455     20453     20451     20454     20456
     20454     20456     20458     20459     20454     20456     20458     20460
     20454     20456     20458     20461     20455     20454     20456     20457
     20455     20454     20456     20458     20456     20458     20461     20462
     20456     20458     20461     20463     20456     20458     20461     20464
     20457     20456     20458     20459     20457     20456     20458     20460
     20457     20456     20458     20461     20458     20461     20464     20465
     20458     20461     20464     20466     20458     20461     20464     20467
     20459     20458     20461     20462     20459     20458     20461     20463
     20459     20458     20461     20464     20460     20458     20461     20462
     20460     20458     20461     20463     20460     20458     20461     20464
     20461     20464     20467     20468     20461     20464     20467     20469
     20461     20464     20467     20470     20462     20461     20464     20465
     20462     20461     20464     20466     20462     20461     20464     20467
     20463     20461     20464     20465     20463     20461     20464     20466
     20463     20461     20464     20467     20464     20467     20470     20471
     20464     20467     20470     20472     20464     20467     20470     20473
     20465     20464     20467     20468     20465     20464     20467     20469
     20465     20464     20467     20470     20466     20464     20467     20468
     20466     20464     20467     20469     20466     20464     20467     20470
     20467     20470     20473     20474     20467     20470     20473     20475
     20467     20470     20473     20476     20468     20467     20470     20471
     20468     20467     20470     20472     20468     20467     20470     20473
     20469     20467     20470     20471     20469     20467     20470     20472
     20469     20467     20470     20473     20470     20473     20476     20477
     20470     20473     20476     20478     20470     20473     20476     20479
     20471     20470     20473     20474     20471     20470     20473     20475
     20471     20470     20473     20476     20472     20470     20473     20474
     20472     20470     20473     20475     20472     20470     20473     20476
     20473     20476     20479     20480     20473     20476     20479     20481
     20473     20476     20479     20482     20474     20473     20476     20477
     20474     20473     20476     20478     20474     20473     20476     20479
     20475     20473     20476     20477     20475     20473     20476     20478
     20475     20473     20476     20479     20477     20476     20479     20480
     20477     20476     20479     20481     20477     20476     20479     20482
     20478     20476     20479     20480     20478     20476     20479     20481
     20478     20476     20479     20482     20483     20486     20489     20490
     20483     20486     20489     20491     20483     20486     20489     20492
     20484     20483     20486     20487     20484     20483     20486     20488
     20484     20483     20486     20489     20485     20483     20486     20487
     20485     20483     20486     20488     20485     20483     20486     20489
     20486     20489     20492     20493     20486     20489     20492     20494
     20486     20489     20492     20495     20487     20486     20489     20490
     20487     20486     20489     20491     20487     20486     20489     20492
     20488     20486     20489     20490     20488     20486     20489     20491
     20488     20486     20489     20492     20489     20492     20495     20496
     20489     20492     20495     20497     20489     20492     20495     20498
     20490     20489     20492     20493     20490     20489     20492     20494
     20490     20489     20492     20495     20491     20489     20492     20493
     20491     20489     20492     20494     20491     20489     20492     20495
     20492     20495     20498     20499     20492     20495     20498     20500
     20492     20495     20498     20501     20493     20492     20495     20496
     20493     20492     20495     20497     20493     20492     20495     20498
     20494     20492     20495     20496     20494     20492     20495     20497
     20494     20492     20495     20498     20495     20498     20501     20502
     20495     20498     20501     20503     20495     20498     20501     20504
     20496     20495     20498     20499     20496     20495     20498     20500
     20496     20495     20498     20501     20497     20495     20498     20499
     20497     20495     20498     20500     20497     20495     20498     20501
     20498     20501     20504     20505     20498     20501     20504     20506
     20498     20501     20504     20507     20499     20498     20501     20502
     20499     20498     20501     20503     20499     20498     20501     20504
     20500     20498     20501     20502     20500     20498     20501     20503
     20500     20498     20501     20504     20501     20504     20507     20508
     20501     20504     20507     20509     20501     20504     20507     20510
     20502     20501     20504     20505     20502     20501     20504     20506
     20502     20501     20504     20507     20503     20501     20504     20505
     20503     20501     20504     20506     20503     20501     20504     20507
     20504     20507     20510     20511     20504     20507     20510     20512
     20504     20507     20510     20513     20505     20504     20507     20508
     20505     20504     20507     20509     20505     20504     20507     20510
     20506     20504     20507     20508     20506     20504     20507     20509
     20506     20504     20507     20510     20507     20510     20513     20514
     20507     20510     20513     20515     20507     20510     20513     20516
     20508     20507     20510     20511     20508     20507     20510     20512
     20508     20507     20510     20513     20509     20507     20510     20511
     20509     20507     20510     20512     20509     20507     20510     20513
     20510     20513     20516     20517     20510     20513     20516     20518
     20510     20513     20516     20519     20511     20510     20513     20514
     20511     20510     20513     20515     20511     20510     20513     20516
     20512     20510     20513     20514     20512     20510     20513     20515
     20512     20510     20513     20516     20513     20516     20519     20520
     20513     20516     20519     20521     20513     20516     20519     20522
     20514     20513     20516     20517     20514     20513     20516     20518
     20514     20513     20516     20519     20515     20513     20516     20517
     20515     20513     20516     20518     20515     20513     20516     20519
     20516     20519     20522     20523     20516     20519     20522     20524
     20516     20519     20522     20525     20517     20516     20519     20520
     20517     20516     20519     20521     20517     20516     20519     20522
     20518     20516     20519     20520     20518     20516     20519     20521
     20518     20516     20519     20522     20520     20519     20522     20523
     20520     20519     20522     20524     20520     20519     20522     20525
     20521     20519     20522     20523     20521     20519     20522     20524
     20521     20519     20522     20525     20526     20527     20542     20543
     20526     20527     20542     20544     20526     20527     20542     20548
     20527     20526     20530     20531     20527     20526     20530     20532
     20527     20526     20530     20533     20527     20526     20534     20535
     20527     20526     20534     20536     20527     20526     20534     20537
     20527     20526     20538     20539     20527     20526     20538     20540
     20527     20526     20538     20541     20527     20542     20548     20545
     20528     20527     20526     20530     20528     20527     20526     20534
     20528     20527     20526     20538     20528     20527     20542     20543
     20528     20527     20542     20544     20528     20527     20542     20548
     20529     20527     20526     20530     20529     20527     20526     20534
     20529     20527     20526     20538     20529     20527     20542     20543
     20529     20527     20542     20544     20529     20527     20542     20548
     20530     20526     20527     20542     20530     20526     20534     20535
     20530     20526     20534     20536     20530     20526     20534     20537
     20530     20526     20538     20539     20530     20526     20538     20540
     20530     20526     20538     20541     20531     20530     20526     20534
     20531     20530     20526     20538     20532     20530     20526     20534
     20532     20530     20526     20538     20533     20530     20526     20534
     20533     20530     20526     20538     20534     20526     20527     20542
     20534     20526     20538     20539     20534     20526     20538     20540
     20534     20526     20538     20541     20535     20534     20526     20538
     20536     20534     20526     20538     20537     20534     20526     20538
     20538     20526     20527     20542     20542     20548     20545     20546
     20542     20548     20545     20547     20542     20548     20545     20549
     20543     20542     20548     20545     20544     20542     20548     20545
     20545     20549     20550     20551     20545     20549     20550     20552
     20545     20549     20550     20553     20546     20545     20549     20550
     20547     20545     20549     20550     20548     20545     20549     20550
     20549     20550     20553     20554     20549     20550     20553     20555
     20549     20550     20553     20561     20550     20553     20555     20556
     20550     20553     20561     20562     20550     20553     20561     20563
     20550     20553     20561     20564     20551     20550     20553     20554
     20551     20550     20553     20555     20551     20550     20553     20561
     20552     20550     20553     20554     20552     20550     20553     20555
     20552     20550     20553     20561     20553     20555     20556     20557
     20553     20555     20556     20558     20553     20561     20564     20565
     20554     20553     20555     20556     20554     20553     20561     20562
     20554     20553     20561     20563     20554     20553     20561     20564
     20555     20553     20561     20562     20555     20553     20561     20563
     20555     20553     20561     20564     20555     20556     20558     20559
     20555     20556     20558     20560     20555     20556     20558     20570
     20556     20555     20553     20561     20556     20558     20570     20571
     20556     20558     20570     20572     20556     20558     20570     20573
     20557     20556     20558     20559     20557     20556     20558     20560
     20557     20556     20558     20570     20558     20570     20573     20574
     20558     20570     20573     20575     20558     20570     20573     20576
     20559     20558     20570     20571     20559     20558     20570     20572
     20559     20558     20570     20573     20560     20558     20570     20571
     20560     20558     20570     20572     20560     20558     20570     20573
     20561     20564     20565     20566     20561     20564     20565     20567
     20562     20561     20564     20565     20563     20561     20564     20565
     20564     20565     20567     20568     20564     20565     20567     20569
     20564     20565     20567     20617     20565     20567     20617     20618
     20565     20567     20617     20619     20565     20567     20617     20620
     20566     20565     20567     20568     20566     20565     20567     20569
     20566     20565     20567     20617     20567     20617     20620     20621
     20567     20617     20620     20622     20567     20617     20620     20623
     20568     20567     20617     20618     20568     20567     20617     20619
     20568     20567     20617     20620     20569     20567     20617     20618
     20569     20567     20617     20619     20569     20567     20617     20620
     20570     20573     20576     20577     20570     20573     20576     20578
     20570     20573     20576     20579     20571     20570     20573     20574
     20571     20570     20573     20575     20571     20570     20573     20576
     20572     20570     20573     20574     20572     20570     20573     20575
     20572     20570     20573     20576     20573     20576     20579     20580
     20573     20576     20579     20581     20573     20576     20579     20582
     20574     20573     20576     20577     20574     20573     20576     20578
     20574     20573     20576     20579     20575     20573     20576     20577
     20575     20573     20576     20578     20575     20573     20576     20579
     20576     20579     20582     20583     20576     20579     20582     20584
     20576     20579     20582     20585     20577     20576     20579     20580
     20577     20576     20579     20581     20577     20576     20579     20582
     20578     20576     20579     20580     20578     20576     20579     20581
     20578     20576     20579     20582     20579     20582     20585     20586
     20579     20582     20585     20587     20579     20582     20585     20588
     20580     20579     20582     20583     20580     20579     20582     20584
     20580     20579     20582     20585     20581     20579     20582     20583
     20581     20579     20582     20584     20581     20579     20582     20585
     20582     20585     20588     20589     20582     20585     20588     20590
     20583     20582     20585     20586     20583     20582     20585     20587
     20583     20582     20585     20588     20584     20582     20585     20586
     20584     20582     20585     20587     20584     20582     20585     20588
     20585     20588     20590     20591     20585     20588     20590     20592
     20586     20585     20588     20589     20586     20585     20588     20590
     20587     20585     20588     20589     20587     20585     20588     20590
     20588     20590     20592     20593     20588     20590     20592     20594
     20588     20590     20592     20595     20589     20588     20590     20591
     20589     20588     20590     20592     20590     20592     20595     20596
     20590     20592     20595     20597     20590     20592     20595     20598
     20591     20590     20592     20593     20591     20590     20592     20594
     20591     20590     20592     20595     20592     20595     20598     20599
     20592     20595     20598     20600     20592     20595     20598     20601
     20593     20592     20595     20596     20593     20592     20595     20597
     20593     20592     20595     20598     20594     20592     20595     20596
     20594     20592     20595     20597     20594     20592     20595     20598
     20595     20598     20601     20602     20595     20598     20601     20603
     20595     20598     20601     20604     20596     20595     20598     20599
     20596     20595     20598     20600     20596     20595     20598     20601
     20597     20595     20598     20599     20597     20595     20598     20600
     20597     20595     20598     20601     20598     20601     20604     20605
     20598     20601     20604     20606     20598     20601     20604     20607
     20599     20598     20601     20602     20599     20598     20601     20603
     20599     20598     20601     20604     20600     20598     20601     20602
     20600     20598     20601     20603     20600     20598     20601     20604
     20601     20604     20607     20608     20601     20604     20607     20609
     20601     20604     20607     20610     20602     20601     20604     20605
     20602     20601     20604     20606     20602     20601     20604     20607
     20603     20601     20604     20605     20603     20601     20604     20606
     20603     20601     20604     20607     20604     20607     20610     20611
     20604     20607     20610     20612     20604     20607     20610     20613
     20605     20604     20607     20608     20605     20604     20607     20609
     20605     20604     20607     20610     20606     20604     20607     20608
     20606     20604     20607     20609     20606     20604     20607     20610
     20607     20610     20613     20614     20607     20610     20613     20615
     20607     20610     20613     20616     20608     20607     20610     20611
     20608     20607     20610     20612     20608     20607     20610     20613
     20609     20607     20610     20611     20609     20607     20610     20612
     20609     20607     20610     20613     20611     20610     20613     20614
     20611     20610     20613     20615     20611     20610     20613     20616
     20612     20610     20613     20614     20612     20610     20613     20615
     20612     20610     20613     20616     20617     20620     20623     20624
     20617     20620     20623     20625     20617     20620     20623     20626
     20618     20617     20620     20621     20618     20617     20620     20622
     20618     20617     20620     20623     20619     20617     20620     20621
     20619     20617     20620     20622     20619     20617     20620     20623
     20620     20623     20626     20627     20620     20623     20626     20628
     20620     20623     20626     20629     20621     20620     20623     20624
     20621     20620     20623     20625     20621     20620     20623     20626
     20622     20620     20623     20624     20622     20620     20623     20625
     20622     20620     20623     20626     20623     20626     20629     20630
     20623     20626     20629     20631     20623     20626     20629     20632
     20624     20623     20626     20627     20624     20623     20626     20628
     20624     20623     20626     20629     20625     20623     20626     20627
     20625     20623     20626     20628     20625     20623     20626     20629
     20626     20629     20632     20633     20626     20629     20632     20634
     20626     20629     20632     20635     20627     20626     20629     20630
     20627     20626     20629     20631     20627     20626     20629     20632
     20628     20626     20629     20630     20628     20626     20629     20631
     20628     20626     20629     20632     20629     20632     20635     20636
     20629     20632     20635     20637     20629     20632     20635     20638
     20630     20629     20632     20633     20630     20629     20632     20634
     20630     20629     20632     20635     20631     20629     20632     20633
     20631     20629     20632     20634     20631     20629     20632     20635
     20632     20635     20638     20639     20632     20635     20638     20640
     20632     20635     20638     20641     20633     20632     20635     20636
     20633     20632     20635     20637     20633     20632     20635     20638
     20634     20632     20635     20636     20634     20632     20635     20637
     20634     20632     20635     20638     20635     20638     20641     20642
     20635     20638     20641     20643     20635     20638     20641     20644
     20636     20635     20638     20639     20636     20635     20638     20640
     20636     20635     20638     20641     20637     20635     20638     20639
     20637     20635     20638     20640     20637     20635     20638     20641
     20638     20641     20644     20645     20638     20641     20644     20646
     20638     20641     20644     20647     20639     20638     20641     20642
     20639     20638     20641     20643     20639     20638     20641     20644
     20640     20638     20641     20642     20640     20638     20641     20643
     20640     20638     20641     20644     20641     20644     20647     20648
     20641     20644     20647     20649     20641     20644     20647     20650
     20642     20641     20644     20645     20642     20641     20644     20646
     20642     20641     20644     20647     20643     20641     20644     20645
     20643     20641     20644     20646     20643     20641     20644     20647
     20644     20647     20650     20651     20644     20647     20650     20652
     20644     20647     20650     20653     20645     20644     20647     20648
     20645     20644     20647     20649     20645     20644     20647     20650
     20646     20644     20647     20648     20646     20644     20647     20649
     20646     20644     20647     20650     20647     20650     20653     20654
     20647     20650     20653     20655     20647     20650     20653     20656
     20648     20647     20650     20651     20648     20647     20650     20652
     20648     20647     20650     20653     20649     20647     20650     20651
     20649     20647     20650     20652     20649     20647     20650     20653
     20650     20653     20656     20657     20650     20653     20656     20658
     20650     20653     20656     20659     20651     20650     20653     20654
     20651     20650     20653     20655     20651     20650     20653     20656
     20652     20650     20653     20654     20652     20650     20653     20655
     20652     20650     20653     20656     20654     20653     20656     20657
     20654     20653     20656     20658     20654     20653     20656     20659
     20655     20653     20656     20657     20655     20653     20656     20658
     20655     20653     20656     20659     20660     20661     20676     20677
     20660     20661     20676     20678     20660     20661     20676     20682
     20661     20660     20664     20665     20661     20660     20664     20666
     20661     20660     20664     20667     20661     20660     20668     20669
     20661     20660     20668     20670     20661     20660     20668     20671
     20661     20660     20672     20673     20661     20660     20672     20674
     20661     20660     20672     20675     20661     20676     20682     20679
     20662     20661     20660     20664     20662     20661     20660     20668
     20662     20661     20660     20672     20662     20661     20676     20677
     20662     20661     20676     20678     20662     20661     20676     20682
     20663     20661     20660     20664     20663     20661     20660     20668
     20663     20661     20660     20672     20663     20661     20676     20677
     20663     20661     20676     20678     20663     20661     20676     20682
     20664     20660     20661     20676     20664     20660     20668     20669
     20664     20660     20668     20670     20664     20660     20668     20671
     20664     20660     20672     20673     20664     20660     20672     20674
     20664     20660     20672     20675     20665     20664     20660     20668
     20665     20664     20660     20672     20666     20664     20660     20668
     20666     20664     20660     20672     20667     20664     20660     20668
     20667     20664     20660     20672     20668     20660     20661     20676
     20668     20660     20672     20673     20668     20660     20672     20674
     20668     20660     20672     20675     20669     20668     20660     20672
     20670     20668     20660     20672     20671     20668     20660     20672
     20672     20660     20661     20676     20676     20682     20679     20680
     20676     20682     20679     20681     20676     20682     20679     20683
     20677     20676     20682     20679     20678     20676     20682     20679
     20679     20683     20684     20685     20679     20683     20684     20686
     20679     20683     20684     20687     20680     20679     20683     20684
     20681     20679     20683     20684     20682     20679     20683     20684
     20683     20684     20687     20688     20683     20684     20687     20689
     20683     20684     20687     20695     20684     20687     20689     20690
     20684     20687     20695     20696     20684     20687     20695     20697
     20684     20687     20695     20698     20685     20684     20687     20688
     20685     20684     20687     20689     20685     20684     20687     20695
     20686     20684     20687     20688     20686     20684     20687     20689
     20686     20684     20687     20695     20687     20689     20690     20691
     20687     20689     20690     20692     20687     20695     20698     20699
     20688     20687     20689     20690     20688     20687     20695     20696
     20688     20687     20695     20697     20688     20687     20695     20698
     20689     20687     20695     20696     20689     20687     20695     20697
     20689     20687     20695     20698     20689     20690     20692     20693
     20689     20690     20692     20694     20689     20690     20692     20704
     20690     20689     20687     20695     20690     20692     20704     20705
     20690     20692     20704     20706     20690     20692     20704     20707
     20691     20690     20692     20693     20691     20690     20692     20694
     20691     20690     20692     20704     20692     20704     20707     20708
     20692     20704     20707     20709     20692     20704     20707     20710
     20693     20692     20704     20705     20693     20692     20704     20706
     20693     20692     20704     20707     20694     20692     20704     20705
     20694     20692     20704     20706     20694     20692     20704     20707
     20695     20698     20699     20700     20695     20698     20699     20701
     20696     20695     20698     20699     20697     20695     20698     20699
     20698     20699     20701     20702     20698     20699     20701     20703
     20698     20699     20701     20751     20699     20701     20751     20752
     20699     20701     20751     20753     20699     20701     20751     20754
     20700     20699     20701     20702     20700     20699     20701     20703
     20700     20699     20701     20751     20701     20751     20754     20755
     20701     20751     20754     20756     20701     20751     20754     20757
     20702     20701     20751     20752     20702     20701     20751     20753
     20702     20701     20751     20754     20703     20701     20751     20752
     20703     20701     20751     20753     20703     20701     20751     20754
     20704     20707     20710     20711     20704     20707     20710     20712
     20704     20707     20710     20713     20705     20704     20707     20708
     20705     20704     20707     20709     20705     20704     20707     20710
     20706     20704     20707     20708     20706     20704     20707     20709
     20706     20704     20707     20710     20707     20710     20713     20714
     20707     20710     20713     20715     20707     20710     20713     20716
     20708     20707     20710     20711     20708     20707     20710     20712
     20708     20707     20710     20713     20709     20707     20710     20711
     20709     20707     20710     20712     20709     20707     20710     20713
     20710     20713     20716     20717     20710     20713     20716     20718
     20710     20713     20716     20719     20711     20710     20713     20714
     20711     20710     20713     20715     20711     20710     20713     20716
     20712     20710     20713     20714     20712     20710     20713     20715
     20712     20710     20713     20716     20713     20716     20719     20720
     20713     20716     20719     20721     20713     20716     20719     20722
     20714     20713     20716     20717     20714     20713     20716     20718
     20714     20713     20716     20719     20715     20713     20716     20717
     20715     20713     20716     20718     20715     20713     20716     20719
     20716     20719     20722     20723     20716     20719     20722     20724
     20717     20716     20719     20720     20717     20716     20719     20721
     20717     20716     20719     20722     20718     20716     20719     20720
     20718     20716     20719     20721     20718     20716     20719     20722
     20719     20722     20724     20725     20719     20722     20724     20726
     20720     20719     20722     20723     20720     20719     20722     20724
     20721     20719     20722     20723     20721     20719     20722     20724
     20722     20724     20726     20727     20722     20724     20726     20728
     20722     20724     20726     20729     20723     20722     20724     20725
     20723     20722     20724     20726     20724     20726     20729     20730
     20724     20726     20729     20731     20724     20726     20729     20732
     20725     20724     20726     20727     20725     20724     20726     20728
     20725     20724     20726     20729     20726     20729     20732     20733
     20726     20729     20732     20734     20726     20729     20732     20735
     20727     20726     20729     20730     20727     20726     20729     20731
     20727     20726     20729     20732     20728     20726     20729     20730
     20728     20726     20729     20731     20728     20726     20729     20732
     20729     20732     20735     20736     20729     20732     20735     20737
     20729     20732     20735     20738     20730     20729     20732     20733
     20730     20729     20732     20734     20730     20729     20732     20735
     20731     20729     20732     20733     20731     20729     20732     20734
     20731     20729     20732     20735     20732     20735     20738     20739
     20732     20735     20738     20740     20732     20735     20738     20741
     20733     20732     20735     20736     20733     20732     20735     20737
     20733     20732     20735     20738     20734     20732     20735     20736
     20734     20732     20735     20737     20734     20732     20735     20738
     20735     20738     20741     20742     20735     20738     20741     20743
     20735     20738     20741     20744     20736     20735     20738     20739
     20736     20735     20738     20740     20736     20735     20738     20741
     20737     20735     20738     20739     20737     20735     20738     20740
     20737     20735     20738     20741     20738     20741     20744     20745
     20738     20741     20744     20746     20738     20741     20744     20747
     20739     20738     20741     20742     20739     20738     20741     20743
     20739     20738     20741     20744     20740     20738     20741     20742
     20740     20738     20741     20743     20740     20738     20741     20744
     20741     20744     20747     20748     20741     20744     20747     20749
     20741     20744     20747     20750     20742     20741     20744     20745
     20742     20741     20744     20746     20742     20741     20744     20747
     20743     20741     20744     20745     20743     20741     20744     20746
     20743     20741     20744     20747     20745     20744     20747     20748
     20745     20744     20747     20749     20745     20744     20747     20750
     20746     20744     20747     20748     20746     20744     20747     20749
     20746     20744     20747     20750     20751     20754     20757     20758
     20751     20754     20757     20759     20751     20754     20757     20760
     20752     20751     20754     20755     20752     20751     20754     20756
     20752     20751     20754     20757     20753     20751     20754     20755
     20753     20751     20754     20756     20753     20751     20754     20757
     20754     20757     20760     20761     20754     20757     20760     20762
     20754     20757     20760     20763     20755     20754     20757     20758
     20755     20754     20757     20759     20755     20754     20757     20760
     20756     20754     20757     20758     20756     20754     20757     20759
     20756     20754     20757     20760     20757     20760     20763     20764
     20757     20760     20763     20765     20757     20760     20763     20766
     20758     20757     20760     20761     20758     20757     20760     20762
     20758     20757     20760     20763     20759     20757     20760     20761
     20759     20757     20760     20762     20759     20757     20760     20763
     20760     20763     20766     20767     20760     20763     20766     20768
     20760     20763     20766     20769     20761     20760     20763     20764
     20761     20760     20763     20765     20761     20760     20763     20766
     20762     20760     20763     20764     20762     20760     20763     20765
     20762     20760     20763     20766     20763     20766     20769     20770
     20763     20766     20769     20771     20763     20766     20769     20772
     20764     20763     20766     20767     20764     20763     20766     20768
     20764     20763     20766     20769     20765     20763     20766     20767
     20765     20763     20766     20768     20765     20763     20766     20769
     20766     20769     20772     20773     20766     20769     20772     20774
     20766     20769     20772     20775     20767     20766     20769     20770
     20767     20766     20769     20771     20767     20766     20769     20772
     20768     20766     20769     20770     20768     20766     20769     20771
     20768     20766     20769     20772     20769     20772     20775     20776
     20769     20772     20775     20777     20769     20772     20775     20778
     20770     20769     20772     20773     20770     20769     20772     20774
     20770     20769     20772     20775     20771     20769     20772     20773
     20771     20769     20772     20774     20771     20769     20772     20775
     20772     20775     20778     20779     20772     20775     20778     20780
     20772     20775     20778     20781     20773     20772     20775     20776
     20773     20772     20775     20777     20773     20772     20775     20778
     20774     20772     20775     20776     20774     20772     20775     20777
     20774     20772     20775     20778     20775     20778     20781     20782
     20775     20778     20781     20783     20775     20778     20781     20784
     20776     20775     20778     20779     20776     20775     20778     20780
     20776     20775     20778     20781     20777     20775     20778     20779
     20777     20775     20778     20780     20777     20775     20778     20781
     20778     20781     20784     20785     20778     20781     20784     20786
     20778     20781     20784     20787     20779     20778     20781     20782
     20779     20778     20781     20783     20779     20778     20781     20784
     20780     20778     20781     20782     20780     20778     20781     20783
     20780     20778     20781     20784     20781     20784     20787     20788
     20781     20784     20787     20789     20781     20784     20787     20790
     20782     20781     20784     20785     20782     20781     20784     20786
     20782     20781     20784     20787     20783     20781     20784     20785
     20783     20781     20784     20786     20783     20781     20784     20787
     20784     20787     20790     20791     20784     20787     20790     20792
     20784     20787     20790     20793     20785     20784     20787     20788
     20785     20784     20787     20789     20785     20784     20787     20790
     20786     20784     20787     20788     20786     20784     20787     20789
     20786     20784     20787     20790     20788     20787     20790     20791
     20788     20787     20790     20792     20788     20787     20790     20793
     20789     20787     20790     20791     20789     20787     20790     20792
     20789     20787     20790     20793     20794     20795     20810     20811
     20794     20795     20810     20812     20794     20795     20810     20816
     20795     20794     20798     20799     20795     20794     20798     20800
     20795     20794     20798     20801     20795     20794     20802     20803
     20795     20794     20802     20804     20795     20794     20802     20805
     20795     20794     20806     20807     20795     20794     20806     20808
     20795     20794     20806     20809     20795     20810     20816     20813
     20796     20795     20794     20798     20796     20795     20794     20802
     20796     20795     20794     20806     20796     20795     20810     20811
     20796     20795     20810     20812     20796     20795     20810     20816
     20797     20795     20794     20798     20797     20795     20794     20802
     20797     20795     20794     20806     20797     20795     20810     20811
     20797     20795     20810     20812     20797     20795     20810     20816
     20798     20794     20795     20810     20798     20794     20802     20803
     20798     20794     20802     20804     20798     20794     20802     20805
     20798     20794     20806     20807     20798     20794     20806     20808
     20798     20794     20806     20809     20799     20798     20794     20802
     20799     20798     20794     20806     20800     20798     20794     20802
     20800     20798     20794     20806     20801     20798     20794     20802
     20801     20798     20794     20806     20802     20794     20795     20810
     20802     20794     20806     20807     20802     20794     20806     20808
     20802     20794     20806     20809     20803     20802     20794     20806
     20804     20802     20794     20806     20805     20802     20794     20806
     20806     20794     20795     20810     20810     20816     20813     20814
     20810     20816     20813     20815     20810     20816     20813     20817
     20811     20810     20816     20813     20812     20810     20816     20813
     20813     20817     20818     20819     20813     20817     20818     20820
     20813     20817     20818     20821     20814     20813     20817     20818
     20815     20813     20817     20818     20816     20813     20817     20818
     20817     20818     20821     20822     20817     20818     20821     20823
     20817     20818     20821     20829     20818     20821     20823     20824
     20818     20821     20829     20830     20818     20821     20829     20831
     20818     20821     20829     20832     20819     20818     20821     20822
     20819     20818     20821     20823     20819     20818     20821     20829
     20820     20818     20821     20822     20820     20818     20821     20823
     20820     20818     20821     20829     20821     20823     20824     20825
     20821     20823     20824     20826     20821     20829     20832     20833
     20822     20821     20823     20824     20822     20821     20829     20830
     20822     20821     20829     20831     20822     20821     20829     20832
     20823     20821     20829     20830     20823     20821     20829     20831
     20823     20821     20829     20832     20823     20824     20826     20827
     20823     20824     20826     20828     20823     20824     20826     20838
     20824     20823     20821     20829     20824     20826     20838     20839
     20824     20826     20838     20840     20824     20826     20838     20841
     20825     20824     20826     20827     20825     20824     20826     20828
     20825     20824     20826     20838     20826     20838     20841     20842
     20826     20838     20841     20843     20826     20838     20841     20844
     20827     20826     20838     20839     20827     20826     20838     20840
     20827     20826     20838     20841     20828     20826     20838     20839
     20828     20826     20838     20840     20828     20826     20838     20841
     20829     20832     20833     20834     20829     20832     20833     20835
     20830     20829     20832     20833     20831     20829     20832     20833
     20832     20833     20835     20836     20832     20833     20835     20837
     20832     20833     20835     20885     20833     20835     20885     20886
     20833     20835     20885     20887     20833     20835     20885     20888
     20834     20833     20835     20836     20834     20833     20835     20837
     20834     20833     20835     20885     20835     20885     20888     20889
     20835     20885     20888     20890     20835     20885     20888     20891
     20836     20835     20885     20886     20836     20835     20885     20887
     20836     20835     20885     20888     20837     20835     20885     20886
     20837     20835     20885     20887     20837     20835     20885     20888
     20838     20841     20844     20845     20838     20841     20844     20846
     20838     20841     20844     20847     20839     20838     20841     20842
     20839     20838     20841     20843     20839     20838     20841     20844
     20840     20838     20841     20842     20840     20838     20841     20843
     20840     20838     20841     20844     20841     20844     20847     20848
     20841     20844     20847     20849     20841     20844     20847     20850
     20842     20841     20844     20845     20842     20841     20844     20846
     20842     20841     20844     20847     20843     20841     20844     20845
     20843     20841     20844     20846     20843     20841     20844     20847
     20844     20847     20850     20851     20844     20847     20850     20852
     20844     20847     20850     20853     20845     20844     20847     20848
     20845     20844     20847     20849     20845     20844     20847     20850
     20846     20844     20847     20848     20846     20844     20847     20849
     20846     20844     20847     20850     20847     20850     20853     20854
     20847     20850     20853     20855     20847     20850     20853     20856
     20848     20847     20850     20851     20848     20847     20850     20852
     20848     20847     20850     20853     20849     20847     20850     20851
     20849     20847     20850     20852     20849     20847     20850     20853
     20850     20853     20856     20857     20850     20853     20856     20858
     20851     20850     20853     20854     20851     20850     20853     20855
     20851     20850     20853     20856     20852     20850     20853     20854
     20852     20850     20853     20855     20852     20850     20853     20856
     20853     20856     20858     20859     20853     20856     20858     20860
     20854     20853     20856     20857     20854     20853     20856     20858
     20855     20853     20856     20857     20855     20853     20856     20858
     20856     20858     20860     20861     20856     20858     20860     20862
     20856     20858     20860     20863     20857     20856     20858     20859
     20857     20856     20858     20860     20858     20860     20863     20864
     20858     20860     20863     20865     20858     20860     20863     20866
     20859     20858     20860     20861     20859     20858     20860     20862
     20859     20858     20860     20863     20860     20863     20866     20867
     20860     20863     20866     20868     20860     20863     20866     20869
     20861     20860     20863     20864     20861     20860     20863     20865
     20861     20860     20863     20866     20862     20860     20863     20864
     20862     20860     20863     20865     20862     20860     20863     20866
     20863     20866     20869     20870     20863     20866     20869     20871
     20863     20866     20869     20872     20864     20863     20866     20867
     20864     20863     20866     20868     20864     20863     20866     20869
     20865     20863     20866     20867     20865     20863     20866     20868
     20865     20863     20866     20869     20866     20869     20872     20873
     20866     20869     20872     20874     20866     20869     20872     20875
     20867     20866     20869     20870     20867     20866     20869     20871
     20867     20866     20869     20872     20868     20866     20869     20870
     20868     20866     20869     20871     20868     20866     20869     20872
     20869     20872     20875     20876     20869     20872     20875     20877
     20869     20872     20875     20878     20870     20869     20872     20873
     20870     20869     20872     20874     20870     20869     20872     20875
     20871     20869     20872     20873     20871     20869     20872     20874
     20871     20869     20872     20875     20872     20875     20878     20879
     20872     20875     20878     20880     20872     20875     20878     20881
     20873     20872     20875     20876     20873     20872     20875     20877
     20873     20872     20875     20878     20874     20872     20875     20876
     20874     20872     20875     20877     20874     20872     20875     20878
     20875     20878     20881     20882     20875     20878     20881     20883
     20875     20878     20881     20884     20876     20875     20878     20879
     20876     20875     20878     20880     20876     20875     20878     20881
     20877     20875     20878     20879     20877     20875     20878     20880
     20877     20875     20878     20881     20879     20878     20881     20882
     20879     20878     20881     20883     20879     20878     20881     20884
     20880     20878     20881     20882     20880     20878     20881     20883
     20880     20878     20881     20884     20885     20888     20891     20892
     20885     20888     20891     20893     20885     20888     20891     20894
     20886     20885     20888     20889     20886     20885     20888     20890
     20886     20885     20888     20891     20887     20885     20888     20889
     20887     20885     20888     20890     20887     20885     20888     20891
     20888     20891     20894     20895     20888     20891     20894     20896
     20888     20891     20894     20897     20889     20888     20891     20892
     20889     20888     20891     20893     20889     20888     20891     20894
     20890     20888     20891     20892     20890     20888     20891     20893
     20890     20888     20891     20894     20891     20894     20897     20898
     20891     20894     20897     20899     20891     20894     20897     20900
     20892     20891     20894     20895     20892     20891     20894     20896
     20892     20891     20894     20897     20893     20891     20894     20895
     20893     20891     20894     20896     20893     20891     20894     20897
     20894     20897     20900     20901     20894     20897     20900     20902
     20894     20897     20900     20903     20895     20894     20897     20898
     20895     20894     20897     20899     20895     20894     20897     20900
     20896     20894     20897     20898     20896     20894     20897     20899
     20896     20894     20897     20900     20897     20900     20903     20904
     20897     20900     20903     20905     20897     20900     20903     20906
     20898     20897     20900     20901     20898     20897     20900     20902
     20898     20897     20900     20903     20899     20897     20900     20901
     20899     20897     20900     20902     20899     20897     20900     20903
     20900     20903     20906     20907     20900     20903     20906     20908
     20900     20903     20906     20909     20901     20900     20903     20904
     20901     20900     20903     20905     20901     20900     20903     20906
     20902     20900     20903     20904     20902     20900     20903     20905
     20902     20900     20903     20906     20903     20906     20909     20910
     20903     20906     20909     20911     20903     20906     20909     20912
     20904     20903     20906     20907     20904     20903     20906     20908
     20904     20903     20906     20909     20905     20903     20906     20907
     20905     20903     20906     20908     20905     20903     20906     20909
     20906     20909     20912     20913     20906     20909     20912     20914
     20906     20909     20912     20915     20907     20906     20909     20910
     20907     20906     20909     20911     20907     20906     20909     20912
     20908     20906     20909     20910     20908     20906     20909     20911
     20908     20906     20909     20912     20909     20912     20915     20916
     20909     20912     20915     20917     20909     20912     20915     20918
     20910     20909     20912     20913     20910     20909     20912     20914
     20910     20909     20912     20915     20911     20909     20912     20913
     20911     20909     20912     20914     20911     20909     20912     20915
     20912     20915     20918     20919     20912     20915     20918     20920
     20912     20915     20918     20921     20913     20912     20915     20916
     20913     20912     20915     20917     20913     20912     20915     20918
     20914     20912     20915     20916     20914     20912     20915     20917
     20914     20912     20915     20918     20915     20918     20921     20922
     20915     20918     20921     20923     20915     20918     20921     20924
     20916     20915     20918     20919     20916     20915     20918     20920
     20916     20915     20918     20921     20917     20915     20918     20919
     20917     20915     20918     20920     20917     20915     20918     20921
     20918     20921     20924     20925     20918     20921     20924     20926
     20918     20921     20924     20927     20919     20918     20921     20922
     20919     20918     20921     20923     20919     20918     20921     20924
     20920     20918     20921     20922     20920     20918     20921     20923
     20920     20918     20921     20924     20922     20921     20924     20925
     20922     20921     20924     20926     20922     20921     20924     20927
     20923     20921     20924     20925     20923     20921     20924     20926
     20923     20921     20924     20927     20928     20929     20944     20945
     20928     20929     20944     20946     20928     20929     20944     20950
     20929     20928     20932     20933     20929     20928     20932     20934
     20929     20928     20932     20935     20929     20928     20936     20937
     20929     20928     20936     20938     20929     20928     20936     20939
     20929     20928     20940     20941     20929     20928     20940     20942
     20929     20928     20940     20943     20929     20944     20950     20947
     20930     20929     20928     20932     20930     20929     20928     20936
     20930     20929     20928     20940     20930     20929     20944     20945
     20930     20929     20944     20946     20930     20929     20944     20950
     20931     20929     20928     20932     20931     20929     20928     20936
     20931     20929     20928     20940     20931     20929     20944     20945
     20931     20929     20944     20946     20931     20929     20944     20950
     20932     20928     20929     20944     20932     20928     20936     20937
     20932     20928     20936     20938     20932     20928     20936     20939
     20932     20928     20940     20941     20932     20928     20940     20942
     20932     20928     20940     20943     20933     20932     20928     20936
     20933     20932     20928     20940     20934     20932     20928     20936
     20934     20932     20928     20940     20935     20932     20928     20936
     20935     20932     20928     20940     20936     20928     20929     20944
     20936     20928     20940     20941     20936     20928     20940     20942
     20936     20928     20940     20943     20937     20936     20928     20940
     20938     20936     20928     20940     20939     20936     20928     20940
     20940     20928     20929     20944     20944     20950     20947     20948
     20944     20950     20947     20949     20944     20950     20947     20951
     20945     20944     20950     20947     20946     20944     20950     20947
     20947     20951     20952     20953     20947     20951     20952     20954
     20947     20951     20952     20955     20948     20947     20951     20952
     20949     20947     20951     20952     20950     20947     20951     20952
     20951     20952     20955     20956     20951     20952     20955     20957
     20951     20952     20955     20963     20952     20955     20957     20958
     20952     20955     20963     20964     20952     20955     20963     20965
     20952     20955     20963     20966     20953     20952     20955     20956
     20953     20952     20955     20957     20953     20952     20955     20963
     20954     20952     20955     20956     20954     20952     20955     20957
     20954     20952     20955     20963     20955     20957     20958     20959
     20955     20957     20958     20960     20955     20963     20966     20967
     20956     20955     20957     20958     20956     20955     20963     20964
     20956     20955     20963     20965     20956     20955     20963     20966
     20957     20955     20963     20964     20957     20955     20963     20965
     20957     20955     20963     20966     20957     20958     20960     20961
     20957     20958     20960     20962     20957     20958     20960     20972
     20958     20957     20955     20963     20958     20960     20972     20973
     20958     20960     20972     20974     20958     20960     20972     20975
     20959     20958     20960     20961     20959     20958     20960     20962
     20959     20958     20960     20972     20960     20972     20975     20976
     20960     20972     20975     20977     20960     20972     20975     20978
     20961     20960     20972     20973     20961     20960     20972     20974
     20961     20960     20972     20975     20962     20960     20972     20973
     20962     20960     20972     20974     20962     20960     20972     20975
     20963     20966     20967     20968     20963     20966     20967     20969
     20964     20963     20966     20967     20965     20963     20966     20967
     20966     20967     20969     20970     20966     20967     20969     20971
     20966     20967     20969     21019     20967     20969     21019     21020
     20967     20969     21019     21021     20967     20969     21019     21022
     20968     20967     20969     20970     20968     20967     20969     20971
     20968     20967     20969     21019     20969     21019     21022     21023
     20969     21019     21022     21024     20969     21019     21022     21025
     20970     20969     21019     21020     20970     20969     21019     21021
     20970     20969     21019     21022     20971     20969     21019     21020
     20971     20969     21019     21021     20971     20969     21019     21022
     20972     20975     20978     20979     20972     20975     20978     20980
     20972     20975     20978     20981     20973     20972     20975     20976
     20973     20972     20975     20977     20973     20972     20975     20978
     20974     20972     20975     20976     20974     20972     20975     20977
     20974     20972     20975     20978     20975     20978     20981     20982
     20975     20978     20981     20983     20975     20978     20981     20984
     20976     20975     20978     20979     20976     20975     20978     20980
     20976     20975     20978     20981     20977     20975     20978     20979
     20977     20975     20978     20980     20977     20975     20978     20981
     20978     20981     20984     20985     20978     20981     20984     20986
     20978     20981     20984     20987     20979     20978     20981     20982
     20979     20978     20981     20983     20979     20978     20981     20984
     20980     20978     20981     20982     20980     20978     20981     20983
     20980     20978     20981     20984     20981     20984     20987     20988
     20981     20984     20987     20989     20981     20984     20987     20990
     20982     20981     20984     20985     20982     20981     20984     20986
     20982     20981     20984     20987     20983     20981     20984     20985
     20983     20981     20984     20986     20983     20981     20984     20987
     20984     20987     20990     20991     20984     20987     20990     20992
     20985     20984     20987     20988     20985     20984     20987     20989
     20985     20984     20987     20990     20986     20984     20987     20988
     20986     20984     20987     20989     20986     20984     20987     20990
     20987     20990     20992     20993     20987     20990     20992     20994
     20988     20987     20990     20991     20988     20987     20990     20992
     20989     20987     20990     20991     20989     20987     20990     20992
     20990     20992     20994     20995     20990     20992     20994     20996
     20990     20992     20994     20997     20991     20990     20992     20993
     20991     20990     20992     20994     20992     20994     20997     20998
     20992     20994     20997     20999     20992     20994     20997     21000
     20993     20992     20994     20995     20993     20992     20994     20996
     20993     20992     20994     20997     20994     20997     21000     21001
     20994     20997     21000     21002     20994     20997     21000     21003
     20995     20994     20997     20998     20995     20994     20997     20999
     20995     20994     20997     21000     20996     20994     20997     20998
     20996     20994     20997     20999     20996     20994     20997     21000
     20997     21000     21003     21004     20997     21000     21003     21005
     20997     21000     21003     21006     20998     20997     21000     21001
     20998     20997     21000     21002     20998     20997     21000     21003
     20999     20997     21000     21001     20999     20997     21000     21002
     20999     20997     21000     21003     21000     21003     21006     21007
     21000     21003     21006     21008     21000     21003     21006     21009
     21001     21000     21003     21004     21001     21000     21003     21005
     21001     21000     21003     21006     21002     21000     21003     21004
     21002     21000     21003     21005     21002     21000     21003     21006
     21003     21006     21009     21010     21003     21006     21009     21011
     21003     21006     21009     21012     21004     21003     21006     21007
     21004     21003     21006     21008     21004     21003     21006     21009
     21005     21003     21006     21007     21005     21003     21006     21008
     21005     21003     21006     21009     21006     21009     21012     21013
     21006     21009     21012     21014     21006     21009     21012     21015
     21007     21006     21009     21010     21007     21006     21009     21011
     21007     21006     21009     21012     21008     21006     21009     21010
     21008     21006     21009     21011     21008     21006     21009     21012
     21009     21012     21015     21016     21009     21012     21015     21017
     21009     21012     21015     21018     21010     21009     21012     21013
     21010     21009     21012     21014     21010     21009     21012     21015
     21011     21009     21012     21013     21011     21009     21012     21014
     21011     21009     21012     21015     21013     21012     21015     21016
     21013     21012     21015     21017     21013     21012     21015     21018
     21014     21012     21015     21016     21014     21012     21015     21017
     21014     21012     21015     21018     21019     21022     21025     21026
     21019     21022     21025     21027     21019     21022     21025     21028
     21020     21019     21022     21023     21020     21019     21022     21024
     21020     21019     21022     21025     21021     21019     21022     21023
     21021     21019     21022     21024     21021     21019     21022     21025
     21022     21025     21028     21029     21022     21025     21028     21030
     21022     21025     21028     21031     21023     21022     21025     21026
     21023     21022     21025     21027     21023     21022     21025     21028
     21024     21022     21025     21026     21024     21022     21025     21027
     21024     21022     21025     21028     21025     21028     21031     21032
     21025     21028     21031     21033     21025     21028     21031     21034
     21026     21025     21028     21029     21026     21025     21028     21030
     21026     21025     21028     21031     21027     21025     21028     21029
     21027     21025     21028     21030     21027     21025     21028     21031
     21028     21031     21034     21035     21028     21031     21034     21036
     21028     21031     21034     21037     21029     21028     21031     21032
     21029     21028     21031     21033     21029     21028     21031     21034
     21030     21028     21031     21032     21030     21028     21031     21033
     21030     21028     21031     21034     21031     21034     21037     21038
     21031     21034     21037     21039     21031     21034     21037     21040
     21032     21031     21034     21035     21032     21031     21034     21036
     21032     21031     21034     21037     21033     21031     21034     21035
     21033     21031     21034     21036     21033     21031     21034     21037
     21034     21037     21040     21041     21034     21037     21040     21042
     21034     21037     21040     21043     21035     21034     21037     21038
     21035     21034     21037     21039     21035     21034     21037     21040
     21036     21034     21037     21038     21036     21034     21037     21039
     21036     21034     21037     21040     21037     21040     21043     21044
     21037     21040     21043     21045     21037     21040     21043     21046
     21038     21037     21040     21041     21038     21037     21040     21042
     21038     21037     21040     21043     21039     21037     21040     21041
     21039     21037     21040     21042     21039     21037     21040     21043
     21040     21043     21046     21047     21040     21043     21046     21048
     21040     21043     21046     21049     21041     21040     21043     21044
     21041     21040     21043     21045     21041     21040     21043     21046
     21042     21040     21043     21044     21042     21040     21043     21045
     21042     21040     21043     21046     21043     21046     21049     21050
     21043     21046     21049     21051     21043     21046     21049     21052
     21044     21043     21046     21047     21044     21043     21046     21048
     21044     21043     21046     21049     21045     21043     21046     21047
     21045     21043     21046     21048     21045     21043     21046     21049
     21046     21049     21052     21053     21046     21049     21052     21054
     21046     21049     21052     21055     21047     21046     21049     21050
     21047     21046     21049     21051     21047     21046     21049     21052
     21048     21046     21049     21050     21048     21046     21049     21051
     21048     21046     21049     21052     21049     21052     21055     21056
     21049     21052     21055     21057     21049     21052     21055     21058
     21050     21049     21052     21053     21050     21049     21052     21054
     21050     21049     21052     21055     21051     21049     21052     21053
     21051     21049     21052     21054     21051     21049     21052     21055
     21052     21055     21058     21059     21052     21055     21058     21060
     21052     21055     21058     21061     21053     21052     21055     21056
     21053     21052     21055     21057     21053     21052     21055     21058
     21054     21052     21055     21056     21054     21052     21055     21057
     21054     21052     21055     21058     21056     21055     21058     21059
     21056     21055     21058     21060     21056     21055     21058     21061
     21057     21055     21058     21059     21057     21055     21058     21060
     21057     21055     21058     21061     21062     21066     21068     21069
     21062     21066     21068     21070     21062     21066     21071     21072
     21062     21066     21071     21073     21062     21066     21071     21077
     21063     21062     21066     21067     21063     21062     21066     21068
     21063     21062     21066     21071     21064     21062     21066     21067
     21064     21062     21066     21068     21064     21062     21066     21071
     21065     21062     21066     21067     21065     21062     21066     21068
     21065     21062     21066     21071     21066     21071     21077     21074
     21067     21066     21068     21069     21067     21066     21068     21070
     21067     21066     21071     21072     21067     21066     21071     21073
     21067     21066     21071     21077     21068     21066     21071     21072
     21068     21066     21071     21073     21068     21066     21071     21077
     21069     21068     21066     21071     21070     21068     21066     21071
     21071     21077     21074     21075     21071     21077     21074     21076
     21071     21077     21074     21078     21072     21071     21077     21074
     21073     21071     21077     21074     21074     21078     21079     21080
     21074     21078     21079     21081     21074     21078     21079     21082
     21075     21074     21078     21079     21076     21074     21078     21079
     21077     21074     21078     21079     21078     21079     21082     21083
     21078     21079     21082     21084     21078     21079     21082     21090
     21079     21082     21084     21085     21079     21082     21090     21091
     21079     21082     21090     21092     21079     21082     21090     21093
     21080     21079     21082     21083     21080     21079     21082     21084
     21080     21079     21082     21090     21081     21079     21082     21083
     21081     21079     21082     21084     21081     21079     21082     21090
     21082     21084     21085     21086     21082     21084     21085     21087
     21082     21090     21093     21094     21083     21082     21084     21085
     21083     21082     21090     21091     21083     21082     21090     21092
     21083     21082     21090     21093     21084     21082     21090     21091
     21084     21082     21090     21092     21084     21082     21090     21093
     21084     21085     21087     21088     21084     21085     21087     21089
     21084     21085     21087     21099     21085     21084     21082     21090
     21085     21087     21099     21100     21085     21087     21099     21101
     21085     21087     21099     21102     21086     21085     21087     21088
     21086     21085     21087     21089     21086     21085     21087     21099
     21087     21099     21102     21103     21087     21099     21102     21104
     21087     21099     21102     21105     21088     21087     21099     21100
     21088     21087     21099     21101     21088     21087     21099     21102
     21089     21087     21099     21100     21089     21087     21099     21101
     21089     21087     21099     21102     21090     21093     21094     21095
     21090     21093     21094     21096     21091     21090     21093     21094
     21092     21090     21093     21094     21093     21094     21096     21097
     21093     21094     21096     21098     21093     21094     21096     21146
     21094     21096     21146     21147     21094     21096     21146     21148
     21094     21096     21146     21149     21095     21094     21096     21097
     21095     21094     21096     21098     21095     21094     21096     21146
     21096     21146     21149     21150     21096     21146     21149     21151
     21096     21146     21149     21152     21097     21096     21146     21147
     21097     21096     21146     21148     21097     21096     21146     21149
     21098     21096     21146     21147     21098     21096     21146     21148
     21098     21096     21146     21149     21099     21102     21105     21106
     21099     21102     21105     21107     21099     21102     21105     21108
     21100     21099     21102     21103     21100     21099     21102     21104
     21100     21099     21102     21105     21101     21099     21102     21103
     21101     21099     21102     21104     21101     21099     21102     21105
     21102     21105     21108     21109     21102     21105     21108     21110
     21102     21105     21108     21111     21103     21102     21105     21106
     21103     21102     21105     21107     21103     21102     21105     21108
     21104     21102     21105     21106     21104     21102     21105     21107
     21104     21102     21105     21108     21105     21108     21111     21112
     21105     21108     21111     21113     21105     21108     21111     21114
     21106     21105     21108     21109     21106     21105     21108     21110
     21106     21105     21108     21111     21107     21105     21108     21109
     21107     21105     21108     21110     21107     21105     21108     21111
     21108     21111     21114     21115     21108     21111     21114     21116
     21108     21111     21114     21117     21109     21108     21111     21112
     21109     21108     21111     21113     21109     21108     21111     21114
     21110     21108     21111     21112     21110     21108     21111     21113
     21110     21108     21111     21114     21111     21114     21117     21118
     21111     21114     21117     21119     21112     21111     21114     21115
     21112     21111     21114     21116     21112     21111     21114     21117
     21113     21111     21114     21115     21113     21111     21114     21116
     21113     21111     21114     21117     21114     21117     21119     21120
     21114     21117     21119     21121     21115     21114     21117     21118
     21115     21114     21117     21119     21116     21114     21117     21118
     21116     21114     21117     21119     21117     21119     21121     21122
     21117     21119     21121     21123     21117     21119     21121     21124
     21118     21117     21119     21120     21118     21117     21119     21121
     21119     21121     21124     21125     21119     21121     21124     21126
     21119     21121     21124     21127     21120     21119     21121     21122
     21120     21119     21121     21123     21120     21119     21121     21124
     21121     21124     21127     21128     21121     21124     21127     21129
     21121     21124     21127     21130     21122     21121     21124     21125
     21122     21121     21124     21126     21122     21121     21124     21127
     21123     21121     21124     21125     21123     21121     21124     21126
     21123     21121     21124     21127     21124     21127     21130     21131
     21124     21127     21130     21132     21124     21127     21130     21133
     21125     21124     21127     21128     21125     21124     21127     21129
     21125     21124     21127     21130     21126     21124     21127     21128
     21126     21124     21127     21129     21126     21124     21127     21130
     21127     21130     21133     21134     21127     21130     21133     21135
     21127     21130     21133     21136     21128     21127     21130     21131
     21128     21127     21130     21132     21128     21127     21130     21133
     21129     21127     21130     21131     21129     21127     21130     21132
     21129     21127     21130     21133     21130     21133     21136     21137
     21130     21133     21136     21138     21130     21133     21136     21139
     21131     21130     21133     21134     21131     21130     21133     21135
     21131     21130     21133     21136     21132     21130     21133     21134
     21132     21130     21133     21135     21132     21130     21133     21136
     21133     21136     21139     21140     21133     21136     21139     21141
     21133     21136     21139     21142     21134     21133     21136     21137
     21134     21133     21136     21138     21134     21133     21136     21139
     21135     21133     21136     21137     21135     21133     21136     21138
     21135     21133     21136     21139     21136     21139     21142     21143
     21136     21139     21142     21144     21136     21139     21142     21145
     21137     21136     21139     21140     21137     21136     21139     21141
     21137     21136     21139     21142     21138     21136     21139     21140
     21138     21136     21139     21141     21138     21136     21139     21142
     21140     21139     21142     21143     21140     21139     21142     21144
     21140     21139     21142     21145     21141     21139     21142     21143
     21141     21139     21142     21144     21141     21139     21142     21145
     21146     21149     21152     21153     21146     21149     21152     21154
     21146     21149     21152     21155     21147     21146     21149     21150
     21147     21146     21149     21151     21147     21146     21149     21152
     21148     21146     21149     21150     21148     21146     21149     21151
     21148     21146     21149     21152     21149     21152     21155     21156
     21149     21152     21155     21157     21149     21152     21155     21158
     21150     21149     21152     21153     21150     21149     21152     21154
     21150     21149     21152     21155     21151     21149     21152     21153
     21151     21149     21152     21154     21151     21149     21152     21155
     21152     21155     21158     21159     21152     21155     21158     21160
     21152     21155     21158     21161     21153     21152     21155     21156
     21153     21152     21155     21157     21153     21152     21155     21158
     21154     21152     21155     21156     21154     21152     21155     21157
     21154     21152     21155     21158     21155     21158     21161     21162
     21155     21158     21161     21163     21155     21158     21161     21164
     21156     21155     21158     21159     21156     21155     21158     21160
     21156     21155     21158     21161     21157     21155     21158     21159
     21157     21155     21158     21160     21157     21155     21158     21161
     21158     21161     21164     21165     21158     21161     21164     21166
     21158     21161     21164     21167     21159     21158     21161     21162
     21159     21158     21161     21163     21159     21158     21161     21164
     21160     21158     21161     21162     21160     21158     21161     21163
     21160     21158     21161     21164     21161     21164     21167     21168
     21161     21164     21167     21169     21161     21164     21167     21170
     21162     21161     21164     21165     21162     21161     21164     21166
     21162     21161     21164     21167     21163     21161     21164     21165
     21163     21161     21164     21166     21163     21161     21164     21167
     21164     21167     21170     21171     21164     21167     21170     21172
     21164     21167     21170     21173     21165     21164     21167     21168
     21165     21164     21167     21169     21165     21164     21167     21170
     21166     21164     21167     21168     21166     21164     21167     21169
     21166     21164     21167     21170     21167     21170     21173     21174
     21167     21170     21173     21175     21167     21170     21173     21176
     21168     21167     21170     21171     21168     21167     21170     21172
     21168     21167     21170     21173     21169     21167     21170     21171
     21169     21167     21170     21172     21169     21167     21170     21173
     21170     21173     21176     21177     21170     21173     21176     21178
     21170     21173     21176     21179     21171     21170     21173     21174
     21171     21170     21173     21175     21171     21170     21173     21176
     21172     21170     21173     21174     21172     21170     21173     21175
     21172     21170     21173     21176     21173     21176     21179     21180
     21173     21176     21179     21181     21173     21176     21179     21182
     21174     21173     21176     21177     21174     21173     21176     21178
     21174     21173     21176     21179     21175     21173     21176     21177
     21175     21173     21176     21178     21175     21173     21176     21179
     21176     21179     21182     21183     21176     21179     21182     21184
     21176     21179     21182     21185     21177     21176     21179     21180
     21177     21176     21179     21181     21177     21176     21179     21182
     21178     21176     21179     21180     21178     21176     21179     21181
     21178     21176     21179     21182     21179     21182     21185     21186
     21179     21182     21185     21187     21179     21182     21185     21188
     21180     21179     21182     21183     21180     21179     21182     21184
     21180     21179     21182     21185     21181     21179     21182     21183
     21181     21179     21182     21184     21181     21179     21182     21185
     21183     21182     21185     21186     21183     21182     21185     21187
     21183     21182     21185     21188     21184     21182     21185     21186
     21184     21182     21185     21187     21184     21182     21185     21188
     21189     21190     21205     21206     21189     21190     21205     21207
     21189     21190     21205     21211     21190     21189     21193     21194
     21190     21189     21193     21195     21190     21189     21193     21196
     21190     21189     21197     21198     21190     21189     21197     21199
     21190     21189     21197     21200     21190     21189     21201     21202
     21190     21189     21201     21203     21190     21189     21201     21204
     21190     21205     21211     21208     21191     21190     21189     21193
     21191     21190     21189     21197     21191     21190     21189     21201
     21191     21190     21205     21206     21191     21190     21205     21207
     21191     21190     21205     21211     21192     21190     21189     21193
     21192     21190     21189     21197     21192     21190     21189     21201
     21192     21190     21205     21206     21192     21190     21205     21207
     21192     21190     21205     21211     21193     21189     21190     21205
     21193     21189     21197     21198     21193     21189     21197     21199
     21193     21189     21197     21200     21193     21189     21201     21202
     21193     21189     21201     21203     21193     21189     21201     21204
     21194     21193     21189     21197     21194     21193     21189     21201
     21195     21193     21189     21197     21195     21193     21189     21201
     21196     21193     21189     21197     21196     21193     21189     21201
     21197     21189     21190     21205     21197     21189     21201     21202
     21197     21189     21201     21203     21197     21189     21201     21204
     21198     21197     21189     21201     21199     21197     21189     21201
     21200     21197     21189     21201     21201     21189     21190     21205
     21205     21211     21208     21209     21205     21211     21208     21210
     21205     21211     21208     21212     21206     21205     21211     21208
     21207     21205     21211     21208     21208     21212     21213     21214
     21208     21212     21213     21215     21208     21212     21213     21216
     21209     21208     21212     21213     21210     21208     21212     21213
     21211     21208     21212     21213     21212     21213     21216     21217
     21212     21213     21216     21218     21212     21213     21216     21224
     21213     21216     21218     21219     21213     21216     21224     21225
     21213     21216     21224     21226     21213     21216     21224     21227
     21214     21213     21216     21217     21214     21213     21216     21218
     21214     21213     21216     21224     21215     21213     21216     21217
     21215     21213     21216     21218     21215     21213     21216     21224
     21216     21218     21219     21220     21216     21218     21219     21221
     21216     21224     21227     21228     21217     21216     21218     21219
     21217     21216     21224     21225     21217     21216     21224     21226
     21217     21216     21224     21227     21218     21216     21224     21225
     21218     21216     21224     21226     21218     21216     21224     21227
     21218     21219     21221     21222     21218     21219     21221     21223
     21218     21219     21221     21233     21219     21218     21216     21224
     21219     21221     21233     21234     21219     21221     21233     21235
     21219     21221     21233     21236     21220     21219     21221     21222
     21220     21219     21221     21223     21220     21219     21221     21233
     21221     21233     21236     21237     21221     21233     21236     21238
     21221     21233     21236     21239     21222     21221     21233     21234
     21222     21221     21233     21235     21222     21221     21233     21236
     21223     21221     21233     21234     21223     21221     21233     21235
     21223     21221     21233     21236     21224     21227     21228     21229
     21224     21227     21228     21230     21225     21224     21227     21228
     21226     21224     21227     21228     21227     21228     21230     21231
     21227     21228     21230     21232     21227     21228     21230     21280
     21228     21230     21280     21281     21228     21230     21280     21282
     21228     21230     21280     21283     21229     21228     21230     21231
     21229     21228     21230     21232     21229     21228     21230     21280
     21230     21280     21283     21284     21230     21280     21283     21285
     21230     21280     21283     21286     21231     21230     21280     21281
     21231     21230     21280     21282     21231     21230     21280     21283
     21232     21230     21280     21281     21232     21230     21280     21282
     21232     21230     21280     21283     21233     21236     21239     21240
     21233     21236     21239     21241     21233     21236     21239     21242
     21234     21233     21236     21237     21234     21233     21236     21238
     21234     21233     21236     21239     21235     21233     21236     21237
     21235     21233     21236     21238     21235     21233     21236     21239
     21236     21239     21242     21243     21236     21239     21242     21244
     21236     21239     21242     21245     21237     21236     21239     21240
     21237     21236     21239     21241     21237     21236     21239     21242
     21238     21236     21239     21240     21238     21236     21239     21241
     21238     21236     21239     21242     21239     21242     21245     21246
     21239     21242     21245     21247     21239     21242     21245     21248
     21240     21239     21242     21243     21240     21239     21242     21244
     21240     21239     21242     21245     21241     21239     21242     21243
     21241     21239     21242     21244     21241     21239     21242     21245
     21242     21245     21248     21249     21242     21245     21248     21250
     21242     21245     21248     21251     21243     21242     21245     21246
     21243     21242     21245     21247     21243     21242     21245     21248
     21244     21242     21245     21246     21244     21242     21245     21247
     21244     21242     21245     21248     21245     21248     21251     21252
     21245     21248     21251     21253     21246     21245     21248     21249
     21246     21245     21248     21250     21246     21245     21248     21251
     21247     21245     21248     21249     21247     21245     21248     21250
     21247     21245     21248     21251     21248     21251     21253     21254
     21248     21251     21253     21255     21249     21248     21251     21252
     21249     21248     21251     21253     21250     21248     21251     21252
     21250     21248     21251     21253     21251     21253     21255     21256
     21251     21253     21255     21257     21251     21253     21255     21258
     21252     21251     21253     21254     21252     21251     21253     21255
     21253     21255     21258     21259     21253     21255     21258     21260
     21253     21255     21258     21261     21254     21253     21255     21256
     21254     21253     21255     21257     21254     21253     21255     21258
     21255     21258     21261     21262     21255     21258     21261     21263
     21255     21258     21261     21264     21256     21255     21258     21259
     21256     21255     21258     21260     21256     21255     21258     21261
     21257     21255     21258     21259     21257     21255     21258     21260
     21257     21255     21258     21261     21258     21261     21264     21265
     21258     21261     21264     21266     21258     21261     21264     21267
     21259     21258     21261     21262     21259     21258     21261     21263
     21259     21258     21261     21264     21260     21258     21261     21262
     21260     21258     21261     21263     21260     21258     21261     21264
     21261     21264     21267     21268     21261     21264     21267     21269
     21261     21264     21267     21270     21262     21261     21264     21265
     21262     21261     21264     21266     21262     21261     21264     21267
     21263     21261     21264     21265     21263     21261     21264     21266
     21263     21261     21264     21267     21264     21267     21270     21271
     21264     21267     21270     21272     21264     21267     21270     21273
     21265     21264     21267     21268     21265     21264     21267     21269
     21265     21264     21267     21270     21266     21264     21267     21268
     21266     21264     21267     21269     21266     21264     21267     21270
     21267     21270     21273     21274     21267     21270     21273     21275
     21267     21270     21273     21276     21268     21267     21270     21271
     21268     21267     21270     21272     21268     21267     21270     21273
     21269     21267     21270     21271     21269     21267     21270     21272
     21269     21267     21270     21273     21270     21273     21276     21277
     21270     21273     21276     21278     21270     21273     21276     21279
     21271     21270     21273     21274     21271     21270     21273     21275
     21271     21270     21273     21276     21272     21270     21273     21274
     21272     21270     21273     21275     21272     21270     21273     21276
     21274     21273     21276     21277     21274     21273     21276     21278
     21274     21273     21276     21279     21275     21273     21276     21277
     21275     21273     21276     21278     21275     21273     21276     21279
     21280     21283     21286     21287     21280     21283     21286     21288
     21280     21283     21286     21289     21281     21280     21283     21284
     21281     21280     21283     21285     21281     21280     21283     21286
     21282     21280     21283     21284     21282     21280     21283     21285
     21282     21280     21283     21286     21283     21286     21289     21290
     21283     21286     21289     21291     21283     21286     21289     21292
     21284     21283     21286     21287     21284     21283     21286     21288
     21284     21283     21286     21289     21285     21283     21286     21287
     21285     21283     21286     21288     21285     21283     21286     21289
     21286     21289     21292     21293     21286     21289     21292     21294
     21286     21289     21292     21295     21287     21286     21289     21290
     21287     21286     21289     21291     21287     21286     21289     21292
     21288     21286     21289     21290     21288     21286     21289     21291
     21288     21286     21289     21292     21289     21292     21295     21296
     21289     21292     21295     21297     21289     21292     21295     21298
     21290     21289     21292     21293     21290     21289     21292     21294
     21290     21289     21292     21295     21291     21289     21292     21293
     21291     21289     21292     21294     21291     21289     21292     21295
     21292     21295     21298     21299     21292     21295     21298     21300
     21292     21295     21298     21301     21293     21292     21295     21296
     21293     21292     21295     21297     21293     21292     21295     21298
     21294     21292     21295     21296     21294     21292     21295     21297
     21294     21292     21295     21298     21295     21298     21301     21302
     21295     21298     21301     21303     21295     21298     21301     21304
     21296     21295     21298     21299     21296     21295     21298     21300
     21296     21295     21298     21301     21297     21295     21298     21299
     21297     21295     21298     21300     21297     21295     21298     21301
     21298     21301     21304     21305     21298     21301     21304     21306
     21298     21301     21304     21307     21299     21298     21301     21302
     21299     21298     21301     21303     21299     21298     21301     21304
     21300     21298     21301     21302     21300     21298     21301     21303
     21300     21298     21301     21304     21301     21304     21307     21308
     21301     21304     21307     21309     21301     21304     21307     21310
     21302     21301     21304     21305     21302     21301     21304     21306
     21302     21301     21304     21307     21303     21301     21304     21305
     21303     21301     21304     21306     21303     21301     21304     21307
     21304     21307     21310     21311     21304     21307     21310     21312
     21304     21307     21310     21313     21305     21304     21307     21308
     21305     21304     21307     21309     21305     21304     21307     21310
     21306     21304     21307     21308     21306     21304     21307     21309
     21306     21304     21307     21310     21307     21310     21313     21314
     21307     21310     21313     21315     21307     21310     21313     21316
     21308     21307     21310     21311     21308     21307     21310     21312
     21308     21307     21310     21313     21309     21307     21310     21311
     21309     21307     21310     21312     21309     21307     21310     21313
     21310     21313     21316     21317     21310     21313     21316     21318
     21310     21313     21316     21319     21311     21310     21313     21314
     21311     21310     21313     21315     21311     21310     21313     21316
     21312     21310     21313     21314     21312     21310     21313     21315
     21312     21310     21313     21316     21313     21316     21319     21320
     21313     21316     21319     21321     21313     21316     21319     21322
     21314     21313     21316     21317     21314     21313     21316     21318
     21314     21313     21316     21319     21315     21313     21316     21317
     21315     21313     21316     21318     21315     21313     21316     21319
     21317     21316     21319     21320     21317     21316     21319     21321
     21317     21316     21319     21322     21318     21316     21319     21320
     21318     21316     21319     21321     21318     21316     21319     21322
     21323     21324     21339     21340     21323     21324     21339     21341
     21323     21324     21339     21345     21324     21323     21327     21328
     21324     21323     21327     21329     21324     21323     21327     21330
     21324     21323     21331     21332     21324     21323     21331     21333
     21324     21323     21331     21334     21324     21323     21335     21336
     21324     21323     21335     21337     21324     21323     21335     21338
     21324     21339     21345     21342     21325     21324     21323     21327
     21325     21324     21323     21331     21325     21324     21323     21335
     21325     21324     21339     21340     21325     21324     21339     21341
     21325     21324     21339     21345     21326     21324     21323     21327
     21326     21324     21323     21331     21326     21324     21323     21335
     21326     21324     21339     21340     21326     21324     21339     21341
     21326     21324     21339     21345     21327     21323     21324     21339
     21327     21323     21331     21332     21327     21323     21331     21333
     21327     21323     21331     21334     21327     21323     21335     21336
     21327     21323     21335     21337     21327     21323     21335     21338
     21328     21327     21323     21331     21328     21327     21323     21335
     21329     21327     21323     21331     21329     21327     21323     21335
     21330     21327     21323     21331     21330     21327     21323     21335
     21331     21323     21324     21339     21331     21323     21335     21336
     21331     21323     21335     21337     21331     21323     21335     21338
     21332     21331     21323     21335     21333     21331     21323     21335
     21334     21331     21323     21335     21335     21323     21324     21339
     21339     21345     21342     21343     21339     21345     21342     21344
     21339     21345     21342     21346     21340     21339     21345     21342
     21341     21339     21345     21342     21342     21346     21347     21348
     21342     21346     21347     21349     21342     21346     21347     21350
     21343     21342     21346     21347     21344     21342     21346     21347
     21345     21342     21346     21347     21346     21347     21350     21351
     21346     21347     21350     21352     21346     21347     21350     21358
     21347     21350     21352     21353     21347     21350     21358     21359
     21347     21350     21358     21360     21347     21350     21358     21361
     21348     21347     21350     21351     21348     21347     21350     21352
     21348     21347     21350     21358     21349     21347     21350     21351
     21349     21347     21350     21352     21349     21347     21350     21358
     21350     21352     21353     21354     21350     21352     21353     21355
     21350     21358     21361     21362     21351     21350     21352     21353
     21351     21350     21358     21359     21351     21350     21358     21360
     21351     21350     21358     21361     21352     21350     21358     21359
     21352     21350     21358     21360     21352     21350     21358     21361
     21352     21353     21355     21356     21352     21353     21355     21357
     21352     21353     21355     21367     21353     21352     21350     21358
     21353     21355     21367     21368     21353     21355     21367     21369
     21353     21355     21367     21370     21354     21353     21355     21356
     21354     21353     21355     21357     21354     21353     21355     21367
     21355     21367     21370     21371     21355     21367     21370     21372
     21355     21367     21370     21373     21356     21355     21367     21368
     21356     21355     21367     21369     21356     21355     21367     21370
     21357     21355     21367     21368     21357     21355     21367     21369
     21357     21355     21367     21370     21358     21361     21362     21363
     21358     21361     21362     21364     21359     21358     21361     21362
     21360     21358     21361     21362     21361     21362     21364     21365
     21361     21362     21364     21366     21361     21362     21364     21414
     21362     21364     21414     21415     21362     21364     21414     21416
     21362     21364     21414     21417     21363     21362     21364     21365
     21363     21362     21364     21366     21363     21362     21364     21414
     21364     21414     21417     21418     21364     21414     21417     21419
     21364     21414     21417     21420     21365     21364     21414     21415
     21365     21364     21414     21416     21365     21364     21414     21417
     21366     21364     21414     21415     21366     21364     21414     21416
     21366     21364     21414     21417     21367     21370     21373     21374
     21367     21370     21373     21375     21367     21370     21373     21376
     21368     21367     21370     21371     21368     21367     21370     21372
     21368     21367     21370     21373     21369     21367     21370     21371
     21369     21367     21370     21372     21369     21367     21370     21373
     21370     21373     21376     21377     21370     21373     21376     21378
     21370     21373     21376     21379     21371     21370     21373     21374
     21371     21370     21373     21375     21371     21370     21373     21376
     21372     21370     21373     21374     21372     21370     21373     21375
     21372     21370     21373     21376     21373     21376     21379     21380
     21373     21376     21379     21381     21373     21376     21379     21382
     21374     21373     21376     21377     21374     21373     21376     21378
     21374     21373     21376     21379     21375     21373     21376     21377
     21375     21373     21376     21378     21375     21373     21376     21379
     21376     21379     21382     21383     21376     21379     21382     21384
     21376     21379     21382     21385     21377     21376     21379     21380
     21377     21376     21379     21381     21377     21376     21379     21382
     21378     21376     21379     21380     21378     21376     21379     21381
     21378     21376     21379     21382     21379     21382     21385     21386
     21379     21382     21385     21387     21380     21379     21382     21383
     21380     21379     21382     21384     21380     21379     21382     21385
     21381     21379     21382     21383     21381     21379     21382     21384
     21381     21379     21382     21385     21382     21385     21387     21388
     21382     21385     21387     21389     21383     21382     21385     21386
     21383     21382     21385     21387     21384     21382     21385     21386
     21384     21382     21385     21387     21385     21387     21389     21390
     21385     21387     21389     21391     21385     21387     21389     21392
     21386     21385     21387     21388     21386     21385     21387     21389
     21387     21389     21392     21393     21387     21389     21392     21394
     21387     21389     21392     21395     21388     21387     21389     21390
     21388     21387     21389     21391     21388     21387     21389     21392
     21389     21392     21395     21396     21389     21392     21395     21397
     21389     21392     21395     21398     21390     21389     21392     21393
     21390     21389     21392     21394     21390     21389     21392     21395
     21391     21389     21392     21393     21391     21389     21392     21394
     21391     21389     21392     21395     21392     21395     21398     21399
     21392     21395     21398     21400     21392     21395     21398     21401
     21393     21392     21395     21396     21393     21392     21395     21397
     21393     21392     21395     21398     21394     21392     21395     21396
     21394     21392     21395     21397     21394     21392     21395     21398
     21395     21398     21401     21402     21395     21398     21401     21403
     21395     21398     21401     21404     21396     21395     21398     21399
     21396     21395     21398     21400     21396     21395     21398     21401
     21397     21395     21398     21399     21397     21395     21398     21400
     21397     21395     21398     21401     21398     21401     21404     21405
     21398     21401     21404     21406     21398     21401     21404     21407
     21399     21398     21401     21402     21399     21398     21401     21403
     21399     21398     21401     21404     21400     21398     21401     21402
     21400     21398     21401     21403     21400     21398     21401     21404
     21401     21404     21407     21408     21401     21404     21407     21409
     21401     21404     21407     21410     21402     21401     21404     21405
     21402     21401     21404     21406     21402     21401     21404     21407
     21403     21401     21404     21405     21403     21401     21404     21406
     21403     21401     21404     21407     21404     21407     21410     21411
     21404     21407     21410     21412     21404     21407     21410     21413
     21405     21404     21407     21408     21405     21404     21407     21409
     21405     21404     21407     21410     21406     21404     21407     21408
     21406     21404     21407     21409     21406     21404     21407     21410
     21408     21407     21410     21411     21408     21407     21410     21412
     21408     21407     21410     21413     21409     21407     21410     21411
     21409     21407     21410     21412     21409     21407     21410     21413
     21414     21417     21420     21421     21414     21417     21420     21422
     21414     21417     21420     21423     21415     21414     21417     21418
     21415     21414     21417     21419     21415     21414     21417     21420
     21416     21414     21417     21418     21416     21414     21417     21419
     21416     21414     21417     21420     21417     21420     21423     21424
     21417     21420     21423     21425     21417     21420     21423     21426
     21418     21417     21420     21421     21418     21417     21420     21422
     21418     21417     21420     21423     21419     21417     21420     21421
     21419     21417     21420     21422     21419     21417     21420     21423
     21420     21423     21426     21427     21420     21423     21426     21428
     21420     21423     21426     21429     21421     21420     21423     21424
     21421     21420     21423     21425     21421     21420     21423     21426
     21422     21420     21423     21424     21422     21420     21423     21425
     21422     21420     21423     21426     21423     21426     21429     21430
     21423     21426     21429     21431     21423     21426     21429     21432
     21424     21423     21426     21427     21424     21423     21426     21428
     21424     21423     21426     21429     21425     21423     21426     21427
     21425     21423     21426     21428     21425     21423     21426     21429
     21426     21429     21432     21433     21426     21429     21432     21434
     21426     21429     21432     21435     21427     21426     21429     21430
     21427     21426     21429     21431     21427     21426     21429     21432
     21428     21426     21429     21430     21428     21426     21429     21431
     21428     21426     21429     21432     21429     21432     21435     21436
     21429     21432     21435     21437     21429     21432     21435     21438
     21430     21429     21432     21433     21430     21429     21432     21434
     21430     21429     21432     21435     21431     21429     21432     21433
     21431     21429     21432     21434     21431     21429     21432     21435
     21432     21435     21438     21439     21432     21435     21438     21440
     21432     21435     21438     21441     21433     21432     21435     21436
     21433     21432     21435     21437     21433     21432     21435     21438
     21434     21432     21435     21436     21434     21432     21435     21437
     21434     21432     21435     21438     21435     21438     21441     21442
     21435     21438     21441     21443     21435     21438     21441     21444
     21436     21435     21438     21439     21436     21435     21438     21440
     21436     21435     21438     21441     21437     21435     21438     21439
     21437     21435     21438     21440     21437     21435     21438     21441
     21438     21441     21444     21445     21438     21441     21444     21446
     21438     21441     21444     21447     21439     21438     21441     21442
     21439     21438     21441     21443     21439     21438     21441     21444
     21440     21438     21441     21442     21440     21438     21441     21443
     21440     21438     21441     21444     21441     21444     21447     21448
     21441     21444     21447     21449     21441     21444     21447     21450
     21442     21441     21444     21445     21442     21441     21444     21446
     21442     21441     21444     21447     21443     21441     21444     21445
     21443     21441     21444     21446     21443     21441     21444     21447
     21444     21447     21450     21451     21444     21447     21450     21452
     21444     21447     21450     21453     21445     21444     21447     21448
     21445     21444     21447     21449     21445     21444     21447     21450
     21446     21444     21447     21448     21446     21444     21447     21449
     21446     21444     21447     21450     21447     21450     21453     21454
     21447     21450     21453     21455     21447     21450     21453     21456
     21448     21447     21450     21451     21448     21447     21450     21452
     21448     21447     21450     21453     21449     21447     21450     21451
     21449     21447     21450     21452     21449     21447     21450     21453
     21451     21450     21453     21454     21451     21450     21453     21455
     21451     21450     21453     21456     21452     21450     21453     21454
     21452     21450     21453     21455     21452     21450     21453     21456
     21457     21458     21473     21474     21457     21458     21473     21475
     21457     21458     21473     21479     21458     21457     21461     21462
     21458     21457     21461     21463     21458     21457     21461     21464
     21458     21457     21465     21466     21458     21457     21465     21467
     21458     21457     21465     21468     21458     21457     21469     21470
     21458     21457     21469     21471     21458     21457     21469     21472
     21458     21473     21479     21476     21459     21458     21457     21461
     21459     21458     21457     21465     21459     21458     21457     21469
     21459     21458     21473     21474     21459     21458     21473     21475
     21459     21458     21473     21479     21460     21458     21457     21461
     21460     21458     21457     21465     21460     21458     21457     21469
     21460     21458     21473     21474     21460     21458     21473     21475
     21460     21458     21473     21479     21461     21457     21458     21473
     21461     21457     21465     21466     21461     21457     21465     21467
     21461     21457     21465     21468     21461     21457     21469     21470
     21461     21457     21469     21471     21461     21457     21469     21472
     21462     21461     21457     21465     21462     21461     21457     21469
     21463     21461     21457     21465     21463     21461     21457     21469
     21464     21461     21457     21465     21464     21461     21457     21469
     21465     21457     21458     21473     21465     21457     21469     21470
     21465     21457     21469     21471     21465     21457     21469     21472
     21466     21465     21457     21469     21467     21465     21457     21469
     21468     21465     21457     21469     21469     21457     21458     21473
     21473     21479     21476     21477     21473     21479     21476     21478
     21473     21479     21476     21480     21474     21473     21479     21476
     21475     21473     21479     21476     21476     21480     21481     21482
     21476     21480     21481     21483     21476     21480     21481     21484
     21477     21476     21480     21481     21478     21476     21480     21481
     21479     21476     21480     21481     21480     21481     21484     21485
     21480     21481     21484     21486     21480     21481     21484     21492
     21481     21484     21486     21487     21481     21484     21492     21493
     21481     21484     21492     21494     21481     21484     21492     21495
     21482     21481     21484     21485     21482     21481     21484     21486
     21482     21481     21484     21492     21483     21481     21484     21485
     21483     21481     21484     21486     21483     21481     21484     21492
     21484     21486     21487     21488     21484     21486     21487     21489
     21484     21492     21495     21496     21485     21484     21486     21487
     21485     21484     21492     21493     21485     21484     21492     21494
     21485     21484     21492     21495     21486     21484     21492     21493
     21486     21484     21492     21494     21486     21484     21492     21495
     21486     21487     21489     21490     21486     21487     21489     21491
     21486     21487     21489     21501     21487     21486     21484     21492
     21487     21489     21501     21502     21487     21489     21501     21503
     21487     21489     21501     21504     21488     21487     21489     21490
     21488     21487     21489     21491     21488     21487     21489     21501
     21489     21501     21504     21505     21489     21501     21504     21506
     21489     21501     21504     21507     21490     21489     21501     21502
     21490     21489     21501     21503     21490     21489     21501     21504
     21491     21489     21501     21502     21491     21489     21501     21503
     21491     21489     21501     21504     21492     21495     21496     21497
     21492     21495     21496     21498     21493     21492     21495     21496
     21494     21492     21495     21496     21495     21496     21498     21499
     21495     21496     21498     21500     21495     21496     21498     21548
     21496     21498     21548     21549     21496     21498     21548     21550
     21496     21498     21548     21551     21497     21496     21498     21499
     21497     21496     21498     21500     21497     21496     21498     21548
     21498     21548     21551     21552     21498     21548     21551     21553
     21498     21548     21551     21554     21499     21498     21548     21549
     21499     21498     21548     21550     21499     21498     21548     21551
     21500     21498     21548     21549     21500     21498     21548     21550
     21500     21498     21548     21551     21501     21504     21507     21508
     21501     21504     21507     21509     21501     21504     21507     21510
     21502     21501     21504     21505     21502     21501     21504     21506
     21502     21501     21504     21507     21503     21501     21504     21505
     21503     21501     21504     21506     21503     21501     21504     21507
     21504     21507     21510     21511     21504     21507     21510     21512
     21504     21507     21510     21513     21505     21504     21507     21508
     21505     21504     21507     21509     21505     21504     21507     21510
     21506     21504     21507     21508     21506     21504     21507     21509
     21506     21504     21507     21510     21507     21510     21513     21514
     21507     21510     21513     21515     21507     21510     21513     21516
     21508     21507     21510     21511     21508     21507     21510     21512
     21508     21507     21510     21513     21509     21507     21510     21511
     21509     21507     21510     21512     21509     21507     21510     21513
     21510     21513     21516     21517     21510     21513     21516     21518
     21510     21513     21516     21519     21511     21510     21513     21514
     21511     21510     21513     21515     21511     21510     21513     21516
     21512     21510     21513     21514     21512     21510     21513     21515
     21512     21510     21513     21516     21513     21516     21519     21520
     21513     21516     21519     21521     21514     21513     21516     21517
     21514     21513     21516     21518     21514     21513     21516     21519
     21515     21513     21516     21517     21515     21513     21516     21518
     21515     21513     21516     21519     21516     21519     21521     21522
     21516     21519     21521     21523     21517     21516     21519     21520
     21517     21516     21519     21521     21518     21516     21519     21520
     21518     21516     21519     21521     21519     21521     21523     21524
     21519     21521     21523     21525     21519     21521     21523     21526
     21520     21519     21521     21522     21520     21519     21521     21523
     21521     21523     21526     21527     21521     21523     21526     21528
     21521     21523     21526     21529     21522     21521     21523     21524
     21522     21521     21523     21525     21522     21521     21523     21526
     21523     21526     21529     21530     21523     21526     21529     21531
     21523     21526     21529     21532     21524     21523     21526     21527
     21524     21523     21526     21528     21524     21523     21526     21529
     21525     21523     21526     21527     21525     21523     21526     21528
     21525     21523     21526     21529     21526     21529     21532     21533
     21526     21529     21532     21534     21526     21529     21532     21535
     21527     21526     21529     21530     21527     21526     21529     21531
     21527     21526     21529     21532     21528     21526     21529     21530
     21528     21526     21529     21531     21528     21526     21529     21532
     21529     21532     21535     21536     21529     21532     21535     21537
     21529     21532     21535     21538     21530     21529     21532     21533
     21530     21529     21532     21534     21530     21529     21532     21535
     21531     21529     21532     21533     21531     21529     21532     21534
     21531     21529     21532     21535     21532     21535     21538     21539
     21532     21535     21538     21540     21532     21535     21538     21541
     21533     21532     21535     21536     21533     21532     21535     21537
     21533     21532     21535     21538     21534     21532     21535     21536
     21534     21532     21535     21537     21534     21532     21535     21538
     21535     21538     21541     21542     21535     21538     21541     21543
     21535     21538     21541     21544     21536     21535     21538     21539
     21536     21535     21538     21540     21536     21535     21538     21541
     21537     21535     21538     21539     21537     21535     21538     21540
     21537     21535     21538     21541     21538     21541     21544     21545
     21538     21541     21544     21546     21538     21541     21544     21547
     21539     21538     21541     21542     21539     21538     21541     21543
     21539     21538     21541     21544     21540     21538     21541     21542
     21540     21538     21541     21543     21540     21538     21541     21544
     21542     21541     21544     21545     21542     21541     21544     21546
     21542     21541     21544     21547     21543     21541     21544     21545
     21543     21541     21544     21546     21543     21541     21544     21547
     21548     21551     21554     21555     21548     21551     21554     21556
     21548     21551     21554     21557     21549     21548     21551     21552
     21549     21548     21551     21553     21549     21548     21551     21554
     21550     21548     21551     21552     21550     21548     21551     21553
     21550     21548     21551     21554     21551     21554     21557     21558
     21551     21554     21557     21559     21551     21554     21557     21560
     21552     21551     21554     21555     21552     21551     21554     21556
     21552     21551     21554     21557     21553     21551     21554     21555
     21553     21551     21554     21556     21553     21551     21554     21557
     21554     21557     21560     21561     21554     21557     21560     21562
     21554     21557     21560     21563     21555     21554     21557     21558
     21555     21554     21557     21559     21555     21554     21557     21560
     21556     21554     21557     21558     21556     21554     21557     21559
     21556     21554     21557     21560     21557     21560     21563     21564
     21557     21560     21563     21565     21557     21560     21563     21566
     21558     21557     21560     21561     21558     21557     21560     21562
     21558     21557     21560     21563     21559     21557     21560     21561
     21559     21557     21560     21562     21559     21557     21560     21563
     21560     21563     21566     21567     21560     21563     21566     21568
     21560     21563     21566     21569     21561     21560     21563     21564
     21561     21560     21563     21565     21561     21560     21563     21566
     21562     21560     21563     21564     21562     21560     21563     21565
     21562     21560     21563     21566     21563     21566     21569     21570
     21563     21566     21569     21571     21563     21566     21569     21572
     21564     21563     21566     21567     21564     21563     21566     21568
     21564     21563     21566     21569     21565     21563     21566     21567
     21565     21563     21566     21568     21565     21563     21566     21569
     21566     21569     21572     21573     21566     21569     21572     21574
     21566     21569     21572     21575     21567     21566     21569     21570
     21567     21566     21569     21571     21567     21566     21569     21572
     21568     21566     21569     21570     21568     21566     21569     21571
     21568     21566     21569     21572     21569     21572     21575     21576
     21569     21572     21575     21577     21569     21572     21575     21578
     21570     21569     21572     21573     21570     21569     21572     21574
     21570     21569     21572     21575     21571     21569     21572     21573
     21571     21569     21572     21574     21571     21569     21572     21575
     21572     21575     21578     21579     21572     21575     21578     21580
     21572     21575     21578     21581     21573     21572     21575     21576
     21573     21572     21575     21577     21573     21572     21575     21578
     21574     21572     21575     21576     21574     21572     21575     21577
     21574     21572     21575     21578     21575     21578     21581     21582
     21575     21578     21581     21583     21575     21578     21581     21584
     21576     21575     21578     21579     21576     21575     21578     21580
     21576     21575     21578     21581     21577     21575     21578     21579
     21577     21575     21578     21580     21577     21575     21578     21581
     21578     21581     21584     21585     21578     21581     21584     21586
     21578     21581     21584     21587     21579     21578     21581     21582
     21579     21578     21581     21583     21579     21578     21581     21584
     21580     21578     21581     21582     21580     21578     21581     21583
     21580     21578     21581     21584     21581     21584     21587     21588
     21581     21584     21587     21589     21581     21584     21587     21590
     21582     21581     21584     21585     21582     21581     21584     21586
     21582     21581     21584     21587     21583     21581     21584     21585
     21583     21581     21584     21586     21583     21581     21584     21587
     21585     21584     21587     21588     21585     21584     21587     21589
     21585     21584     21587     21590     21586     21584     21587     21588
     21586     21584     21587     21589     21586     21584     21587     21590
     21591     21592     21607     21608     21591     21592     21607     21609
     21591     21592     21607     21613     21592     21591     21595     21596
     21592     21591     21595     21597     21592     21591     21595     21598
     21592     21591     21599     21600     21592     21591     21599     21601
     21592     21591     21599     21602     21592     21591     21603     21604
     21592     21591     21603     21605     21592     21591     21603     21606
     21592     21607     21613     21610     21593     21592     21591     21595
     21593     21592     21591     21599     21593     21592     21591     21603
     21593     21592     21607     21608     21593     21592     21607     21609
     21593     21592     21607     21613     21594     21592     21591     21595
     21594     21592     21591     21599     21594     21592     21591     21603
     21594     21592     21607     21608     21594     21592     21607     21609
     21594     21592     21607     21613     21595     21591     21592     21607
     21595     21591     21599     21600     21595     21591     21599     21601
     21595     21591     21599     21602     21595     21591     21603     21604
     21595     21591     21603     21605     21595     21591     21603     21606
     21596     21595     21591     21599     21596     21595     21591     21603
     21597     21595     21591     21599     21597     21595     21591     21603
     21598     21595     21591     21599     21598     21595     21591     21603
     21599     21591     21592     21607     21599     21591     21603     21604
     21599     21591     21603     21605     21599     21591     21603     21606
     21600     21599     21591     21603     21601     21599     21591     21603
     21602     21599     21591     21603     21603     21591     21592     21607
     21607     21613     21610     21611     21607     21613     21610     21612
     21607     21613     21610     21614     21608     21607     21613     21610
     21609     21607     21613     21610     21610     21614     21615     21616
     21610     21614     21615     21617     21610     21614     21615     21618
     21611     21610     21614     21615     21612     21610     21614     21615
     21613     21610     21614     21615     21614     21615     21618     21619
     21614     21615     21618     21620     21614     21615     21618     21626
     21615     21618     21620     21621     21615     21618     21626     21627
     21615     21618     21626     21628     21615     21618     21626     21629
     21616     21615     21618     21619     21616     21615     21618     21620
     21616     21615     21618     21626     21617     21615     21618     21619
     21617     21615     21618     21620     21617     21615     21618     21626
     21618     21620     21621     21622     21618     21620     21621     21623
     21618     21626     21629     21630     21619     21618     21620     21621
     21619     21618     21626     21627     21619     21618     21626     21628
     21619     21618     21626     21629     21620     21618     21626     21627
     21620     21618     21626     21628     21620     21618     21626     21629
     21620     21621     21623     21624     21620     21621     21623     21625
     21620     21621     21623     21635     21621     21620     21618     21626
     21621     21623     21635     21636     21621     21623     21635     21637
     21621     21623     21635     21638     21622     21621     21623     21624
     21622     21621     21623     21625     21622     21621     21623     21635
     21623     21635     21638     21639     21623     21635     21638     21640
     21623     21635     21638     21641     21624     21623     21635     21636
     21624     21623     21635     21637     21624     21623     21635     21638
     21625     21623     21635     21636     21625     21623     21635     21637
     21625     21623     21635     21638     21626     21629     21630     21631
     21626     21629     21630     21632     21627     21626     21629     21630
     21628     21626     21629     21630     21629     21630     21632     21633
     21629     21630     21632     21634     21629     21630     21632     21682
     21630     21632     21682     21683     21630     21632     21682     21684
     21630     21632     21682     21685     21631     21630     21632     21633
     21631     21630     21632     21634     21631     21630     21632     21682
     21632     21682     21685     21686     21632     21682     21685     21687
     21632     21682     21685     21688     21633     21632     21682     21683
     21633     21632     21682     21684     21633     21632     21682     21685
     21634     21632     21682     21683     21634     21632     21682     21684
     21634     21632     21682     21685     21635     21638     21641     21642
     21635     21638     21641     21643     21635     21638     21641     21644
     21636     21635     21638     21639     21636     21635     21638     21640
     21636     21635     21638     21641     21637     21635     21638     21639
     21637     21635     21638     21640     21637     21635     21638     21641
     21638     21641     21644     21645     21638     21641     21644     21646
     21638     21641     21644     21647     21639     21638     21641     21642
     21639     21638     21641     21643     21639     21638     21641     21644
     21640     21638     21641     21642     21640     21638     21641     21643
     21640     21638     21641     21644     21641     21644     21647     21648
     21641     21644     21647     21649     21641     21644     21647     21650
     21642     21641     21644     21645     21642     21641     21644     21646
     21642     21641     21644     21647     21643     21641     21644     21645
     21643     21641     21644     21646     21643     21641     21644     21647
     21644     21647     21650     21651     21644     21647     21650     21652
     21644     21647     21650     21653     21645     21644     21647     21648
     21645     21644     21647     21649     21645     21644     21647     21650
     21646     21644     21647     21648     21646     21644     21647     21649
     21646     21644     21647     21650     21647     21650     21653     21654
     21647     21650     21653     21655     21648     21647     21650     21651
     21648     21647     21650     21652     21648     21647     21650     21653
     21649     21647     21650     21651     21649     21647     21650     21652
     21649     21647     21650     21653     21650     21653     21655     21656
     21650     21653     21655     21657     21651     21650     21653     21654
     21651     21650     21653     21655     21652     21650     21653     21654
     21652     21650     21653     21655     21653     21655     21657     21658
     21653     21655     21657     21659     21653     21655     21657     21660
     21654     21653     21655     21656     21654     21653     21655     21657
     21655     21657     21660     21661     21655     21657     21660     21662
     21655     21657     21660     21663     21656     21655     21657     21658
     21656     21655     21657     21659     21656     21655     21657     21660
     21657     21660     21663     21664     21657     21660     21663     21665
     21657     21660     21663     21666     21658     21657     21660     21661
     21658     21657     21660     21662     21658     21657     21660     21663
     21659     21657     21660     21661     21659     21657     21660     21662
     21659     21657     21660     21663     21660     21663     21666     21667
     21660     21663     21666     21668     21660     21663     21666     21669
     21661     21660     21663     21664     21661     21660     21663     21665
     21661     21660     21663     21666     21662     21660     21663     21664
     21662     21660     21663     21665     21662     21660     21663     21666
     21663     21666     21669     21670     21663     21666     21669     21671
     21663     21666     21669     21672     21664     21663     21666     21667
     21664     21663     21666     21668     21664     21663     21666     21669
     21665     21663     21666     21667     21665     21663     21666     21668
     21665     21663     21666     21669     21666     21669     21672     21673
     21666     21669     21672     21674     21666     21669     21672     21675
     21667     21666     21669     21670     21667     21666     21669     21671
     21667     21666     21669     21672     21668     21666     21669     21670
     21668     21666     21669     21671     21668     21666     21669     21672
     21669     21672     21675     21676     21669     21672     21675     21677
     21669     21672     21675     21678     21670     21669     21672     21673
     21670     21669     21672     21674     21670     21669     21672     21675
     21671     21669     21672     21673     21671     21669     21672     21674
     21671     21669     21672     21675     21672     21675     21678     21679
     21672     21675     21678     21680     21672     21675     21678     21681
     21673     21672     21675     21676     21673     21672     21675     21677
     21673     21672     21675     21678     21674     21672     21675     21676
     21674     21672     21675     21677     21674     21672     21675     21678
     21676     21675     21678     21679     21676     21675     21678     21680
     21676     21675     21678     21681     21677     21675     21678     21679
     21677     21675     21678     21680     21677     21675     21678     21681
     21682     21685     21688     21689     21682     21685     21688     21690
     21682     21685     21688     21691     21683     21682     21685     21686
     21683     21682     21685     21687     21683     21682     21685     21688
     21684     21682     21685     21686     21684     21682     21685     21687
     21684     21682     21685     21688     21685     21688     21691     21692
     21685     21688     21691     21693     21685     21688     21691     21694
     21686     21685     21688     21689     21686     21685     21688     21690
     21686     21685     21688     21691     21687     21685     21688     21689
     21687     21685     21688     21690     21687     21685     21688     21691
     21688     21691     21694     21695     21688     21691     21694     21696
     21688     21691     21694     21697     21689     21688     21691     21692
     21689     21688     21691     21693     21689     21688     21691     21694
     21690     21688     21691     21692     21690     21688     21691     21693
     21690     21688     21691     21694     21691     21694     21697     21698
     21691     21694     21697     21699     21691     21694     21697     21700
     21692     21691     21694     21695     21692     21691     21694     21696
     21692     21691     21694     21697     21693     21691     21694     21695
     21693     21691     21694     21696     21693     21691     21694     21697
     21694     21697     21700     21701     21694     21697     21700     21702
     21694     21697     21700     21703     21695     21694     21697     21698
     21695     21694     21697     21699     21695     21694     21697     21700
     21696     21694     21697     21698     21696     21694     21697     21699
     21696     21694     21697     21700     21697     21700     21703     21704
     21697     21700     21703     21705     21697     21700     21703     21706
     21698     21697     21700     21701     21698     21697     21700     21702
     21698     21697     21700     21703     21699     21697     21700     21701
     21699     21697     21700     21702     21699     21697     21700     21703
     21700     21703     21706     21707     21700     21703     21706     21708
     21700     21703     21706     21709     21701     21700     21703     21704
     21701     21700     21703     21705     21701     21700     21703     21706
     21702     21700     21703     21704     21702     21700     21703     21705
     21702     21700     21703     21706     21703     21706     21709     21710
     21703     21706     21709     21711     21703     21706     21709     21712
     21704     21703     21706     21707     21704     21703     21706     21708
     21704     21703     21706     21709     21705     21703     21706     21707
     21705     21703     21706     21708     21705     21703     21706     21709
     21706     21709     21712     21713     21706     21709     21712     21714
     21706     21709     21712     21715     21707     21706     21709     21710
     21707     21706     21709     21711     21707     21706     21709     21712
     21708     21706     21709     21710     21708     21706     21709     21711
     21708     21706     21709     21712     21709     21712     21715     21716
     21709     21712     21715     21717     21709     21712     21715     21718
     21710     21709     21712     21713     21710     21709     21712     21714
     21710     21709     21712     21715     21711     21709     21712     21713
     21711     21709     21712     21714     21711     21709     21712     21715
     21712     21715     21718     21719     21712     21715     21718     21720
     21712     21715     21718     21721     21713     21712     21715     21716
     21713     21712     21715     21717     21713     21712     21715     21718
     21714     21712     21715     21716     21714     21712     21715     21717
     21714     21712     21715     21718     21715     21718     21721     21722
     21715     21718     21721     21723     21715     21718     21721     21724
     21716     21715     21718     21719     21716     21715     21718     21720
     21716     21715     21718     21721     21717     21715     21718     21719
     21717     21715     21718     21720     21717     21715     21718     21721
     21719     21718     21721     21722     21719     21718     21721     21723
     21719     21718     21721     21724     21720     21718     21721     21722
     21720     21718     21721     21723     21720     21718     21721     21724
     21725     21726     21741     21742     21725     21726     21741     21743
     21725     21726     21741     21747     21726     21725     21729     21730
     21726     21725     21729     21731     21726     21725     21729     21732
     21726     21725     21733     21734     21726     21725     21733     21735
     21726     21725     21733     21736     21726     21725     21737     21738
     21726     21725     21737     21739     21726     21725     21737     21740
     21726     21741     21747     21744     21727     21726     21725     21729
     21727     21726     21725     21733     21727     21726     21725     21737
     21727     21726     21741     21742     21727     21726     21741     21743
     21727     21726     21741     21747     21728     21726     21725     21729
     21728     21726     21725     21733     21728     21726     21725     21737
     21728     21726     21741     21742     21728     21726     21741     21743
     21728     21726     21741     21747     21729     21725     21726     21741
     21729     21725     21733     21734     21729     21725     21733     21735
     21729     21725     21733     21736     21729     21725     21737     21738
     21729     21725     21737     21739     21729     21725     21737     21740
     21730     21729     21725     21733     21730     21729     21725     21737
     21731     21729     21725     21733     21731     21729     21725     21737
     21732     21729     21725     21733     21732     21729     21725     21737
     21733     21725     21726     21741     21733     21725     21737     21738
     21733     21725     21737     21739     21733     21725     21737     21740
     21734     21733     21725     21737     21735     21733     21725     21737
     21736     21733     21725     21737     21737     21725     21726     21741
     21741     21747     21744     21745     21741     21747     21744     21746
     21741     21747     21744     21748     21742     21741     21747     21744
     21743     21741     21747     21744     21744     21748     21749     21750
     21744     21748     21749     21751     21744     21748     21749     21752
     21745     21744     21748     21749     21746     21744     21748     21749
     21747     21744     21748     21749     21748     21749     21752     21753
     21748     21749     21752     21754     21748     21749     21752     21760
     21749     21752     21754     21755     21749     21752     21760     21761
     21749     21752     21760     21762     21749     21752     21760     21763
     21750     21749     21752     21753     21750     21749     21752     21754
     21750     21749     21752     21760     21751     21749     21752     21753
     21751     21749     21752     21754     21751     21749     21752     21760
     21752     21754     21755     21756     21752     21754     21755     21757
     21752     21760     21763     21764     21753     21752     21754     21755
     21753     21752     21760     21761     21753     21752     21760     21762
     21753     21752     21760     21763     21754     21752     21760     21761
     21754     21752     21760     21762     21754     21752     21760     21763
     21754     21755     21757     21758     21754     21755     21757     21759
     21754     21755     21757     21769     21755     21754     21752     21760
     21755     21757     21769     21770     21755     21757     21769     21771
     21755     21757     21769     21772     21756     21755     21757     21758
     21756     21755     21757     21759     21756     21755     21757     21769
     21757     21769     21772     21773     21757     21769     21772     21774
     21757     21769     21772     21775     21758     21757     21769     21770
     21758     21757     21769     21771     21758     21757     21769     21772
     21759     21757     21769     21770     21759     21757     21769     21771
     21759     21757     21769     21772     21760     21763     21764     21765
     21760     21763     21764     21766     21761     21760     21763     21764
     21762     21760     21763     21764     21763     21764     21766     21767
     21763     21764     21766     21768     21763     21764     21766     21816
     21764     21766     21816     21817     21764     21766     21816     21818
     21764     21766     21816     21819     21765     21764     21766     21767
     21765     21764     21766     21768     21765     21764     21766     21816
     21766     21816     21819     21820     21766     21816     21819     21821
     21766     21816     21819     21822     21767     21766     21816     21817
     21767     21766     21816     21818     21767     21766     21816     21819
     21768     21766     21816     21817     21768     21766     21816     21818
     21768     21766     21816     21819     21769     21772     21775     21776
     21769     21772     21775     21777     21769     21772     21775     21778
     21770     21769     21772     21773     21770     21769     21772     21774
     21770     21769     21772     21775     21771     21769     21772     21773
     21771     21769     21772     21774     21771     21769     21772     21775
     21772     21775     21778     21779     21772     21775     21778     21780
     21772     21775     21778     21781     21773     21772     21775     21776
     21773     21772     21775     21777     21773     21772     21775     21778
     21774     21772     21775     21776     21774     21772     21775     21777
     21774     21772     21775     21778     21775     21778     21781     21782
     21775     21778     21781     21783     21775     21778     21781     21784
     21776     21775     21778     21779     21776     21775     21778     21780
     21776     21775     21778     21781     21777     21775     21778     21779
     21777     21775     21778     21780     21777     21775     21778     21781
     21778     21781     21784     21785     21778     21781     21784     21786
     21778     21781     21784     21787     21779     21778     21781     21782
     21779     21778     21781     21783     21779     21778     21781     21784
     21780     21778     21781     21782     21780     21778     21781     21783
     21780     21778     21781     21784     21781     21784     21787     21788
     21781     21784     21787     21789     21782     21781     21784     21785
     21782     21781     21784     21786     21782     21781     21784     21787
     21783     21781     21784     21785     21783     21781     21784     21786
     21783     21781     21784     21787     21784     21787     21789     21790
     21784     21787     21789     21791     21785     21784     21787     21788
     21785     21784     21787     21789     21786     21784     21787     21788
     21786     21784     21787     21789     21787     21789     21791     21792
     21787     21789     21791     21793     21787     21789     21791     21794
     21788     21787     21789     21790     21788     21787     21789     21791
     21789     21791     21794     21795     21789     21791     21794     21796
     21789     21791     21794     21797     21790     21789     21791     21792
     21790     21789     21791     21793     21790     21789     21791     21794
     21791     21794     21797     21798     21791     21794     21797     21799
     21791     21794     21797     21800     21792     21791     21794     21795
     21792     21791     21794     21796     21792     21791     21794     21797
     21793     21791     21794     21795     21793     21791     21794     21796
     21793     21791     21794     21797     21794     21797     21800     21801
     21794     21797     21800     21802     21794     21797     21800     21803
     21795     21794     21797     21798     21795     21794     21797     21799
     21795     21794     21797     21800     21796     21794     21797     21798
     21796     21794     21797     21799     21796     21794     21797     21800
     21797     21800     21803     21804     21797     21800     21803     21805
     21797     21800     21803     21806     21798     21797     21800     21801
     21798     21797     21800     21802     21798     21797     21800     21803
     21799     21797     21800     21801     21799     21797     21800     21802
     21799     21797     21800     21803     21800     21803     21806     21807
     21800     21803     21806     21808     21800     21803     21806     21809
     21801     21800     21803     21804     21801     21800     21803     21805
     21801     21800     21803     21806     21802     21800     21803     21804
     21802     21800     21803     21805     21802     21800     21803     21806
     21803     21806     21809     21810     21803     21806     21809     21811
     21803     21806     21809     21812     21804     21803     21806     21807
     21804     21803     21806     21808     21804     21803     21806     21809
     21805     21803     21806     21807     21805     21803     21806     21808
     21805     21803     21806     21809     21806     21809     21812     21813
     21806     21809     21812     21814     21806     21809     21812     21815
     21807     21806     21809     21810     21807     21806     21809     21811
     21807     21806     21809     21812     21808     21806     21809     21810
     21808     21806     21809     21811     21808     21806     21809     21812
     21810     21809     21812     21813     21810     21809     21812     21814
     21810     21809     21812     21815     21811     21809     21812     21813
     21811     21809     21812     21814     21811     21809     21812     21815
     21816     21819     21822     21823     21816     21819     21822     21824
     21816     21819     21822     21825     21817     21816     21819     21820
     21817     21816     21819     21821     21817     21816     21819     21822
     21818     21816     21819     21820     21818     21816     21819     21821
     21818     21816     21819     21822     21819     21822     21825     21826
     21819     21822     21825     21827     21819     21822     21825     21828
     21820     21819     21822     21823     21820     21819     21822     21824
     21820     21819     21822     21825     21821     21819     21822     21823
     21821     21819     21822     21824     21821     21819     21822     21825
     21822     21825     21828     21829     21822     21825     21828     21830
     21822     21825     21828     21831     21823     21822     21825     21826
     21823     21822     21825     21827     21823     21822     21825     21828
     21824     21822     21825     21826     21824     21822     21825     21827
     21824     21822     21825     21828     21825     21828     21831     21832
     21825     21828     21831     21833     21825     21828     21831     21834
     21826     21825     21828     21829     21826     21825     21828     21830
     21826     21825     21828     21831     21827     21825     21828     21829
     21827     21825     21828     21830     21827     21825     21828     21831
     21828     21831     21834     21835     21828     21831     21834     21836
     21828     21831     21834     21837     21829     21828     21831     21832
     21829     21828     21831     21833     21829     21828     21831     21834
     21830     21828     21831     21832     21830     21828     21831     21833
     21830     21828     21831     21834     21831     21834     21837     21838
     21831     21834     21837     21839     21831     21834     21837     21840
     21832     21831     21834     21835     21832     21831     21834     21836
     21832     21831     21834     21837     21833     21831     21834     21835
     21833     21831     21834     21836     21833     21831     21834     21837
     21834     21837     21840     21841     21834     21837     21840     21842
     21834     21837     21840     21843     21835     21834     21837     21838
     21835     21834     21837     21839     21835     21834     21837     21840
     21836     21834     21837     21838     21836     21834     21837     21839
     21836     21834     21837     21840     21837     21840     21843     21844
     21837     21840     21843     21845     21837     21840     21843     21846
     21838     21837     21840     21841     21838     21837     21840     21842
     21838     21837     21840     21843     21839     21837     21840     21841
     21839     21837     21840     21842     21839     21837     21840     21843
     21840     21843     21846     21847     21840     21843     21846     21848
     21840     21843     21846     21849     21841     21840     21843     21844
     21841     21840     21843     21845     21841     21840     21843     21846
     21842     21840     21843     21844     21842     21840     21843     21845
     21842     21840     21843     21846     21843     21846     21849     21850
     21843     21846     21849     21851     21843     21846     21849     21852
     21844     21843     21846     21847     21844     21843     21846     21848
     21844     21843     21846     21849     21845     21843     21846     21847
     21845     21843     21846     21848     21845     21843     21846     21849
     21846     21849     21852     21853     21846     21849     21852     21854
     21846     21849     21852     21855     21847     21846     21849     21850
     21847     21846     21849     21851     21847     21846     21849     21852
     21848     21846     21849     21850     21848     21846     21849     21851
     21848     21846     21849     21852     21849     21852     21855     21856
     21849     21852     21855     21857     21849     21852     21855     21858
     21850     21849     21852     21853     21850     21849     21852     21854
     21850     21849     21852     21855     21851     21849     21852     21853
     21851     21849     21852     21854     21851     21849     21852     21855
     21853     21852     21855     21856     21853     21852     21855     21857
     21853     21852     21855     21858     21854     21852     21855     21856
     21854     21852     21855     21857     21854     21852     21855     21858
     21859     21860     21875     21876     21859     21860     21875     21877
     21859     21860     21875     21881     21860     21859     21863     21864
     21860     21859     21863     21865     21860     21859     21863     21866
     21860     21859     21867     21868     21860     21859     21867     21869
     21860     21859     21867     21870     21860     21859     21871     21872
     21860     21859     21871     21873     21860     21859     21871     21874
     21860     21875     21881     21878     21861     21860     21859     21863
     21861     21860     21859     21867     21861     21860     21859     21871
     21861     21860     21875     21876     21861     21860     21875     21877
     21861     21860     21875     21881     21862     21860     21859     21863
     21862     21860     21859     21867     21862     21860     21859     21871
     21862     21860     21875     21876     21862     21860     21875     21877
     21862     21860     21875     21881     21863     21859     21860     21875
     21863     21859     21867     21868     21863     21859     21867     21869
     21863     21859     21867     21870     21863     21859     21871     21872
     21863     21859     21871     21873     21863     21859     21871     21874
     21864     21863     21859     21867     21864     21863     21859     21871
     21865     21863     21859     21867     21865     21863     21859     21871
     21866     21863     21859     21867     21866     21863     21859     21871
     21867     21859     21860     21875     21867     21859     21871     21872
     21867     21859     21871     21873     21867     21859     21871     21874
     21868     21867     21859     21871     21869     21867     21859     21871
     21870     21867     21859     21871     21871     21859     21860     21875
     21875     21881     21878     21879     21875     21881     21878     21880
     21875     21881     21878     21882     21876     21875     21881     21878
     21877     21875     21881     21878     21878     21882     21883     21884
     21878     21882     21883     21885     21878     21882     21883     21886
     21879     21878     21882     21883     21880     21878     21882     21883
     21881     21878     21882     21883     21882     21883     21886     21887
     21882     21883     21886     21888     21882     21883     21886     21894
     21883     21886     21888     21889     21883     21886     21894     21895
     21883     21886     21894     21896     21883     21886     21894     21897
     21884     21883     21886     21887     21884     21883     21886     21888
     21884     21883     21886     21894     21885     21883     21886     21887
     21885     21883     21886     21888     21885     21883     21886     21894
     21886     21888     21889     21890     21886     21888     21889     21891
     21886     21894     21897     21898     21887     21886     21888     21889
     21887     21886     21894     21895     21887     21886     21894     21896
     21887     21886     21894     21897     21888     21886     21894     21895
     21888     21886     21894     21896     21888     21886     21894     21897
     21888     21889     21891     21892     21888     21889     21891     21893
     21888     21889     21891     21903     21889     21888     21886     21894
     21889     21891     21903     21904     21889     21891     21903     21905
     21889     21891     21903     21906     21890     21889     21891     21892
     21890     21889     21891     21893     21890     21889     21891     21903
     21891     21903     21906     21907     21891     21903     21906     21908
     21891     21903     21906     21909     21892     21891     21903     21904
     21892     21891     21903     21905     21892     21891     21903     21906
     21893     21891     21903     21904     21893     21891     21903     21905
     21893     21891     21903     21906     21894     21897     21898     21899
     21894     21897     21898     21900     21895     21894     21897     21898
     21896     21894     21897     21898     21897     21898     21900     21901
     21897     21898     21900     21902     21897     21898     21900     21950
     21898     21900     21950     21951     21898     21900     21950     21952
     21898     21900     21950     21953     21899     21898     21900     21901
     21899     21898     21900     21902     21899     21898     21900     21950
     21900     21950     21953     21954     21900     21950     21953     21955
     21900     21950     21953     21956     21901     21900     21950     21951
     21901     21900     21950     21952     21901     21900     21950     21953
     21902     21900     21950     21951     21902     21900     21950     21952
     21902     21900     21950     21953     21903     21906     21909     21910
     21903     21906     21909     21911     21903     21906     21909     21912
     21904     21903     21906     21907     21904     21903     21906     21908
     21904     21903     21906     21909     21905     21903     21906     21907
     21905     21903     21906     21908     21905     21903     21906     21909
     21906     21909     21912     21913     21906     21909     21912     21914
     21906     21909     21912     21915     21907     21906     21909     21910
     21907     21906     21909     21911     21907     21906     21909     21912
     21908     21906     21909     21910     21908     21906     21909     21911
     21908     21906     21909     21912     21909     21912     21915     21916
     21909     21912     21915     21917     21909     21912     21915     21918
     21910     21909     21912     21913     21910     21909     21912     21914
     21910     21909     21912     21915     21911     21909     21912     21913
     21911     21909     21912     21914     21911     21909     21912     21915
     21912     21915     21918     21919     21912     21915     21918     21920
     21912     21915     21918     21921     21913     21912     21915     21916
     21913     21912     21915     21917     21913     21912     21915     21918
     21914     21912     21915     21916     21914     21912     21915     21917
     21914     21912     21915     21918     21915     21918     21921     21922
     21915     21918     21921     21923     21916     21915     21918     21919
     21916     21915     21918     21920     21916     21915     21918     21921
     21917     21915     21918     21919     21917     21915     21918     21920
     21917     21915     21918     21921     21918     21921     21923     21924
     21918     21921     21923     21925     21919     21918     21921     21922
     21919     21918     21921     21923     21920     21918     21921     21922
     21920     21918     21921     21923     21921     21923     21925     21926
     21921     21923     21925     21927     21921     21923     21925     21928
     21922     21921     21923     21924     21922     21921     21923     21925
     21923     21925     21928     21929     21923     21925     21928     21930
     21923     21925     21928     21931     21924     21923     21925     21926
     21924     21923     21925     21927     21924     21923     21925     21928
     21925     21928     21931     21932     21925     21928     21931     21933
     21925     21928     21931     21934     21926     21925     21928     21929
     21926     21925     21928     21930     21926     21925     21928     21931
     21927     21925     21928     21929     21927     21925     21928     21930
     21927     21925     21928     21931     21928     21931     21934     21935
     21928     21931     21934     21936     21928     21931     21934     21937
     21929     21928     21931     21932     21929     21928     21931     21933
     21929     21928     21931     21934     21930     21928     21931     21932
     21930     21928     21931     21933     21930     21928     21931     21934
     21931     21934     21937     21938     21931     21934     21937     21939
     21931     21934     21937     21940     21932     21931     21934     21935
     21932     21931     21934     21936     21932     21931     21934     21937
     21933     21931     21934     21935     21933     21931     21934     21936
     21933     21931     21934     21937     21934     21937     21940     21941
     21934     21937     21940     21942     21934     21937     21940     21943
     21935     21934     21937     21938     21935     21934     21937     21939
     21935     21934     21937     21940     21936     21934     21937     21938
     21936     21934     21937     21939     21936     21934     21937     21940
     21937     21940     21943     21944     21937     21940     21943     21945
     21937     21940     21943     21946     21938     21937     21940     21941
     21938     21937     21940     21942     21938     21937     21940     21943
     21939     21937     21940     21941     21939     21937     21940     21942
     21939     21937     21940     21943     21940     21943     21946     21947
     21940     21943     21946     21948     21940     21943     21946     21949
     21941     21940     21943     21944     21941     21940     21943     21945
     21941     21940     21943     21946     21942     21940     21943     21944
     21942     21940     21943     21945     21942     21940     21943     21946
     21944     21943     21946     21947     21944     21943     21946     21948
     21944     21943     21946     21949     21945     21943     21946     21947
     21945     21943     21946     21948     21945     21943     21946     21949
     21950     21953     21956     21957     21950     21953     21956     21958
     21950     21953     21956     21959     21951     21950     21953     21954
     21951     21950     21953     21955     21951     21950     21953     21956
     21952     21950     21953     21954     21952     21950     21953     21955
     21952     21950     21953     21956     21953     21956     21959     21960
     21953     21956     21959     21961     21953     21956     21959     21962
     21954     21953     21956     21957     21954     21953     21956     21958
     21954     21953     21956     21959     21955     21953     21956     21957
     21955     21953     21956     21958     21955     21953     21956     21959
     21956     21959     21962     21963     21956     21959     21962     21964
     21956     21959     21962     21965     21957     21956     21959     21960
     21957     21956     21959     21961     21957     21956     21959     21962
     21958     21956     21959     21960     21958     21956     21959     21961
     21958     21956     21959     21962     21959     21962     21965     21966
     21959     21962     21965     21967     21959     21962     21965     21968
     21960     21959     21962     21963     21960     21959     21962     21964
     21960     21959     21962     21965     21961     21959     21962     21963
     21961     21959     21962     21964     21961     21959     21962     21965
     21962     21965     21968     21969     21962     21965     21968     21970
     21962     21965     21968     21971     21963     21962     21965     21966
     21963     21962     21965     21967     21963     21962     21965     21968
     21964     21962     21965     21966     21964     21962     21965     21967
     21964     21962     21965     21968     21965     21968     21971     21972
     21965     21968     21971     21973     21965     21968     21971     21974
     21966     21965     21968     21969     21966     21965     21968     21970
     21966     21965     21968     21971     21967     21965     21968     21969
     21967     21965     21968     21970     21967     21965     21968     21971
     21968     21971     21974     21975     21968     21971     21974     21976
     21968     21971     21974     21977     21969     21968     21971     21972
     21969     21968     21971     21973     21969     21968     21971     21974
     21970     21968     21971     21972     21970     21968     21971     21973
     21970     21968     21971     21974     21971     21974     21977     21978
     21971     21974     21977     21979     21971     21974     21977     21980
     21972     21971     21974     21975     21972     21971     21974     21976
     21972     21971     21974     21977     21973     21971     21974     21975
     21973     21971     21974     21976     21973     21971     21974     21977
     21974     21977     21980     21981     21974     21977     21980     21982
     21974     21977     21980     21983     21975     21974     21977     21978
     21975     21974     21977     21979     21975     21974     21977     21980
     21976     21974     21977     21978     21976     21974     21977     21979
     21976     21974     21977     21980     21977     21980     21983     21984
     21977     21980     21983     21985     21977     21980     21983     21986
     21978     21977     21980     21981     21978     21977     21980     21982
     21978     21977     21980     21983     21979     21977     21980     21981
     21979     21977     21980     21982     21979     21977     21980     21983
     21980     21983     21986     21987     21980     21983     21986     21988
     21980     21983     21986     21989     21981     21980     21983     21984
     21981     21980     21983     21985     21981     21980     21983     21986
     21982     21980     21983     21984     21982     21980     21983     21985
     21982     21980     21983     21986     21983     21986     21989     21990
     21983     21986     21989     21991     21983     21986     21989     21992
     21984     21983     21986     21987     21984     21983     21986     21988
     21984     21983     21986     21989     21985     21983     21986     21987
     21985     21983     21986     21988     21985     21983     21986     21989
     21987     21986     21989     21990     21987     21986     21989     21991
     21987     21986     21989     21992     21988     21986     21989     21990
     21988     21986     21989     21991     21988     21986     21989     21992
     21993     21994     22009     22010     21993     21994     22009     22011
     21993     21994     22009     22015     21994     21993     21997     21998
     21994     21993     21997     21999     21994     21993     21997     22000
     21994     21993     22001     22002     21994     21993     22001     22003
     21994     21993     22001     22004     21994     21993     22005     22006
     21994     21993     22005     22007     21994     21993     22005     22008
     21994     22009     22015     22012     21995     21994     21993     21997
     21995     21994     21993     22001     21995     21994     21993     22005
     21995     21994     22009     22010     21995     21994     22009     22011
     21995     21994     22009     22015     21996     21994     21993     21997
     21996     21994     21993     22001     21996     21994     21993     22005
     21996     21994     22009     22010     21996     21994     22009     22011
     21996     21994     22009     22015     21997     21993     21994     22009
     21997     21993     22001     22002     21997     21993     22001     22003
     21997     21993     22001     22004     21997     21993     22005     22006
     21997     21993     22005     22007     21997     21993     22005     22008
     21998     21997     21993     22001     21998     21997     21993     22005
     21999     21997     21993     22001     21999     21997     21993     22005
     22000     21997     21993     22001     22000     21997     21993     22005
     22001     21993     21994     22009     22001     21993     22005     22006
     22001     21993     22005     22007     22001     21993     22005     22008
     22002     22001     21993     22005     22003     22001     21993     22005
     22004     22001     21993     22005     22005     21993     21994     22009
     22009     22015     22012     22013     22009     22015     22012     22014
     22009     22015     22012     22016     22010     22009     22015     22012
     22011     22009     22015     22012     22012     22016     22017     22018
     22012     22016     22017     22019     22012     22016     22017     22020
     22013     22012     22016     22017     22014     22012     22016     22017
     22015     22012     22016     22017     22016     22017     22020     22021
     22016     22017     22020     22022     22016     22017     22020     22028
     22017     22020     22022     22023     22017     22020     22028     22029
     22017     22020     22028     22030     22017     22020     22028     22031
     22018     22017     22020     22021     22018     22017     22020     22022
     22018     22017     22020     22028     22019     22017     22020     22021
     22019     22017     22020     22022     22019     22017     22020     22028
     22020     22022     22023     22024     22020     22022     22023     22025
     22020     22028     22031     22032     22021     22020     22022     22023
     22021     22020     22028     22029     22021     22020     22028     22030
     22021     22020     22028     22031     22022     22020     22028     22029
     22022     22020     22028     22030     22022     22020     22028     22031
     22022     22023     22025     22026     22022     22023     22025     22027
     22022     22023     22025     22037     22023     22022     22020     22028
     22023     22025     22037     22038     22023     22025     22037     22039
     22023     22025     22037     22040     22024     22023     22025     22026
     22024     22023     22025     22027     22024     22023     22025     22037
     22025     22037     22040     22041     22025     22037     22040     22042
     22025     22037     22040     22043     22026     22025     22037     22038
     22026     22025     22037     22039     22026     22025     22037     22040
     22027     22025     22037     22038     22027     22025     22037     22039
     22027     22025     22037     22040     22028     22031     22032     22033
     22028     22031     22032     22034     22029     22028     22031     22032
     22030     22028     22031     22032     22031     22032     22034     22035
     22031     22032     22034     22036     22031     22032     22034     22084
     22032     22034     22084     22085     22032     22034     22084     22086
     22032     22034     22084     22087     22033     22032     22034     22035
     22033     22032     22034     22036     22033     22032     22034     22084
     22034     22084     22087     22088     22034     22084     22087     22089
     22034     22084     22087     22090     22035     22034     22084     22085
     22035     22034     22084     22086     22035     22034     22084     22087
     22036     22034     22084     22085     22036     22034     22084     22086
     22036     22034     22084     22087     22037     22040     22043     22044
     22037     22040     22043     22045     22037     22040     22043     22046
     22038     22037     22040     22041     22038     22037     22040     22042
     22038     22037     22040     22043     22039     22037     22040     22041
     22039     22037     22040     22042     22039     22037     22040     22043
     22040     22043     22046     22047     22040     22043     22046     22048
     22040     22043     22046     22049     22041     22040     22043     22044
     22041     22040     22043     22045     22041     22040     22043     22046
     22042     22040     22043     22044     22042     22040     22043     22045
     22042     22040     22043     22046     22043     22046     22049     22050
     22043     22046     22049     22051     22043     22046     22049     22052
     22044     22043     22046     22047     22044     22043     22046     22048
     22044     22043     22046     22049     22045     22043     22046     22047
     22045     22043     22046     22048     22045     22043     22046     22049
     22046     22049     22052     22053     22046     22049     22052     22054
     22046     22049     22052     22055     22047     22046     22049     22050
     22047     22046     22049     22051     22047     22046     22049     22052
     22048     22046     22049     22050     22048     22046     22049     22051
     22048     22046     22049     22052     22049     22052     22055     22056
     22049     22052     22055     22057     22050     22049     22052     22053
     22050     22049     22052     22054     22050     22049     22052     22055
     22051     22049     22052     22053     22051     22049     22052     22054
     22051     22049     22052     22055     22052     22055     22057     22058
     22052     22055     22057     22059     22053     22052     22055     22056
     22053     22052     22055     22057     22054     22052     22055     22056
     22054     22052     22055     22057     22055     22057     22059     22060
     22055     22057     22059     22061     22055     22057     22059     22062
     22056     22055     22057     22058     22056     22055     22057     22059
     22057     22059     22062     22063     22057     22059     22062     22064
     22057     22059     22062     22065     22058     22057     22059     22060
     22058     22057     22059     22061     22058     22057     22059     22062
     22059     22062     22065     22066     22059     22062     22065     22067
     22059     22062     22065     22068     22060     22059     22062     22063
     22060     22059     22062     22064     22060     22059     22062     22065
     22061     22059     22062     22063     22061     22059     22062     22064
     22061     22059     22062     22065     22062     22065     22068     22069
     22062     22065     22068     22070     22062     22065     22068     22071
     22063     22062     22065     22066     22063     22062     22065     22067
     22063     22062     22065     22068     22064     22062     22065     22066
     22064     22062     22065     22067     22064     22062     22065     22068
     22065     22068     22071     22072     22065     22068     22071     22073
     22065     22068     22071     22074     22066     22065     22068     22069
     22066     22065     22068     22070     22066     22065     22068     22071
     22067     22065     22068     22069     22067     22065     22068     22070
     22067     22065     22068     22071     22068     22071     22074     22075
     22068     22071     22074     22076     22068     22071     22074     22077
     22069     22068     22071     22072     22069     22068     22071     22073
     22069     22068     22071     22074     22070     22068     22071     22072
     22070     22068     22071     22073     22070     22068     22071     22074
     22071     22074     22077     22078     22071     22074     22077     22079
     22071     22074     22077     22080     22072     22071     22074     22075
     22072     22071     22074     22076     22072     22071     22074     22077
     22073     22071     22074     22075     22073     22071     22074     22076
     22073     22071     22074     22077     22074     22077     22080     22081
     22074     22077     22080     22082     22074     22077     22080     22083
     22075     22074     22077     22078     22075     22074     22077     22079
     22075     22074     22077     22080     22076     22074     22077     22078
     22076     22074     22077     22079     22076     22074     22077     22080
     22078     22077     22080     22081     22078     22077     22080     22082
     22078     22077     22080     22083     22079     22077     22080     22081
     22079     22077     22080     22082     22079     22077     22080     22083
     22084     22087     22090     22091     22084     22087     22090     22092
     22084     22087     22090     22093     22085     22084     22087     22088
     22085     22084     22087     22089     22085     22084     22087     22090
     22086     22084     22087     22088     22086     22084     22087     22089
     22086     22084     22087     22090     22087     22090     22093     22094
     22087     22090     22093     22095     22087     22090     22093     22096
     22088     22087     22090     22091     22088     22087     22090     22092
     22088     22087     22090     22093     22089     22087     22090     22091
     22089     22087     22090     22092     22089     22087     22090     22093
     22090     22093     22096     22097     22090     22093     22096     22098
     22090     22093     22096     22099     22091     22090     22093     22094
     22091     22090     22093     22095     22091     22090     22093     22096
     22092     22090     22093     22094     22092     22090     22093     22095
     22092     22090     22093     22096     22093     22096     22099     22100
     22093     22096     22099     22101     22093     22096     22099     22102
     22094     22093     22096     22097     22094     22093     22096     22098
     22094     22093     22096     22099     22095     22093     22096     22097
     22095     22093     22096     22098     22095     22093     22096     22099
     22096     22099     22102     22103     22096     22099     22102     22104
     22096     22099     22102     22105     22097     22096     22099     22100
     22097     22096     22099     22101     22097     22096     22099     22102
     22098     22096     22099     22100     22098     22096     22099     22101
     22098     22096     22099     22102     22099     22102     22105     22106
     22099     22102     22105     22107     22099     22102     22105     22108
     22100     22099     22102     22103     22100     22099     22102     22104
     22100     22099     22102     22105     22101     22099     22102     22103
     22101     22099     22102     22104     22101     22099     22102     22105
     22102     22105     22108     22109     22102     22105     22108     22110
     22102     22105     22108     22111     22103     22102     22105     22106
     22103     22102     22105     22107     22103     22102     22105     22108
     22104     22102     22105     22106     22104     22102     22105     22107
     22104     22102     22105     22108     22105     22108     22111     22112
     22105     22108     22111     22113     22105     22108     22111     22114
     22106     22105     22108     22109     22106     22105     22108     22110
     22106     22105     22108     22111     22107     22105     22108     22109
     22107     22105     22108     22110     22107     22105     22108     22111
     22108     22111     22114     22115     22108     22111     22114     22116
     22108     22111     22114     22117     22109     22108     22111     22112
     22109     22108     22111     22113     22109     22108     22111     22114
     22110     22108     22111     22112     22110     22108     22111     22113
     22110     22108     22111     22114     22111     22114     22117     22118
     22111     22114     22117     22119     22111     22114     22117     22120
     22112     22111     22114     22115     22112     22111     22114     22116
     22112     22111     22114     22117     22113     22111     22114     22115
     22113     22111     22114     22116     22113     22111     22114     22117
     22114     22117     22120     22121     22114     22117     22120     22122
     22114     22117     22120     22123     22115     22114     22117     22118
     22115     22114     22117     22119     22115     22114     22117     22120
     22116     22114     22117     22118     22116     22114     22117     22119
     22116     22114     22117     22120     22117     22120     22123     22124
     22117     22120     22123     22125     22117     22120     22123     22126
     22118     22117     22120     22121     22118     22117     22120     22122
     22118     22117     22120     22123     22119     22117     22120     22121
     22119     22117     22120     22122     22119     22117     22120     22123
     22121     22120     22123     22124     22121     22120     22123     22125
     22121     22120     22123     22126     22122     22120     22123     22124
     22122     22120     22123     22125     22122     22120     22123     22126
     22127     22128     22143     22144     22127     22128     22143     22145
     22127     22128     22143     22149     22128     22127     22131     22132
     22128     22127     22131     22133     22128     22127     22131     22134
     22128     22127     22135     22136     22128     22127     22135     22137
     22128     22127     22135     22138     22128     22127     22139     22140
     22128     22127     22139     22141     22128     22127     22139     22142
     22128     22143     22149     22146     22129     22128     22127     22131
     22129     22128     22127     22135     22129     22128     22127     22139
     22129     22128     22143     22144     22129     22128     22143     22145
     22129     22128     22143     22149     22130     22128     22127     22131
     22130     22128     22127     22135     22130     22128     22127     22139
     22130     22128     22143     22144     22130     22128     22143     22145
     22130     22128     22143     22149     22131     22127     22128     22143
     22131     22127     22135     22136     22131     22127     22135     22137
     22131     22127     22135     22138     22131     22127     22139     22140
     22131     22127     22139     22141     22131     22127     22139     22142
     22132     22131     22127     22135     22132     22131     22127     22139
     22133     22131     22127     22135     22133     22131     22127     22139
     22134     22131     22127     22135     22134     22131     22127     22139
     22135     22127     22128     22143     22135     22127     22139     22140
     22135     22127     22139     22141     22135     22127     22139     22142
     22136     22135     22127     22139     22137     22135     22127     22139
     22138     22135     22127     22139     22139     22127     22128     22143
     22143     22149     22146     22147     22143     22149     22146     22148
     22143     22149     22146     22150     22144     22143     22149     22146
     22145     22143     22149     22146     22146     22150     22151     22152
     22146     22150     22151     22153     22146     22150     22151     22154
     22147     22146     22150     22151     22148     22146     22150     22151
     22149     22146     22150     22151     22150     22151     22154     22155
     22150     22151     22154     22156     22150     22151     22154     22162
     22151     22154     22156     22157     22151     22154     22162     22163
     22151     22154     22162     22164     22151     22154     22162     22165
     22152     22151     22154     22155     22152     22151     22154     22156
     22152     22151     22154     22162     22153     22151     22154     22155
     22153     22151     22154     22156     22153     22151     22154     22162
     22154     22156     22157     22158     22154     22156     22157     22159
     22154     22162     22165     22166     22155     22154     22156     22157
     22155     22154     22162     22163     22155     22154     22162     22164
     22155     22154     22162     22165     22156     22154     22162     22163
     22156     22154     22162     22164     22156     22154     22162     22165
     22156     22157     22159     22160     22156     22157     22159     22161
     22156     22157     22159     22171     22157     22156     22154     22162
     22157     22159     22171     22172     22157     22159     22171     22173
     22157     22159     22171     22174     22158     22157     22159     22160
     22158     22157     22159     22161     22158     22157     22159     22171
     22159     22171     22174     22175     22159     22171     22174     22176
     22159     22171     22174     22177     22160     22159     22171     22172
     22160     22159     22171     22173     22160     22159     22171     22174
     22161     22159     22171     22172     22161     22159     22171     22173
     22161     22159     22171     22174     22162     22165     22166     22167
     22162     22165     22166     22168     22163     22162     22165     22166
     22164     22162     22165     22166     22165     22166     22168     22169
     22165     22166     22168     22170     22165     22166     22168     22218
     22166     22168     22218     22219     22166     22168     22218     22220
     22166     22168     22218     22221     22167     22166     22168     22169
     22167     22166     22168     22170     22167     22166     22168     22218
     22168     22218     22221     22222     22168     22218     22221     22223
     22168     22218     22221     22224     22169     22168     22218     22219
     22169     22168     22218     22220     22169     22168     22218     22221
     22170     22168     22218     22219     22170     22168     22218     22220
     22170     22168     22218     22221     22171     22174     22177     22178
     22171     22174     22177     22179     22171     22174     22177     22180
     22172     22171     22174     22175     22172     22171     22174     22176
     22172     22171     22174     22177     22173     22171     22174     22175
     22173     22171     22174     22176     22173     22171     22174     22177
     22174     22177     22180     22181     22174     22177     22180     22182
     22174     22177     22180     22183     22175     22174     22177     22178
     22175     22174     22177     22179     22175     22174     22177     22180
     22176     22174     22177     22178     22176     22174     22177     22179
     22176     22174     22177     22180     22177     22180     22183     22184
     22177     22180     22183     22185     22177     22180     22183     22186
     22178     22177     22180     22181     22178     22177     22180     22182
     22178     22177     22180     22183     22179     22177     22180     22181
     22179     22177     22180     22182     22179     22177     22180     22183
     22180     22183     22186     22187     22180     22183     22186     22188
     22180     22183     22186     22189     22181     22180     22183     22184
     22181     22180     22183     22185     22181     22180     22183     22186
     22182     22180     22183     22184     22182     22180     22183     22185
     22182     22180     22183     22186     22183     22186     22189     22190
     22183     22186     22189     22191     22184     22183     22186     22187
     22184     22183     22186     22188     22184     22183     22186     22189
     22185     22183     22186     22187     22185     22183     22186     22188
     22185     22183     22186     22189     22186     22189     22191     22192
     22186     22189     22191     22193     22187     22186     22189     22190
     22187     22186     22189     22191     22188     22186     22189     22190
     22188     22186     22189     22191     22189     22191     22193     22194
     22189     22191     22193     22195     22189     22191     22193     22196
     22190     22189     22191     22192     22190     22189     22191     22193
     22191     22193     22196     22197     22191     22193     22196     22198
     22191     22193     22196     22199     22192     22191     22193     22194
     22192     22191     22193     22195     22192     22191     22193     22196
     22193     22196     22199     22200     22193     22196     22199     22201
     22193     22196     22199     22202     22194     22193     22196     22197
     22194     22193     22196     22198     22194     22193     22196     22199
     22195     22193     22196     22197     22195     22193     22196     22198
     22195     22193     22196     22199     22196     22199     22202     22203
     22196     22199     22202     22204     22196     22199     22202     22205
     22197     22196     22199     22200     22197     22196     22199     22201
     22197     22196     22199     22202     22198     22196     22199     22200
     22198     22196     22199     22201     22198     22196     22199     22202
     22199     22202     22205     22206     22199     22202     22205     22207
     22199     22202     22205     22208     22200     22199     22202     22203
     22200     22199     22202     22204     22200     22199     22202     22205
     22201     22199     22202     22203     22201     22199     22202     22204
     22201     22199     22202     22205     22202     22205     22208     22209
     22202     22205     22208     22210     22202     22205     22208     22211
     22203     22202     22205     22206     22203     22202     22205     22207
     22203     22202     22205     22208     22204     22202     22205     22206
     22204     22202     22205     22207     22204     22202     22205     22208
     22205     22208     22211     22212     22205     22208     22211     22213
     22205     22208     22211     22214     22206     22205     22208     22209
     22206     22205     22208     22210     22206     22205     22208     22211
     22207     22205     22208     22209     22207     22205     22208     22210
     22207     22205     22208     22211     22208     22211     22214     22215
     22208     22211     22214     22216     22208     22211     22214     22217
     22209     22208     22211     22212     22209     22208     22211     22213
     22209     22208     22211     22214     22210     22208     22211     22212
     22210     22208     22211     22213     22210     22208     22211     22214
     22212     22211     22214     22215     22212     22211     22214     22216
     22212     22211     22214     22217     22213     22211     22214     22215
     22213     22211     22214     22216     22213     22211     22214     22217
     22218     22221     22224     22225     22218     22221     22224     22226
     22218     22221     22224     22227     22219     22218     22221     22222
     22219     22218     22221     22223     22219     22218     22221     22224
     22220     22218     22221     22222     22220     22218     22221     22223
     22220     22218     22221     22224     22221     22224     22227     22228
     22221     22224     22227     22229     22221     22224     22227     22230
     22222     22221     22224     22225     22222     22221     22224     22226
     22222     22221     22224     22227     22223     22221     22224     22225
     22223     22221     22224     22226     22223     22221     22224     22227
     22224     22227     22230     22231     22224     22227     22230     22232
     22224     22227     22230     22233     22225     22224     22227     22228
     22225     22224     22227     22229     22225     22224     22227     22230
     22226     22224     22227     22228     22226     22224     22227     22229
     22226     22224     22227     22230     22227     22230     22233     22234
     22227     22230     22233     22235     22227     22230     22233     22236
     22228     22227     22230     22231     22228     22227     22230     22232
     22228     22227     22230     22233     22229     22227     22230     22231
     22229     22227     22230     22232     22229     22227     22230     22233
     22230     22233     22236     22237     22230     22233     22236     22238
     22230     22233     22236     22239     22231     22230     22233     22234
     22231     22230     22233     22235     22231     22230     22233     22236
     22232     22230     22233     22234     22232     22230     22233     22235
     22232     22230     22233     22236     22233     22236     22239     22240
     22233     22236     22239     22241     22233     22236     22239     22242
     22234     22233     22236     22237     22234     22233     22236     22238
     22234     22233     22236     22239     22235     22233     22236     22237
     22235     22233     22236     22238     22235     22233     22236     22239
     22236     22239     22242     22243     22236     22239     22242     22244
     22236     22239     22242     22245     22237     22236     22239     22240
     22237     22236     22239     22241     22237     22236     22239     22242
     22238     22236     22239     22240     22238     22236     22239     22241
     22238     22236     22239     22242     22239     22242     22245     22246
     22239     22242     22245     22247     22239     22242     22245     22248
     22240     22239     22242     22243     22240     22239     22242     22244
     22240     22239     22242     22245     22241     22239     22242     22243
     22241     22239     22242     22244     22241     22239     22242     22245
     22242     22245     22248     22249     22242     22245     22248     22250
     22242     22245     22248     22251     22243     22242     22245     22246
     22243     22242     22245     22247     22243     22242     22245     22248
     22244     22242     22245     22246     22244     22242     22245     22247
     22244     22242     22245     22248     22245     22248     22251     22252
     22245     22248     22251     22253     22245     22248     22251     22254
     22246     22245     22248     22249     22246     22245     22248     22250
     22246     22245     22248     22251     22247     22245     22248     22249
     22247     22245     22248     22250     22247     22245     22248     22251
     22248     22251     22254     22255     22248     22251     22254     22256
     22248     22251     22254     22257     22249     22248     22251     22252
     22249     22248     22251     22253     22249     22248     22251     22254
     22250     22248     22251     22252     22250     22248     22251     22253
     22250     22248     22251     22254     22251     22254     22257     22258
     22251     22254     22257     22259     22251     22254     22257     22260
     22252     22251     22254     22255     22252     22251     22254     22256
     22252     22251     22254     22257     22253     22251     22254     22255
     22253     22251     22254     22256     22253     22251     22254     22257
     22255     22254     22257     22258     22255     22254     22257     22259
     22255     22254     22257     22260     22256     22254     22257     22258
     22256     22254     22257     22259     22256     22254     22257     22260
     22261     22262     22277     22278     22261     22262     22277     22279
     22261     22262     22277     22283     22262     22261     22265     22266
     22262     22261     22265     22267     22262     22261     22265     22268
     22262     22261     22269     22270     22262     22261     22269     22271
     22262     22261     22269     22272     22262     22261     22273     22274
     22262     22261     22273     22275     22262     22261     22273     22276
     22262     22277     22283     22280     22263     22262     22261     22265
     22263     22262     22261     22269     22263     22262     22261     22273
     22263     22262     22277     22278     22263     22262     22277     22279
     22263     22262     22277     22283     22264     22262     22261     22265
     22264     22262     22261     22269     22264     22262     22261     22273
     22264     22262     22277     22278     22264     22262     22277     22279
     22264     22262     22277     22283     22265     22261     22262     22277
     22265     22261     22269     22270     22265     22261     22269     22271
     22265     22261     22269     22272     22265     22261     22273     22274
     22265     22261     22273     22275     22265     22261     22273     22276
     22266     22265     22261     22269     22266     22265     22261     22273
     22267     22265     22261     22269     22267     22265     22261     22273
     22268     22265     22261     22269     22268     22265     22261     22273
     22269     22261     22262     22277     22269     22261     22273     22274
     22269     22261     22273     22275     22269     22261     22273     22276
     22270     22269     22261     22273     22271     22269     22261     22273
     22272     22269     22261     22273     22273     22261     22262     22277
     22277     22283     22280     22281     22277     22283     22280     22282
     22277     22283     22280     22284     22278     22277     22283     22280
     22279     22277     22283     22280     22280     22284     22285     22286
     22280     22284     22285     22287     22280     22284     22285     22288
     22281     22280     22284     22285     22282     22280     22284     22285
     22283     22280     22284     22285     22284     22285     22288     22289
     22284     22285     22288     22290     22284     22285     22288     22296
     22285     22288     22290     22291     22285     22288     22296     22297
     22285     22288     22296     22298     22285     22288     22296     22299
     22286     22285     22288     22289     22286     22285     22288     22290
     22286     22285     22288     22296     22287     22285     22288     22289
     22287     22285     22288     22290     22287     22285     22288     22296
     22288     22290     22291     22292     22288     22290     22291     22293
     22288     22296     22299     22300     22289     22288     22290     22291
     22289     22288     22296     22297     22289     22288     22296     22298
     22289     22288     22296     22299     22290     22288     22296     22297
     22290     22288     22296     22298     22290     22288     22296     22299
     22290     22291     22293     22294     22290     22291     22293     22295
     22290     22291     22293     22305     22291     22290     22288     22296
     22291     22293     22305     22306     22291     22293     22305     22307
     22291     22293     22305     22308     22292     22291     22293     22294
     22292     22291     22293     22295     22292     22291     22293     22305
     22293     22305     22308     22309     22293     22305     22308     22310
     22293     22305     22308     22311     22294     22293     22305     22306
     22294     22293     22305     22307     22294     22293     22305     22308
     22295     22293     22305     22306     22295     22293     22305     22307
     22295     22293     22305     22308     22296     22299     22300     22301
     22296     22299     22300     22302     22297     22296     22299     22300
     22298     22296     22299     22300     22299     22300     22302     22303
     22299     22300     22302     22304     22299     22300     22302     22352
     22300     22302     22352     22353     22300     22302     22352     22354
     22300     22302     22352     22355     22301     22300     22302     22303
     22301     22300     22302     22304     22301     22300     22302     22352
     22302     22352     22355     22356     22302     22352     22355     22357
     22302     22352     22355     22358     22303     22302     22352     22353
     22303     22302     22352     22354     22303     22302     22352     22355
     22304     22302     22352     22353     22304     22302     22352     22354
     22304     22302     22352     22355     22305     22308     22311     22312
     22305     22308     22311     22313     22305     22308     22311     22314
     22306     22305     22308     22309     22306     22305     22308     22310
     22306     22305     22308     22311     22307     22305     22308     22309
     22307     22305     22308     22310     22307     22305     22308     22311
     22308     22311     22314     22315     22308     22311     22314     22316
     22308     22311     22314     22317     22309     22308     22311     22312
     22309     22308     22311     22313     22309     22308     22311     22314
     22310     22308     22311     22312     22310     22308     22311     22313
     22310     22308     22311     22314     22311     22314     22317     22318
     22311     22314     22317     22319     22311     22314     22317     22320
     22312     22311     22314     22315     22312     22311     22314     22316
     22312     22311     22314     22317     22313     22311     22314     22315
     22313     22311     22314     22316     22313     22311     22314     22317
     22314     22317     22320     22321     22314     22317     22320     22322
     22314     22317     22320     22323     22315     22314     22317     22318
     22315     22314     22317     22319     22315     22314     22317     22320
     22316     22314     22317     22318     22316     22314     22317     22319
     22316     22314     22317     22320     22317     22320     22323     22324
     22317     22320     22323     22325     22318     22317     22320     22321
     22318     22317     22320     22322     22318     22317     22320     22323
     22319     22317     22320     22321     22319     22317     22320     22322
     22319     22317     22320     22323     22320     22323     22325     22326
     22320     22323     22325     22327     22321     22320     22323     22324
     22321     22320     22323     22325     22322     22320     22323     22324
     22322     22320     22323     22325     22323     22325     22327     22328
     22323     22325     22327     22329     22323     22325     22327     22330
     22324     22323     22325     22326     22324     22323     22325     22327
     22325     22327     22330     22331     22325     22327     22330     22332
     22325     22327     22330     22333     22326     22325     22327     22328
     22326     22325     22327     22329     22326     22325     22327     22330
     22327     22330     22333     22334     22327     22330     22333     22335
     22327     22330     22333     22336     22328     22327     22330     22331
     22328     22327     22330     22332     22328     22327     22330     22333
     22329     22327     22330     22331     22329     22327     22330     22332
     22329     22327     22330     22333     22330     22333     22336     22337
     22330     22333     22336     22338     22330     22333     22336     22339
     22331     22330     22333     22334     22331     22330     22333     22335
     22331     22330     22333     22336     22332     22330     22333     22334
     22332     22330     22333     22335     22332     22330     22333     22336
     22333     22336     22339     22340     22333     22336     22339     22341
     22333     22336     22339     22342     22334     22333     22336     22337
     22334     22333     22336     22338     22334     22333     22336     22339
     22335     22333     22336     22337     22335     22333     22336     22338
     22335     22333     22336     22339     22336     22339     22342     22343
     22336     22339     22342     22344     22336     22339     22342     22345
     22337     22336     22339     22340     22337     22336     22339     22341
     22337     22336     22339     22342     22338     22336     22339     22340
     22338     22336     22339     22341     22338     22336     22339     22342
     22339     22342     22345     22346     22339     22342     22345     22347
     22339     22342     22345     22348     22340     22339     22342     22343
     22340     22339     22342     22344     22340     22339     22342     22345
     22341     22339     22342     22343     22341     22339     22342     22344
     22341     22339     22342     22345     22342     22345     22348     22349
     22342     22345     22348     22350     22342     22345     22348     22351
     22343     22342     22345     22346     22343     22342     22345     22347
     22343     22342     22345     22348     22344     22342     22345     22346
     22344     22342     22345     22347     22344     22342     22345     22348
     22346     22345     22348     22349     22346     22345     22348     22350
     22346     22345     22348     22351     22347     22345     22348     22349
     22347     22345     22348     22350     22347     22345     22348     22351
     22352     22355     22358     22359     22352     22355     22358     22360
     22352     22355     22358     22361     22353     22352     22355     22356
     22353     22352     22355     22357     22353     22352     22355     22358
     22354     22352     22355     22356     22354     22352     22355     22357
     22354     22352     22355     22358     22355     22358     22361     22362
     22355     22358     22361     22363     22355     22358     22361     22364
     22356     22355     22358     22359     22356     22355     22358     22360
     22356     22355     22358     22361     22357     22355     22358     22359
     22357     22355     22358     22360     22357     22355     22358     22361
     22358     22361     22364     22365     22358     22361     22364     22366
     22358     22361     22364     22367     22359     22358     22361     22362
     22359     22358     22361     22363     22359     22358     22361     22364
     22360     22358     22361     22362     22360     22358     22361     22363
     22360     22358     22361     22364     22361     22364     22367     22368
     22361     22364     22367     22369     22361     22364     22367     22370
     22362     22361     22364     22365     22362     22361     22364     22366
     22362     22361     22364     22367     22363     22361     22364     22365
     22363     22361     22364     22366     22363     22361     22364     22367
     22364     22367     22370     22371     22364     22367     22370     22372
     22364     22367     22370     22373     22365     22364     22367     22368
     22365     22364     22367     22369     22365     22364     22367     22370
     22366     22364     22367     22368     22366     22364     22367     22369
     22366     22364     22367     22370     22367     22370     22373     22374
     22367     22370     22373     22375     22367     22370     22373     22376
     22368     22367     22370     22371     22368     22367     22370     22372
     22368     22367     22370     22373     22369     22367     22370     22371
     22369     22367     22370     22372     22369     22367     22370     22373
     22370     22373     22376     22377     22370     22373     22376     22378
     22370     22373     22376     22379     22371     22370     22373     22374
     22371     22370     22373     22375     22371     22370     22373     22376
     22372     22370     22373     22374     22372     22370     22373     22375
     22372     22370     22373     22376     22373     22376     22379     22380
     22373     22376     22379     22381     22373     22376     22379     22382
     22374     22373     22376     22377     22374     22373     22376     22378
     22374     22373     22376     22379     22375     22373     22376     22377
     22375     22373     22376     22378     22375     22373     22376     22379
     22376     22379     22382     22383     22376     22379     22382     22384
     22376     22379     22382     22385     22377     22376     22379     22380
     22377     22376     22379     22381     22377     22376     22379     22382
     22378     22376     22379     22380     22378     22376     22379     22381
     22378     22376     22379     22382     22379     22382     22385     22386
     22379     22382     22385     22387     22379     22382     22385     22388
     22380     22379     22382     22383     22380     22379     22382     22384
     22380     22379     22382     22385     22381     22379     22382     22383
     22381     22379     22382     22384     22381     22379     22382     22385
     22382     22385     22388     22389     22382     22385     22388     22390
     22382     22385     22388     22391     22383     22382     22385     22386
     22383     22382     22385     22387     22383     22382     22385     22388
     22384     22382     22385     22386     22384     22382     22385     22387
     22384     22382     22385     22388     22385     22388     22391     22392
     22385     22388     22391     22393     22385     22388     22391     22394
     22386     22385     22388     22389     22386     22385     22388     22390
     22386     22385     22388     22391     22387     22385     22388     22389
     22387     22385     22388     22390     22387     22385     22388     22391
     22389     22388     22391     22392     22389     22388     22391     22393
     22389     22388     22391     22394     22390     22388     22391     22392
     22390     22388     22391     22393     22390     22388     22391     22394
     22395     22399     22401     22402     22395     22399     22401     22403
     22395     22399     22404     22405     22395     22399     22404     22406
     22395     22399     22404     22410     22396     22395     22399     22400
     22396     22395     22399     22401     22396     22395     22399     22404
     22397     22395     22399     22400     22397     22395     22399     22401
     22397     22395     22399     22404     22398     22395     22399     22400
     22398     22395     22399     22401     22398     22395     22399     22404
     22399     22404     22410     22407     22400     22399     22401     22402
     22400     22399     22401     22403     22400     22399     22404     22405
     22400     22399     22404     22406     22400     22399     22404     22410
     22401     22399     22404     22405     22401     22399     22404     22406
     22401     22399     22404     22410     22402     22401     22399     22404
     22403     22401     22399     22404     22404     22410     22407     22408
     22404     22410     22407     22409     22404     22410     22407     22411
     22405     22404     22410     22407     22406     22404     22410     22407
     22407     22411     22412     22413     22407     22411     22412     22414
     22407     22411     22412     22415     22408     22407     22411     22412
     22409     22407     22411     22412     22410     22407     22411     22412
     22411     22412     22415     22416     22411     22412     22415     22417
     22411     22412     22415     22423     22412     22415     22417     22418
     22412     22415     22423     22424     22412     22415     22423     22425
     22412     22415     22423     22426     22413     22412     22415     22416
     22413     22412     22415     22417     22413     22412     22415     22423
     22414     22412     22415     22416     22414     22412     22415     22417
     22414     22412     22415     22423     22415     22417     22418     22419
     22415     22417     22418     22420     22415     22423     22426     22427
     22416     22415     22417     22418     22416     22415     22423     22424
     22416     22415     22423     22425     22416     22415     22423     22426
     22417     22415     22423     22424     22417     22415     22423     22425
     22417     22415     22423     22426     22417     22418     22420     22421
     22417     22418     22420     22422     22417     22418     22420     22432
     22418     22417     22415     22423     22418     22420     22432     22433
     22418     22420     22432     22434     22418     22420     22432     22435
     22419     22418     22420     22421     22419     22418     22420     22422
     22419     22418     22420     22432     22420     22432     22435     22436
     22420     22432     22435     22437     22420     22432     22435     22438
     22421     22420     22432     22433     22421     22420     22432     22434
     22421     22420     22432     22435     22422     22420     22432     22433
     22422     22420     22432     22434     22422     22420     22432     22435
     22423     22426     22427     22428     22423     22426     22427     22429
     22424     22423     22426     22427     22425     22423     22426     22427
     22426     22427     22429     22430     22426     22427     22429     22431
     22426     22427     22429     22479     22427     22429     22479     22480
     22427     22429     22479     22481     22427     22429     22479     22482
     22428     22427     22429     22430     22428     22427     22429     22431
     22428     22427     22429     22479     22429     22479     22482     22483
     22429     22479     22482     22484     22429     22479     22482     22485
     22430     22429     22479     22480     22430     22429     22479     22481
     22430     22429     22479     22482     22431     22429     22479     22480
     22431     22429     22479     22481     22431     22429     22479     22482
     22432     22435     22438     22439     22432     22435     22438     22440
     22432     22435     22438     22441     22433     22432     22435     22436
     22433     22432     22435     22437     22433     22432     22435     22438
     22434     22432     22435     22436     22434     22432     22435     22437
     22434     22432     22435     22438     22435     22438     22441     22442
     22435     22438     22441     22443     22435     22438     22441     22444
     22436     22435     22438     22439     22436     22435     22438     22440
     22436     22435     22438     22441     22437     22435     22438     22439
     22437     22435     22438     22440     22437     22435     22438     22441
     22438     22441     22444     22445     22438     22441     22444     22446
     22438     22441     22444     22447     22439     22438     22441     22442
     22439     22438     22441     22443     22439     22438     22441     22444
     22440     22438     22441     22442     22440     22438     22441     22443
     22440     22438     22441     22444     22441     22444     22447     22448
     22441     22444     22447     22449     22441     22444     22447     22450
     22442     22441     22444     22445     22442     22441     22444     22446
     22442     22441     22444     22447     22443     22441     22444     22445
     22443     22441     22444     22446     22443     22441     22444     22447
     22444     22447     22450     22451     22444     22447     22450     22452
     22445     22444     22447     22448     22445     22444     22447     22449
     22445     22444     22447     22450     22446     22444     22447     22448
     22446     22444     22447     22449     22446     22444     22447     22450
     22447     22450     22452     22453     22447     22450     22452     22454
     22448     22447     22450     22451     22448     22447     22450     22452
     22449     22447     22450     22451     22449     22447     22450     22452
     22450     22452     22454     22455     22450     22452     22454     22456
     22450     22452     22454     22457     22451     22450     22452     22453
     22451     22450     22452     22454     22452     22454     22457     22458
     22452     22454     22457     22459     22452     22454     22457     22460
     22453     22452     22454     22455     22453     22452     22454     22456
     22453     22452     22454     22457     22454     22457     22460     22461
     22454     22457     22460     22462     22454     22457     22460     22463
     22455     22454     22457     22458     22455     22454     22457     22459
     22455     22454     22457     22460     22456     22454     22457     22458
     22456     22454     22457     22459     22456     22454     22457     22460
     22457     22460     22463     22464     22457     22460     22463     22465
     22457     22460     22463     22466     22458     22457     22460     22461
     22458     22457     22460     22462     22458     22457     22460     22463
     22459     22457     22460     22461     22459     22457     22460     22462
     22459     22457     22460     22463     22460     22463     22466     22467
     22460     22463     22466     22468     22460     22463     22466     22469
     22461     22460     22463     22464     22461     22460     22463     22465
     22461     22460     22463     22466     22462     22460     22463     22464
     22462     22460     22463     22465     22462     22460     22463     22466
     22463     22466     22469     22470     22463     22466     22469     22471
     22463     22466     22469     22472     22464     22463     22466     22467
     22464     22463     22466     22468     22464     22463     22466     22469
     22465     22463     22466     22467     22465     22463     22466     22468
     22465     22463     22466     22469     22466     22469     22472     22473
     22466     22469     22472     22474     22466     22469     22472     22475
     22467     22466     22469     22470     22467     22466     22469     22471
     22467     22466     22469     22472     22468     22466     22469     22470
     22468     22466     22469     22471     22468     22466     22469     22472
     22469     22472     22475     22476     22469     22472     22475     22477
     22469     22472     22475     22478     22470     22469     22472     22473
     22470     22469     22472     22474     22470     22469     22472     22475
     22471     22469     22472     22473     22471     22469     22472     22474
     22471     22469     22472     22475     22473     22472     22475     22476
     22473     22472     22475     22477     22473     22472     22475     22478
     22474     22472     22475     22476     22474     22472     22475     22477
     22474     22472     22475     22478     22479     22482     22485     22486
     22479     22482     22485     22487     22479     22482     22485     22488
     22480     22479     22482     22483     22480     22479     22482     22484
     22480     22479     22482     22485     22481     22479     22482     22483
     22481     22479     22482     22484     22481     22479     22482     22485
     22482     22485     22488     22489     22482     22485     22488     22490
     22482     22485     22488     22491     22483     22482     22485     22486
     22483     22482     22485     22487     22483     22482     22485     22488
     22484     22482     22485     22486     22484     22482     22485     22487
     22484     22482     22485     22488     22485     22488     22491     22492
     22485     22488     22491     22493     22485     22488     22491     22494
     22486     22485     22488     22489     22486     22485     22488     22490
     22486     22485     22488     22491     22487     22485     22488     22489
     22487     22485     22488     22490     22487     22485     22488     22491
     22488     22491     22494     22495     22488     22491     22494     22496
     22488     22491     22494     22497     22489     22488     22491     22492
     22489     22488     22491     22493     22489     22488     22491     22494
     22490     22488     22491     22492     22490     22488     22491     22493
     22490     22488     22491     22494     22491     22494     22497     22498
     22491     22494     22497     22499     22491     22494     22497     22500
     22492     22491     22494     22495     22492     22491     22494     22496
     22492     22491     22494     22497     22493     22491     22494     22495
     22493     22491     22494     22496     22493     22491     22494     22497
     22494     22497     22500     22501     22494     22497     22500     22502
     22494     22497     22500     22503     22495     22494     22497     22498
     22495     22494     22497     22499     22495     22494     22497     22500
     22496     22494     22497     22498     22496     22494     22497     22499
     22496     22494     22497     22500     22497     22500     22503     22504
     22497     22500     22503     22505     22497     22500     22503     22506
     22498     22497     22500     22501     22498     22497     22500     22502
     22498     22497     22500     22503     22499     22497     22500     22501
     22499     22497     22500     22502     22499     22497     22500     22503
     22500     22503     22506     22507     22500     22503     22506     22508
     22500     22503     22506     22509     22501     22500     22503     22504
     22501     22500     22503     22505     22501     22500     22503     22506
     22502     22500     22503     22504     22502     22500     22503     22505
     22502     22500     22503     22506     22503     22506     22509     22510
     22503     22506     22509     22511     22503     22506     22509     22512
     22504     22503     22506     22507     22504     22503     22506     22508
     22504     22503     22506     22509     22505     22503     22506     22507
     22505     22503     22506     22508     22505     22503     22506     22509
     22506     22509     22512     22513     22506     22509     22512     22514
     22506     22509     22512     22515     22507     22506     22509     22510
     22507     22506     22509     22511     22507     22506     22509     22512
     22508     22506     22509     22510     22508     22506     22509     22511
     22508     22506     22509     22512     22509     22512     22515     22516
     22509     22512     22515     22517     22509     22512     22515     22518
     22510     22509     22512     22513     22510     22509     22512     22514
     22510     22509     22512     22515     22511     22509     22512     22513
     22511     22509     22512     22514     22511     22509     22512     22515
     22512     22515     22518     22519     22512     22515     22518     22520
     22512     22515     22518     22521     22513     22512     22515     22516
     22513     22512     22515     22517     22513     22512     22515     22518
     22514     22512     22515     22516     22514     22512     22515     22517
     22514     22512     22515     22518     22516     22515     22518     22519
     22516     22515     22518     22520     22516     22515     22518     22521
     22517     22515     22518     22519     22517     22515     22518     22520
     22517     22515     22518     22521     22522     22523     22538     22539
     22522     22523     22538     22540     22522     22523     22538     22544
     22523     22522     22526     22527     22523     22522     22526     22528
     22523     22522     22526     22529     22523     22522     22530     22531
     22523     22522     22530     22532     22523     22522     22530     22533
     22523     22522     22534     22535     22523     22522     22534     22536
     22523     22522     22534     22537     22523     22538     22544     22541
     22524     22523     22522     22526     22524     22523     22522     22530
     22524     22523     22522     22534     22524     22523     22538     22539
     22524     22523     22538     22540     22524     22523     22538     22544
     22525     22523     22522     22526     22525     22523     22522     22530
     22525     22523     22522     22534     22525     22523     22538     22539
     22525     22523     22538     22540     22525     22523     22538     22544
     22526     22522     22523     22538     22526     22522     22530     22531
     22526     22522     22530     22532     22526     22522     22530     22533
     22526     22522     22534     22535     22526     22522     22534     22536
     22526     22522     22534     22537     22527     22526     22522     22530
     22527     22526     22522     22534     22528     22526     22522     22530
     22528     22526     22522     22534     22529     22526     22522     22530
     22529     22526     22522     22534     22530     22522     22523     22538
     22530     22522     22534     22535     22530     22522     22534     22536
     22530     22522     22534     22537     22531     22530     22522     22534
     22532     22530     22522     22534     22533     22530     22522     22534
     22534     22522     22523     22538     22538     22544     22541     22542
     22538     22544     22541     22543     22538     22544     22541     22545
     22539     22538     22544     22541     22540     22538     22544     22541
     22541     22545     22546     22547     22541     22545     22546     22548
     22541     22545     22546     22549     22542     22541     22545     22546
     22543     22541     22545     22546     22544     22541     22545     22546
     22545     22546     22549     22550     22545     22546     22549     22551
     22545     22546     22549     22557     22546     22549     22551     22552
     22546     22549     22557     22558     22546     22549     22557     22559
     22546     22549     22557     22560     22547     22546     22549     22550
     22547     22546     22549     22551     22547     22546     22549     22557
     22548     22546     22549     22550     22548     22546     22549     22551
     22548     22546     22549     22557     22549     22551     22552     22553
     22549     22551     22552     22554     22549     22557     22560     22561
     22550     22549     22551     22552     22550     22549     22557     22558
     22550     22549     22557     22559     22550     22549     22557     22560
     22551     22549     22557     22558     22551     22549     22557     22559
     22551     22549     22557     22560     22551     22552     22554     22555
     22551     22552     22554     22556     22551     22552     22554     22566
     22552     22551     22549     22557     22552     22554     22566     22567
     22552     22554     22566     22568     22552     22554     22566     22569
     22553     22552     22554     22555     22553     22552     22554     22556
     22553     22552     22554     22566     22554     22566     22569     22570
     22554     22566     22569     22571     22554     22566     22569     22572
     22555     22554     22566     22567     22555     22554     22566     22568
     22555     22554     22566     22569     22556     22554     22566     22567
     22556     22554     22566     22568     22556     22554     22566     22569
     22557     22560     22561     22562     22557     22560     22561     22563
     22558     22557     22560     22561     22559     22557     22560     22561
     22560     22561     22563     22564     22560     22561     22563     22565
     22560     22561     22563     22613     22561     22563     22613     22614
     22561     22563     22613     22615     22561     22563     22613     22616
     22562     22561     22563     22564     22562     22561     22563     22565
     22562     22561     22563     22613     22563     22613     22616     22617
     22563     22613     22616     22618     22563     22613     22616     22619
     22564     22563     22613     22614     22564     22563     22613     22615
     22564     22563     22613     22616     22565     22563     22613     22614
     22565     22563     22613     22615     22565     22563     22613     22616
     22566     22569     22572     22573     22566     22569     22572     22574
     22566     22569     22572     22575     22567     22566     22569     22570
     22567     22566     22569     22571     22567     22566     22569     22572
     22568     22566     22569     22570     22568     22566     22569     22571
     22568     22566     22569     22572     22569     22572     22575     22576
     22569     22572     22575     22577     22569     22572     22575     22578
     22570     22569     22572     22573     22570     22569     22572     22574
     22570     22569     22572     22575     22571     22569     22572     22573
     22571     22569     22572     22574     22571     22569     22572     22575
     22572     22575     22578     22579     22572     22575     22578     22580
     22572     22575     22578     22581     22573     22572     22575     22576
     22573     22572     22575     22577     22573     22572     22575     22578
     22574     22572     22575     22576     22574     22572     22575     22577
     22574     22572     22575     22578     22575     22578     22581     22582
     22575     22578     22581     22583     22575     22578     22581     22584
     22576     22575     22578     22579     22576     22575     22578     22580
     22576     22575     22578     22581     22577     22575     22578     22579
     22577     22575     22578     22580     22577     22575     22578     22581
     22578     22581     22584     22585     22578     22581     22584     22586
     22579     22578     22581     22582     22579     22578     22581     22583
     22579     22578     22581     22584     22580     22578     22581     22582
     22580     22578     22581     22583     22580     22578     22581     22584
     22581     22584     22586     22587     22581     22584     22586     22588
     22582     22581     22584     22585     22582     22581     22584     22586
     22583     22581     22584     22585     22583     22581     22584     22586
     22584     22586     22588     22589     22584     22586     22588     22590
     22584     22586     22588     22591     22585     22584     22586     22587
     22585     22584     22586     22588     22586     22588     22591     22592
     22586     22588     22591     22593     22586     22588     22591     22594
     22587     22586     22588     22589     22587     22586     22588     22590
     22587     22586     22588     22591     22588     22591     22594     22595
     22588     22591     22594     22596     22588     22591     22594     22597
     22589     22588     22591     22592     22589     22588     22591     22593
     22589     22588     22591     22594     22590     22588     22591     22592
     22590     22588     22591     22593     22590     22588     22591     22594
     22591     22594     22597     22598     22591     22594     22597     22599
     22591     22594     22597     22600     22592     22591     22594     22595
     22592     22591     22594     22596     22592     22591     22594     22597
     22593     22591     22594     22595     22593     22591     22594     22596
     22593     22591     22594     22597     22594     22597     22600     22601
     22594     22597     22600     22602     22594     22597     22600     22603
     22595     22594     22597     22598     22595     22594     22597     22599
     22595     22594     22597     22600     22596     22594     22597     22598
     22596     22594     22597     22599     22596     22594     22597     22600
     22597     22600     22603     22604     22597     22600     22603     22605
     22597     22600     22603     22606     22598     22597     22600     22601
     22598     22597     22600     22602     22598     22597     22600     22603
     22599     22597     22600     22601     22599     22597     22600     22602
     22599     22597     22600     22603     22600     22603     22606     22607
     22600     22603     22606     22608     22600     22603     22606     22609
     22601     22600     22603     22604     22601     22600     22603     22605
     22601     22600     22603     22606     22602     22600     22603     22604
     22602     22600     22603     22605     22602     22600     22603     22606
     22603     22606     22609     22610     22603     22606     22609     22611
     22603     22606     22609     22612     22604     22603     22606     22607
     22604     22603     22606     22608     22604     22603     22606     22609
     22605     22603     22606     22607     22605     22603     22606     22608
     22605     22603     22606     22609     22607     22606     22609     22610
     22607     22606     22609     22611     22607     22606     22609     22612
     22608     22606     22609     22610     22608     22606     22609     22611
     22608     22606     22609     22612     22613     22616     22619     22620
     22613     22616     22619     22621     22613     22616     22619     22622
     22614     22613     22616     22617     22614     22613     22616     22618
     22614     22613     22616     22619     22615     22613     22616     22617
     22615     22613     22616     22618     22615     22613     22616     22619
     22616     22619     22622     22623     22616     22619     22622     22624
     22616     22619     22622     22625     22617     22616     22619     22620
     22617     22616     22619     22621     22617     22616     22619     22622
     22618     22616     22619     22620     22618     22616     22619     22621
     22618     22616     22619     22622     22619     22622     22625     22626
     22619     22622     22625     22627     22619     22622     22625     22628
     22620     22619     22622     22623     22620     22619     22622     22624
     22620     22619     22622     22625     22621     22619     22622     22623
     22621     22619     22622     22624     22621     22619     22622     22625
     22622     22625     22628     22629     22622     22625     22628     22630
     22622     22625     22628     22631     22623     22622     22625     22626
     22623     22622     22625     22627     22623     22622     22625     22628
     22624     22622     22625     22626     22624     22622     22625     22627
     22624     22622     22625     22628     22625     22628     22631     22632
     22625     22628     22631     22633     22625     22628     22631     22634
     22626     22625     22628     22629     22626     22625     22628     22630
     22626     22625     22628     22631     22627     22625     22628     22629
     22627     22625     22628     22630     22627     22625     22628     22631
     22628     22631     22634     22635     22628     22631     22634     22636
     22628     22631     22634     22637     22629     22628     22631     22632
     22629     22628     22631     22633     22629     22628     22631     22634
     22630     22628     22631     22632     22630     22628     22631     22633
     22630     22628     22631     22634     22631     22634     22637     22638
     22631     22634     22637     22639     22631     22634     22637     22640
     22632     22631     22634     22635     22632     22631     22634     22636
     22632     22631     22634     22637     22633     22631     22634     22635
     22633     22631     22634     22636     22633     22631     22634     22637
     22634     22637     22640     22641     22634     22637     22640     22642
     22634     22637     22640     22643     22635     22634     22637     22638
     22635     22634     22637     22639     22635     22634     22637     22640
     22636     22634     22637     22638     22636     22634     22637     22639
     22636     22634     22637     22640     22637     22640     22643     22644
     22637     22640     22643     22645     22637     22640     22643     22646
     22638     22637     22640     22641     22638     22637     22640     22642
     22638     22637     22640     22643     22639     22637     22640     22641
     22639     22637     22640     22642     22639     22637     22640     22643
     22640     22643     22646     22647     22640     22643     22646     22648
     22640     22643     22646     22649     22641     22640     22643     22644
     22641     22640     22643     22645     22641     22640     22643     22646
     22642     22640     22643     22644     22642     22640     22643     22645
     22642     22640     22643     22646     22643     22646     22649     22650
     22643     22646     22649     22651     22643     22646     22649     22652
     22644     22643     22646     22647     22644     22643     22646     22648
     22644     22643     22646     22649     22645     22643     22646     22647
     22645     22643     22646     22648     22645     22643     22646     22649
     22646     22649     22652     22653     22646     22649     22652     22654
     22646     22649     22652     22655     22647     22646     22649     22650
     22647     22646     22649     22651     22647     22646     22649     22652
     22648     22646     22649     22650     22648     22646     22649     22651
     22648     22646     22649     22652     22650     22649     22652     22653
     22650     22649     22652     22654     22650     22649     22652     22655
     22651     22649     22652     22653     22651     22649     22652     22654
     22651     22649     22652     22655     22656     22657     22672     22673
     22656     22657     22672     22674     22656     22657     22672     22678
     22657     22656     22660     22661     22657     22656     22660     22662
     22657     22656     22660     22663     22657     22656     22664     22665
     22657     22656     22664     22666     22657     22656     22664     22667
     22657     22656     22668     22669     22657     22656     22668     22670
     22657     22656     22668     22671     22657     22672     22678     22675
     22658     22657     22656     22660     22658     22657     22656     22664
     22658     22657     22656     22668     22658     22657     22672     22673
     22658     22657     22672     22674     22658     22657     22672     22678
     22659     22657     22656     22660     22659     22657     22656     22664
     22659     22657     22656     22668     22659     22657     22672     22673
     22659     22657     22672     22674     22659     22657     22672     22678
     22660     22656     22657     22672     22660     22656     22664     22665
     22660     22656     22664     22666     22660     22656     22664     22667
     22660     22656     22668     22669     22660     22656     22668     22670
     22660     22656     22668     22671     22661     22660     22656     22664
     22661     22660     22656     22668     22662     22660     22656     22664
     22662     22660     22656     22668     22663     22660     22656     22664
     22663     22660     22656     22668     22664     22656     22657     22672
     22664     22656     22668     22669     22664     22656     22668     22670
     22664     22656     22668     22671     22665     22664     22656     22668
     22666     22664     22656     22668     22667     22664     22656     22668
     22668     22656     22657     22672     22672     22678     22675     22676
     22672     22678     22675     22677     22672     22678     22675     22679
     22673     22672     22678     22675     22674     22672     22678     22675
     22675     22679     22680     22681     22675     22679     22680     22682
     22675     22679     22680     22683     22676     22675     22679     22680
     22677     22675     22679     22680     22678     22675     22679     22680
     22679     22680     22683     22684     22679     22680     22683     22685
     22679     22680     22683     22691     22680     22683     22685     22686
     22680     22683     22691     22692     22680     22683     22691     22693
     22680     22683     22691     22694     22681     22680     22683     22684
     22681     22680     22683     22685     22681     22680     22683     22691
     22682     22680     22683     22684     22682     22680     22683     22685
     22682     22680     22683     22691     22683     22685     22686     22687
     22683     22685     22686     22688     22683     22691     22694     22695
     22684     22683     22685     22686     22684     22683     22691     22692
     22684     22683     22691     22693     22684     22683     22691     22694
     22685     22683     22691     22692     22685     22683     22691     22693
     22685     22683     22691     22694     22685     22686     22688     22689
     22685     22686     22688     22690     22685     22686     22688     22700
     22686     22685     22683     22691     22686     22688     22700     22701
     22686     22688     22700     22702     22686     22688     22700     22703
     22687     22686     22688     22689     22687     22686     22688     22690
     22687     22686     22688     22700     22688     22700     22703     22704
     22688     22700     22703     22705     22688     22700     22703     22706
     22689     22688     22700     22701     22689     22688     22700     22702
     22689     22688     22700     22703     22690     22688     22700     22701
     22690     22688     22700     22702     22690     22688     22700     22703
     22691     22694     22695     22696     22691     22694     22695     22697
     22692     22691     22694     22695     22693     22691     22694     22695
     22694     22695     22697     22698     22694     22695     22697     22699
     22694     22695     22697     22747     22695     22697     22747     22748
     22695     22697     22747     22749     22695     22697     22747     22750
     22696     22695     22697     22698     22696     22695     22697     22699
     22696     22695     22697     22747     22697     22747     22750     22751
     22697     22747     22750     22752     22697     22747     22750     22753
     22698     22697     22747     22748     22698     22697     22747     22749
     22698     22697     22747     22750     22699     22697     22747     22748
     22699     22697     22747     22749     22699     22697     22747     22750
     22700     22703     22706     22707     22700     22703     22706     22708
     22700     22703     22706     22709     22701     22700     22703     22704
     22701     22700     22703     22705     22701     22700     22703     22706
     22702     22700     22703     22704     22702     22700     22703     22705
     22702     22700     22703     22706     22703     22706     22709     22710
     22703     22706     22709     22711     22703     22706     22709     22712
     22704     22703     22706     22707     22704     22703     22706     22708
     22704     22703     22706     22709     22705     22703     22706     22707
     22705     22703     22706     22708     22705     22703     22706     22709
     22706     22709     22712     22713     22706     22709     22712     22714
     22706     22709     22712     22715     22707     22706     22709     22710
     22707     22706     22709     22711     22707     22706     22709     22712
     22708     22706     22709     22710     22708     22706     22709     22711
     22708     22706     22709     22712     22709     22712     22715     22716
     22709     22712     22715     22717     22709     22712     22715     22718
     22710     22709     22712     22713     22710     22709     22712     22714
     22710     22709     22712     22715     22711     22709     22712     22713
     22711     22709     22712     22714     22711     22709     22712     22715
     22712     22715     22718     22719     22712     22715     22718     22720
     22713     22712     22715     22716     22713     22712     22715     22717
     22713     22712     22715     22718     22714     22712     22715     22716
     22714     22712     22715     22717     22714     22712     22715     22718
     22715     22718     22720     22721     22715     22718     22720     22722
     22716     22715     22718     22719     22716     22715     22718     22720
     22717     22715     22718     22719     22717     22715     22718     22720
     22718     22720     22722     22723     22718     22720     22722     22724
     22718     22720     22722     22725     22719     22718     22720     22721
     22719     22718     22720     22722     22720     22722     22725     22726
     22720     22722     22725     22727     22720     22722     22725     22728
     22721     22720     22722     22723     22721     22720     22722     22724
     22721     22720     22722     22725     22722     22725     22728     22729
     22722     22725     22728     22730     22722     22725     22728     22731
     22723     22722     22725     22726     22723     22722     22725     22727
     22723     22722     22725     22728     22724     22722     22725     22726
     22724     22722     22725     22727     22724     22722     22725     22728
     22725     22728     22731     22732     22725     22728     22731     22733
     22725     22728     22731     22734     22726     22725     22728     22729
     22726     22725     22728     22730     22726     22725     22728     22731
     22727     22725     22728     22729     22727     22725     22728     22730
     22727     22725     22728     22731     22728     22731     22734     22735
     22728     22731     22734     22736     22728     22731     22734     22737
     22729     22728     22731     22732     22729     22728     22731     22733
     22729     22728     22731     22734     22730     22728     22731     22732
     22730     22728     22731     22733     22730     22728     22731     22734
     22731     22734     22737     22738     22731     22734     22737     22739
     22731     22734     22737     22740     22732     22731     22734     22735
     22732     22731     22734     22736     22732     22731     22734     22737
     22733     22731     22734     22735     22733     22731     22734     22736
     22733     22731     22734     22737     22734     22737     22740     22741
     22734     22737     22740     22742     22734     22737     22740     22743
     22735     22734     22737     22738     22735     22734     22737     22739
     22735     22734     22737     22740     22736     22734     22737     22738
     22736     22734     22737     22739     22736     22734     22737     22740
     22737     22740     22743     22744     22737     22740     22743     22745
     22737     22740     22743     22746     22738     22737     22740     22741
     22738     22737     22740     22742     22738     22737     22740     22743
     22739     22737     22740     22741     22739     22737     22740     22742
     22739     22737     22740     22743     22741     22740     22743     22744
     22741     22740     22743     22745     22741     22740     22743     22746
     22742     22740     22743     22744     22742     22740     22743     22745
     22742     22740     22743     22746     22747     22750     22753     22754
     22747     22750     22753     22755     22747     22750     22753     22756
     22748     22747     22750     22751     22748     22747     22750     22752
     22748     22747     22750     22753     22749     22747     22750     22751
     22749     22747     22750     22752     22749     22747     22750     22753
     22750     22753     22756     22757     22750     22753     22756     22758
     22750     22753     22756     22759     22751     22750     22753     22754
     22751     22750     22753     22755     22751     22750     22753     22756
     22752     22750     22753     22754     22752     22750     22753     22755
     22752     22750     22753     22756     22753     22756     22759     22760
     22753     22756     22759     22761     22753     22756     22759     22762
     22754     22753     22756     22757     22754     22753     22756     22758
     22754     22753     22756     22759     22755     22753     22756     22757
     22755     22753     22756     22758     22755     22753     22756     22759
     22756     22759     22762     22763     22756     22759     22762     22764
     22756     22759     22762     22765     22757     22756     22759     22760
     22757     22756     22759     22761     22757     22756     22759     22762
     22758     22756     22759     22760     22758     22756     22759     22761
     22758     22756     22759     22762     22759     22762     22765     22766
     22759     22762     22765     22767     22759     22762     22765     22768
     22760     22759     22762     22763     22760     22759     22762     22764
     22760     22759     22762     22765     22761     22759     22762     22763
     22761     22759     22762     22764     22761     22759     22762     22765
     22762     22765     22768     22769     22762     22765     22768     22770
     22762     22765     22768     22771     22763     22762     22765     22766
     22763     22762     22765     22767     22763     22762     22765     22768
     22764     22762     22765     22766     22764     22762     22765     22767
     22764     22762     22765     22768     22765     22768     22771     22772
     22765     22768     22771     22773     22765     22768     22771     22774
     22766     22765     22768     22769     22766     22765     22768     22770
     22766     22765     22768     22771     22767     22765     22768     22769
     22767     22765     22768     22770     22767     22765     22768     22771
     22768     22771     22774     22775     22768     22771     22774     22776
     22768     22771     22774     22777     22769     22768     22771     22772
     22769     22768     22771     22773     22769     22768     22771     22774
     22770     22768     22771     22772     22770     22768     22771     22773
     22770     22768     22771     22774     22771     22774     22777     22778
     22771     22774     22777     22779     22771     22774     22777     22780
     22772     22771     22774     22775     22772     22771     22774     22776
     22772     22771     22774     22777     22773     22771     22774     22775
     22773     22771     22774     22776     22773     22771     22774     22777
     22774     22777     22780     22781     22774     22777     22780     22782
     22774     22777     22780     22783     22775     22774     22777     22778
     22775     22774     22777     22779     22775     22774     22777     22780
     22776     22774     22777     22778     22776     22774     22777     22779
     22776     22774     22777     22780     22777     22780     22783     22784
     22777     22780     22783     22785     22777     22780     22783     22786
     22778     22777     22780     22781     22778     22777     22780     22782
     22778     22777     22780     22783     22779     22777     22780     22781
     22779     22777     22780     22782     22779     22777     22780     22783
     22780     22783     22786     22787     22780     22783     22786     22788
     22780     22783     22786     22789     22781     22780     22783     22784
     22781     22780     22783     22785     22781     22780     22783     22786
     22782     22780     22783     22784     22782     22780     22783     22785
     22782     22780     22783     22786     22784     22783     22786     22787
     22784     22783     22786     22788     22784     22783     22786     22789
     22785     22783     22786     22787     22785     22783     22786     22788
     22785     22783     22786     22789     22790     22791     22806     22807
     22790     22791     22806     22808     22790     22791     22806     22812
     22791     22790     22794     22795     22791     22790     22794     22796
     22791     22790     22794     22797     22791     22790     22798     22799
     22791     22790     22798     22800     22791     22790     22798     22801
     22791     22790     22802     22803     22791     22790     22802     22804
     22791     22790     22802     22805     22791     22806     22812     22809
     22792     22791     22790     22794     22792     22791     22790     22798
     22792     22791     22790     22802     22792     22791     22806     22807
     22792     22791     22806     22808     22792     22791     22806     22812
     22793     22791     22790     22794     22793     22791     22790     22798
     22793     22791     22790     22802     22793     22791     22806     22807
     22793     22791     22806     22808     22793     22791     22806     22812
     22794     22790     22791     22806     22794     22790     22798     22799
     22794     22790     22798     22800     22794     22790     22798     22801
     22794     22790     22802     22803     22794     22790     22802     22804
     22794     22790     22802     22805     22795     22794     22790     22798
     22795     22794     22790     22802     22796     22794     22790     22798
     22796     22794     22790     22802     22797     22794     22790     22798
     22797     22794     22790     22802     22798     22790     22791     22806
     22798     22790     22802     22803     22798     22790     22802     22804
     22798     22790     22802     22805     22799     22798     22790     22802
     22800     22798     22790     22802     22801     22798     22790     22802
     22802     22790     22791     22806     22806     22812     22809     22810
     22806     22812     22809     22811     22806     22812     22809     22813
     22807     22806     22812     22809     22808     22806     22812     22809
     22809     22813     22814     22815     22809     22813     22814     22816
     22809     22813     22814     22817     22810     22809     22813     22814
     22811     22809     22813     22814     22812     22809     22813     22814
     22813     22814     22817     22818     22813     22814     22817     22819
     22813     22814     22817     22825     22814     22817     22819     22820
     22814     22817     22825     22826     22814     22817     22825     22827
     22814     22817     22825     22828     22815     22814     22817     22818
     22815     22814     22817     22819     22815     22814     22817     22825
     22816     22814     22817     22818     22816     22814     22817     22819
     22816     22814     22817     22825     22817     22819     22820     22821
     22817     22819     22820     22822     22817     22825     22828     22829
     22818     22817     22819     22820     22818     22817     22825     22826
     22818     22817     22825     22827     22818     22817     22825     22828
     22819     22817     22825     22826     22819     22817     22825     22827
     22819     22817     22825     22828     22819     22820     22822     22823
     22819     22820     22822     22824     22819     22820     22822     22834
     22820     22819     22817     22825     22820     22822     22834     22835
     22820     22822     22834     22836     22820     22822     22834     22837
     22821     22820     22822     22823     22821     22820     22822     22824
     22821     22820     22822     22834     22822     22834     22837     22838
     22822     22834     22837     22839     22822     22834     22837     22840
     22823     22822     22834     22835     22823     22822     22834     22836
     22823     22822     22834     22837     22824     22822     22834     22835
     22824     22822     22834     22836     22824     22822     22834     22837
     22825     22828     22829     22830     22825     22828     22829     22831
     22826     22825     22828     22829     22827     22825     22828     22829
     22828     22829     22831     22832     22828     22829     22831     22833
     22828     22829     22831     22881     22829     22831     22881     22882
     22829     22831     22881     22883     22829     22831     22881     22884
     22830     22829     22831     22832     22830     22829     22831     22833
     22830     22829     22831     22881     22831     22881     22884     22885
     22831     22881     22884     22886     22831     22881     22884     22887
     22832     22831     22881     22882     22832     22831     22881     22883
     22832     22831     22881     22884     22833     22831     22881     22882
     22833     22831     22881     22883     22833     22831     22881     22884
     22834     22837     22840     22841     22834     22837     22840     22842
     22834     22837     22840     22843     22835     22834     22837     22838
     22835     22834     22837     22839     22835     22834     22837     22840
     22836     22834     22837     22838     22836     22834     22837     22839
     22836     22834     22837     22840     22837     22840     22843     22844
     22837     22840     22843     22845     22837     22840     22843     22846
     22838     22837     22840     22841     22838     22837     22840     22842
     22838     22837     22840     22843     22839     22837     22840     22841
     22839     22837     22840     22842     22839     22837     22840     22843
     22840     22843     22846     22847     22840     22843     22846     22848
     22840     22843     22846     22849     22841     22840     22843     22844
     22841     22840     22843     22845     22841     22840     22843     22846
     22842     22840     22843     22844     22842     22840     22843     22845
     22842     22840     22843     22846     22843     22846     22849     22850
     22843     22846     22849     22851     22843     22846     22849     22852
     22844     22843     22846     22847     22844     22843     22846     22848
     22844     22843     22846     22849     22845     22843     22846     22847
     22845     22843     22846     22848     22845     22843     22846     22849
     22846     22849     22852     22853     22846     22849     22852     22854
     22847     22846     22849     22850     22847     22846     22849     22851
     22847     22846     22849     22852     22848     22846     22849     22850
     22848     22846     22849     22851     22848     22846     22849     22852
     22849     22852     22854     22855     22849     22852     22854     22856
     22850     22849     22852     22853     22850     22849     22852     22854
     22851     22849     22852     22853     22851     22849     22852     22854
     22852     22854     22856     22857     22852     22854     22856     22858
     22852     22854     22856     22859     22853     22852     22854     22855
     22853     22852     22854     22856     22854     22856     22859     22860
     22854     22856     22859     22861     22854     22856     22859     22862
     22855     22854     22856     22857     22855     22854     22856     22858
     22855     22854     22856     22859     22856     22859     22862     22863
     22856     22859     22862     22864     22856     22859     22862     22865
     22857     22856     22859     22860     22857     22856     22859     22861
     22857     22856     22859     22862     22858     22856     22859     22860
     22858     22856     22859     22861     22858     22856     22859     22862
     22859     22862     22865     22866     22859     22862     22865     22867
     22859     22862     22865     22868     22860     22859     22862     22863
     22860     22859     22862     22864     22860     22859     22862     22865
     22861     22859     22862     22863     22861     22859     22862     22864
     22861     22859     22862     22865     22862     22865     22868     22869
     22862     22865     22868     22870     22862     22865     22868     22871
     22863     22862     22865     22866     22863     22862     22865     22867
     22863     22862     22865     22868     22864     22862     22865     22866
     22864     22862     22865     22867     22864     22862     22865     22868
     22865     22868     22871     22872     22865     22868     22871     22873
     22865     22868     22871     22874     22866     22865     22868     22869
     22866     22865     22868     22870     22866     22865     22868     22871
     22867     22865     22868     22869     22867     22865     22868     22870
     22867     22865     22868     22871     22868     22871     22874     22875
     22868     22871     22874     22876     22868     22871     22874     22877
     22869     22868     22871     22872     22869     22868     22871     22873
     22869     22868     22871     22874     22870     22868     22871     22872
     22870     22868     22871     22873     22870     22868     22871     22874
     22871     22874     22877     22878     22871     22874     22877     22879
     22871     22874     22877     22880     22872     22871     22874     22875
     22872     22871     22874     22876     22872     22871     22874     22877
     22873     22871     22874     22875     22873     22871     22874     22876
     22873     22871     22874     22877     22875     22874     22877     22878
     22875     22874     22877     22879     22875     22874     22877     22880
     22876     22874     22877     22878     22876     22874     22877     22879
     22876     22874     22877     22880     22881     22884     22887     22888
     22881     22884     22887     22889     22881     22884     22887     22890
     22882     22881     22884     22885     22882     22881     22884     22886
     22882     22881     22884     22887     22883     22881     22884     22885
     22883     22881     22884     22886     22883     22881     22884     22887
     22884     22887     22890     22891     22884     22887     22890     22892
     22884     22887     22890     22893     22885     22884     22887     22888
     22885     22884     22887     22889     22885     22884     22887     22890
     22886     22884     22887     22888     22886     22884     22887     22889
     22886     22884     22887     22890     22887     22890     22893     22894
     22887     22890     22893     22895     22887     22890     22893     22896
     22888     22887     22890     22891     22888     22887     22890     22892
     22888     22887     22890     22893     22889     22887     22890     22891
     22889     22887     22890     22892     22889     22887     22890     22893
     22890     22893     22896     22897     22890     22893     22896     22898
     22890     22893     22896     22899     22891     22890     22893     22894
     22891     22890     22893     22895     22891     22890     22893     22896
     22892     22890     22893     22894     22892     22890     22893     22895
     22892     22890     22893     22896     22893     22896     22899     22900
     22893     22896     22899     22901     22893     22896     22899     22902
     22894     22893     22896     22897     22894     22893     22896     22898
     22894     22893     22896     22899     22895     22893     22896     22897
     22895     22893     22896     22898     22895     22893     22896     22899
     22896     22899     22902     22903     22896     22899     22902     22904
     22896     22899     22902     22905     22897     22896     22899     22900
     22897     22896     22899     22901     22897     22896     22899     22902
     22898     22896     22899     22900     22898     22896     22899     22901
     22898     22896     22899     22902     22899     22902     22905     22906
     22899     22902     22905     22907     22899     22902     22905     22908
     22900     22899     22902     22903     22900     22899     22902     22904
     22900     22899     22902     22905     22901     22899     22902     22903
     22901     22899     22902     22904     22901     22899     22902     22905
     22902     22905     22908     22909     22902     22905     22908     22910
     22902     22905     22908     22911     22903     22902     22905     22906
     22903     22902     22905     22907     22903     22902     22905     22908
     22904     22902     22905     22906     22904     22902     22905     22907
     22904     22902     22905     22908     22905     22908     22911     22912
     22905     22908     22911     22913     22905     22908     22911     22914
     22906     22905     22908     22909     22906     22905     22908     22910
     22906     22905     22908     22911     22907     22905     22908     22909
     22907     22905     22908     22910     22907     22905     22908     22911
     22908     22911     22914     22915     22908     22911     22914     22916
     22908     22911     22914     22917     22909     22908     22911     22912
     22909     22908     22911     22913     22909     22908     22911     22914
     22910     22908     22911     22912     22910     22908     22911     22913
     22910     22908     22911     22914     22911     22914     22917     22918
     22911     22914     22917     22919     22911     22914     22917     22920
     22912     22911     22914     22915     22912     22911     22914     22916
     22912     22911     22914     22917     22913     22911     22914     22915
     22913     22911     22914     22916     22913     22911     22914     22917
     22914     22917     22920     22921     22914     22917     22920     22922
     22914     22917     22920     22923     22915     22914     22917     22918
     22915     22914     22917     22919     22915     22914     22917     22920
     22916     22914     22917     22918     22916     22914     22917     22919
     22916     22914     22917     22920     22918     22917     22920     22921
     22918     22917     22920     22922     22918     22917     22920     22923
     22919     22917     22920     22921     22919     22917     22920     22922
     22919     22917     22920     22923     22924     22925     22940     22941
     22924     22925     22940     22942     22924     22925     22940     22946
     22925     22924     22928     22929     22925     22924     22928     22930
     22925     22924     22928     22931     22925     22924     22932     22933
     22925     22924     22932     22934     22925     22924     22932     22935
     22925     22924     22936     22937     22925     22924     22936     22938
     22925     22924     22936     22939     22925     22940     22946     22943
     22926     22925     22924     22928     22926     22925     22924     22932
     22926     22925     22924     22936     22926     22925     22940     22941
     22926     22925     22940     22942     22926     22925     22940     22946
     22927     22925     22924     22928     22927     22925     22924     22932
     22927     22925     22924     22936     22927     22925     22940     22941
     22927     22925     22940     22942     22927     22925     22940     22946
     22928     22924     22925     22940     22928     22924     22932     22933
     22928     22924     22932     22934     22928     22924     22932     22935
     22928     22924     22936     22937     22928     22924     22936     22938
     22928     22924     22936     22939     22929     22928     22924     22932
     22929     22928     22924     22936     22930     22928     22924     22932
     22930     22928     22924     22936     22931     22928     22924     22932
     22931     22928     22924     22936     22932     22924     22925     22940
     22932     22924     22936     22937     22932     22924     22936     22938
     22932     22924     22936     22939     22933     22932     22924     22936
     22934     22932     22924     22936     22935     22932     22924     22936
     22936     22924     22925     22940     22940     22946     22943     22944
     22940     22946     22943     22945     22940     22946     22943     22947
     22941     22940     22946     22943     22942     22940     22946     22943
     22943     22947     22948     22949     22943     22947     22948     22950
     22943     22947     22948     22951     22944     22943     22947     22948
     22945     22943     22947     22948     22946     22943     22947     22948
     22947     22948     22951     22952     22947     22948     22951     22953
     22947     22948     22951     22959     22948     22951     22953     22954
     22948     22951     22959     22960     22948     22951     22959     22961
     22948     22951     22959     22962     22949     22948     22951     22952
     22949     22948     22951     22953     22949     22948     22951     22959
     22950     22948     22951     22952     22950     22948     22951     22953
     22950     22948     22951     22959     22951     22953     22954     22955
     22951     22953     22954     22956     22951     22959     22962     22963
     22952     22951     22953     22954     22952     22951     22959     22960
     22952     22951     22959     22961     22952     22951     22959     22962
     22953     22951     22959     22960     22953     22951     22959     22961
     22953     22951     22959     22962     22953     22954     22956     22957
     22953     22954     22956     22958     22953     22954     22956     22968
     22954     22953     22951     22959     22954     22956     22968     22969
     22954     22956     22968     22970     22954     22956     22968     22971
     22955     22954     22956     22957     22955     22954     22956     22958
     22955     22954     22956     22968     22956     22968     22971     22972
     22956     22968     22971     22973     22956     22968     22971     22974
     22957     22956     22968     22969     22957     22956     22968     22970
     22957     22956     22968     22971     22958     22956     22968     22969
     22958     22956     22968     22970     22958     22956     22968     22971
     22959     22962     22963     22964     22959     22962     22963     22965
     22960     22959     22962     22963     22961     22959     22962     22963
     22962     22963     22965     22966     22962     22963     22965     22967
     22962     22963     22965     23015     22963     22965     23015     23016
     22963     22965     23015     23017     22963     22965     23015     23018
     22964     22963     22965     22966     22964     22963     22965     22967
     22964     22963     22965     23015     22965     23015     23018     23019
     22965     23015     23018     23020     22965     23015     23018     23021
     22966     22965     23015     23016     22966     22965     23015     23017
     22966     22965     23015     23018     22967     22965     23015     23016
     22967     22965     23015     23017     22967     22965     23015     23018
     22968     22971     22974     22975     22968     22971     22974     22976
     22968     22971     22974     22977     22969     22968     22971     22972
     22969     22968     22971     22973     22969     22968     22971     22974
     22970     22968     22971     22972     22970     22968     22971     22973
     22970     22968     22971     22974     22971     22974     22977     22978
     22971     22974     22977     22979     22971     22974     22977     22980
     22972     22971     22974     22975     22972     22971     22974     22976
     22972     22971     22974     22977     22973     22971     22974     22975
     22973     22971     22974     22976     22973     22971     22974     22977
     22974     22977     22980     22981     22974     22977     22980     22982
     22974     22977     22980     22983     22975     22974     22977     22978
     22975     22974     22977     22979     22975     22974     22977     22980
     22976     22974     22977     22978     22976     22974     22977     22979
     22976     22974     22977     22980     22977     22980     22983     22984
     22977     22980     22983     22985     22977     22980     22983     22986
     22978     22977     22980     22981     22978     22977     22980     22982
     22978     22977     22980     22983     22979     22977     22980     22981
     22979     22977     22980     22982     22979     22977     22980     22983
     22980     22983     22986     22987     22980     22983     22986     22988
     22981     22980     22983     22984     22981     22980     22983     22985
     22981     22980     22983     22986     22982     22980     22983     22984
     22982     22980     22983     22985     22982     22980     22983     22986
     22983     22986     22988     22989     22983     22986     22988     22990
     22984     22983     22986     22987     22984     22983     22986     22988
     22985     22983     22986     22987     22985     22983     22986     22988
     22986     22988     22990     22991     22986     22988     22990     22992
     22986     22988     22990     22993     22987     22986     22988     22989
     22987     22986     22988     22990     22988     22990     22993     22994
     22988     22990     22993     22995     22988     22990     22993     22996
     22989     22988     22990     22991     22989     22988     22990     22992
     22989     22988     22990     22993     22990     22993     22996     22997
     22990     22993     22996     22998     22990     22993     22996     22999
     22991     22990     22993     22994     22991     22990     22993     22995
     22991     22990     22993     22996     22992     22990     22993     22994
     22992     22990     22993     22995     22992     22990     22993     22996
     22993     22996     22999     23000     22993     22996     22999     23001
     22993     22996     22999     23002     22994     22993     22996     22997
     22994     22993     22996     22998     22994     22993     22996     22999
     22995     22993     22996     22997     22995     22993     22996     22998
     22995     22993     22996     22999     22996     22999     23002     23003
     22996     22999     23002     23004     22996     22999     23002     23005
     22997     22996     22999     23000     22997     22996     22999     23001
     22997     22996     22999     23002     22998     22996     22999     23000
     22998     22996     22999     23001     22998     22996     22999     23002
     22999     23002     23005     23006     22999     23002     23005     23007
     22999     23002     23005     23008     23000     22999     23002     23003
     23000     22999     23002     23004     23000     22999     23002     23005
     23001     22999     23002     23003     23001     22999     23002     23004
     23001     22999     23002     23005     23002     23005     23008     23009
     23002     23005     23008     23010     23002     23005     23008     23011
     23003     23002     23005     23006     23003     23002     23005     23007
     23003     23002     23005     23008     23004     23002     23005     23006
     23004     23002     23005     23007     23004     23002     23005     23008
     23005     23008     23011     23012     23005     23008     23011     23013
     23005     23008     23011     23014     23006     23005     23008     23009
     23006     23005     23008     23010     23006     23005     23008     23011
     23007     23005     23008     23009     23007     23005     23008     23010
     23007     23005     23008     23011     23009     23008     23011     23012
     23009     23008     23011     23013     23009     23008     23011     23014
     23010     23008     23011     23012     23010     23008     23011     23013
     23010     23008     23011     23014     23015     23018     23021     23022
     23015     23018     23021     23023     23015     23018     23021     23024
     23016     23015     23018     23019     23016     23015     23018     23020
     23016     23015     23018     23021     23017     23015     23018     23019
     23017     23015     23018     23020     23017     23015     23018     23021
     23018     23021     23024     23025     23018     23021     23024     23026
     23018     23021     23024     23027     23019     23018     23021     23022
     23019     23018     23021     23023     23019     23018     23021     23024
     23020     23018     23021     23022     23020     23018     23021     23023
     23020     23018     23021     23024     23021     23024     23027     23028
     23021     23024     23027     23029     23021     23024     23027     23030
     23022     23021     23024     23025     23022     23021     23024     23026
     23022     23021     23024     23027     23023     23021     23024     23025
     23023     23021     23024     23026     23023     23021     23024     23027
     23024     23027     23030     23031     23024     23027     23030     23032
     23024     23027     23030     23033     23025     23024     23027     23028
     23025     23024     23027     23029     23025     23024     23027     23030
     23026     23024     23027     23028     23026     23024     23027     23029
     23026     23024     23027     23030     23027     23030     23033     23034
     23027     23030     23033     23035     23027     23030     23033     23036
     23028     23027     23030     23031     23028     23027     23030     23032
     23028     23027     23030     23033     23029     23027     23030     23031
     23029     23027     23030     23032     23029     23027     23030     23033
     23030     23033     23036     23037     23030     23033     23036     23038
     23030     23033     23036     23039     23031     23030     23033     23034
     23031     23030     23033     23035     23031     23030     23033     23036
     23032     23030     23033     23034     23032     23030     23033     23035
     23032     23030     23033     23036     23033     23036     23039     23040
     23033     23036     23039     23041     23033     23036     23039     23042
     23034     23033     23036     23037     23034     23033     23036     23038
     23034     23033     23036     23039     23035     23033     23036     23037
     23035     23033     23036     23038     23035     23033     23036     23039
     23036     23039     23042     23043     23036     23039     23042     23044
     23036     23039     23042     23045     23037     23036     23039     23040
     23037     23036     23039     23041     23037     23036     23039     23042
     23038     23036     23039     23040     23038     23036     23039     23041
     23038     23036     23039     23042     23039     23042     23045     23046
     23039     23042     23045     23047     23039     23042     23045     23048
     23040     23039     23042     23043     23040     23039     23042     23044
     23040     23039     23042     23045     23041     23039     23042     23043
     23041     23039     23042     23044     23041     23039     23042     23045
     23042     23045     23048     23049     23042     23045     23048     23050
     23042     23045     23048     23051     23043     23042     23045     23046
     23043     23042     23045     23047     23043     23042     23045     23048
     23044     23042     23045     23046     23044     23042     23045     23047
     23044     23042     23045     23048     23045     23048     23051     23052
     23045     23048     23051     23053     23045     23048     23051     23054
     23046     23045     23048     23049     23046     23045     23048     23050
     23046     23045     23048     23051     23047     23045     23048     23049
     23047     23045     23048     23050     23047     23045     23048     23051
     23048     23051     23054     23055     23048     23051     23054     23056
     23048     23051     23054     23057     23049     23048     23051     23052
     23049     23048     23051     23053     23049     23048     23051     23054
     23050     23048     23051     23052     23050     23048     23051     23053
     23050     23048     23051     23054     23052     23051     23054     23055
     23052     23051     23054     23056     23052     23051     23054     23057
     23053     23051     23054     23055     23053     23051     23054     23056
     23053     23051     23054     23057     23058     23059     23074     23075
     23058     23059     23074     23076     23058     23059     23074     23080
     23059     23058     23062     23063     23059     23058     23062     23064
     23059     23058     23062     23065     23059     23058     23066     23067
     23059     23058     23066     23068     23059     23058     23066     23069
     23059     23058     23070     23071     23059     23058     23070     23072
     23059     23058     23070     23073     23059     23074     23080     23077
     23060     23059     23058     23062     23060     23059     23058     23066
     23060     23059     23058     23070     23060     23059     23074     23075
     23060     23059     23074     23076     23060     23059     23074     23080
     23061     23059     23058     23062     23061     23059     23058     23066
     23061     23059     23058     23070     23061     23059     23074     23075
     23061     23059     23074     23076     23061     23059     23074     23080
     23062     23058     23059     23074     23062     23058     23066     23067
     23062     23058     23066     23068     23062     23058     23066     23069
     23062     23058     23070     23071     23062     23058     23070     23072
     23062     23058     23070     23073     23063     23062     23058     23066
     23063     23062     23058     23070     23064     23062     23058     23066
     23064     23062     23058     23070     23065     23062     23058     23066
     23065     23062     23058     23070     23066     23058     23059     23074
     23066     23058     23070     23071     23066     23058     23070     23072
     23066     23058     23070     23073     23067     23066     23058     23070
     23068     23066     23058     23070     23069     23066     23058     23070
     23070     23058     23059     23074     23074     23080     23077     23078
     23074     23080     23077     23079     23074     23080     23077     23081
     23075     23074     23080     23077     23076     23074     23080     23077
     23077     23081     23082     23083     23077     23081     23082     23084
     23077     23081     23082     23085     23078     23077     23081     23082
     23079     23077     23081     23082     23080     23077     23081     23082
     23081     23082     23085     23086     23081     23082     23085     23087
     23081     23082     23085     23093     23082     23085     23087     23088
     23082     23085     23093     23094     23082     23085     23093     23095
     23082     23085     23093     23096     23083     23082     23085     23086
     23083     23082     23085     23087     23083     23082     23085     23093
     23084     23082     23085     23086     23084     23082     23085     23087
     23084     23082     23085     23093     23085     23087     23088     23089
     23085     23087     23088     23090     23085     23093     23096     23097
     23086     23085     23087     23088     23086     23085     23093     23094
     23086     23085     23093     23095     23086     23085     23093     23096
     23087     23085     23093     23094     23087     23085     23093     23095
     23087     23085     23093     23096     23087     23088     23090     23091
     23087     23088     23090     23092     23087     23088     23090     23102
     23088     23087     23085     23093     23088     23090     23102     23103
     23088     23090     23102     23104     23088     23090     23102     23105
     23089     23088     23090     23091     23089     23088     23090     23092
     23089     23088     23090     23102     23090     23102     23105     23106
     23090     23102     23105     23107     23090     23102     23105     23108
     23091     23090     23102     23103     23091     23090     23102     23104
     23091     23090     23102     23105     23092     23090     23102     23103
     23092     23090     23102     23104     23092     23090     23102     23105
     23093     23096     23097     23098     23093     23096     23097     23099
     23094     23093     23096     23097     23095     23093     23096     23097
     23096     23097     23099     23100     23096     23097     23099     23101
     23096     23097     23099     23149     23097     23099     23149     23150
     23097     23099     23149     23151     23097     23099     23149     23152
     23098     23097     23099     23100     23098     23097     23099     23101
     23098     23097     23099     23149     23099     23149     23152     23153
     23099     23149     23152     23154     23099     23149     23152     23155
     23100     23099     23149     23150     23100     23099     23149     23151
     23100     23099     23149     23152     23101     23099     23149     23150
     23101     23099     23149     23151     23101     23099     23149     23152
     23102     23105     23108     23109     23102     23105     23108     23110
     23102     23105     23108     23111     23103     23102     23105     23106
     23103     23102     23105     23107     23103     23102     23105     23108
     23104     23102     23105     23106     23104     23102     23105     23107
     23104     23102     23105     23108     23105     23108     23111     23112
     23105     23108     23111     23113     23105     23108     23111     23114
     23106     23105     23108     23109     23106     23105     23108     23110
     23106     23105     23108     23111     23107     23105     23108     23109
     23107     23105     23108     23110     23107     23105     23108     23111
     23108     23111     23114     23115     23108     23111     23114     23116
     23108     23111     23114     23117     23109     23108     23111     23112
     23109     23108     23111     23113     23109     23108     23111     23114
     23110     23108     23111     23112     23110     23108     23111     23113
     23110     23108     23111     23114     23111     23114     23117     23118
     23111     23114     23117     23119     23111     23114     23117     23120
     23112     23111     23114     23115     23112     23111     23114     23116
     23112     23111     23114     23117     23113     23111     23114     23115
     23113     23111     23114     23116     23113     23111     23114     23117
     23114     23117     23120     23121     23114     23117     23120     23122
     23115     23114     23117     23118     23115     23114     23117     23119
     23115     23114     23117     23120     23116     23114     23117     23118
     23116     23114     23117     23119     23116     23114     23117     23120
     23117     23120     23122     23123     23117     23120     23122     23124
     23118     23117     23120     23121     23118     23117     23120     23122
     23119     23117     23120     23121     23119     23117     23120     23122
     23120     23122     23124     23125     23120     23122     23124     23126
     23120     23122     23124     23127     23121     23120     23122     23123
     23121     23120     23122     23124     23122     23124     23127     23128
     23122     23124     23127     23129     23122     23124     23127     23130
     23123     23122     23124     23125     23123     23122     23124     23126
     23123     23122     23124     23127     23124     23127     23130     23131
     23124     23127     23130     23132     23124     23127     23130     23133
     23125     23124     23127     23128     23125     23124     23127     23129
     23125     23124     23127     23130     23126     23124     23127     23128
     23126     23124     23127     23129     23126     23124     23127     23130
     23127     23130     23133     23134     23127     23130     23133     23135
     23127     23130     23133     23136     23128     23127     23130     23131
     23128     23127     23130     23132     23128     23127     23130     23133
     23129     23127     23130     23131     23129     23127     23130     23132
     23129     23127     23130     23133     23130     23133     23136     23137
     23130     23133     23136     23138     23130     23133     23136     23139
     23131     23130     23133     23134     23131     23130     23133     23135
     23131     23130     23133     23136     23132     23130     23133     23134
     23132     23130     23133     23135     23132     23130     23133     23136
     23133     23136     23139     23140     23133     23136     23139     23141
     23133     23136     23139     23142     23134     23133     23136     23137
     23134     23133     23136     23138     23134     23133     23136     23139
     23135     23133     23136     23137     23135     23133     23136     23138
     23135     23133     23136     23139     23136     23139     23142     23143
     23136     23139     23142     23144     23136     23139     23142     23145
     23137     23136     23139     23140     23137     23136     23139     23141
     23137     23136     23139     23142     23138     23136     23139     23140
     23138     23136     23139     23141     23138     23136     23139     23142
     23139     23142     23145     23146     23139     23142     23145     23147
     23139     23142     23145     23148     23140     23139     23142     23143
     23140     23139     23142     23144     23140     23139     23142     23145
     23141     23139     23142     23143     23141     23139     23142     23144
     23141     23139     23142     23145     23143     23142     23145     23146
     23143     23142     23145     23147     23143     23142     23145     23148
     23144     23142     23145     23146     23144     23142     23145     23147
     23144     23142     23145     23148     23149     23152     23155     23156
     23149     23152     23155     23157     23149     23152     23155     23158
     23150     23149     23152     23153     23150     23149     23152     23154
     23150     23149     23152     23155     23151     23149     23152     23153
     23151     23149     23152     23154     23151     23149     23152     23155
     23152     23155     23158     23159     23152     23155     23158     23160
     23152     23155     23158     23161     23153     23152     23155     23156
     23153     23152     23155     23157     23153     23152     23155     23158
     23154     23152     23155     23156     23154     23152     23155     23157
     23154     23152     23155     23158     23155     23158     23161     23162
     23155     23158     23161     23163     23155     23158     23161     23164
     23156     23155     23158     23159     23156     23155     23158     23160
     23156     23155     23158     23161     23157     23155     23158     23159
     23157     23155     23158     23160     23157     23155     23158     23161
     23158     23161     23164     23165     23158     23161     23164     23166
     23158     23161     23164     23167     23159     23158     23161     23162
     23159     23158     23161     23163     23159     23158     23161     23164
     23160     23158     23161     23162     23160     23158     23161     23163
     23160     23158     23161     23164     23161     23164     23167     23168
     23161     23164     23167     23169     23161     23164     23167     23170
     23162     23161     23164     23165     23162     23161     23164     23166
     23162     23161     23164     23167     23163     23161     23164     23165
     23163     23161     23164     23166     23163     23161     23164     23167
     23164     23167     23170     23171     23164     23167     23170     23172
     23164     23167     23170     23173     23165     23164     23167     23168
     23165     23164     23167     23169     23165     23164     23167     23170
     23166     23164     23167     23168     23166     23164     23167     23169
     23166     23164     23167     23170     23167     23170     23173     23174
     23167     23170     23173     23175     23167     23170     23173     23176
     23168     23167     23170     23171     23168     23167     23170     23172
     23168     23167     23170     23173     23169     23167     23170     23171
     23169     23167     23170     23172     23169     23167     23170     23173
     23170     23173     23176     23177     23170     23173     23176     23178
     23170     23173     23176     23179     23171     23170     23173     23174
     23171     23170     23173     23175     23171     23170     23173     23176
     23172     23170     23173     23174     23172     23170     23173     23175
     23172     23170     23173     23176     23173     23176     23179     23180
     23173     23176     23179     23181     23173     23176     23179     23182
     23174     23173     23176     23177     23174     23173     23176     23178
     23174     23173     23176     23179     23175     23173     23176     23177
     23175     23173     23176     23178     23175     23173     23176     23179
     23176     23179     23182     23183     23176     23179     23182     23184
     23176     23179     23182     23185     23177     23176     23179     23180
     23177     23176     23179     23181     23177     23176     23179     23182
     23178     23176     23179     23180     23178     23176     23179     23181
     23178     23176     23179     23182     23179     23182     23185     23186
     23179     23182     23185     23187     23179     23182     23185     23188
     23180     23179     23182     23183     23180     23179     23182     23184
     23180     23179     23182     23185     23181     23179     23182     23183
     23181     23179     23182     23184     23181     23179     23182     23185
     23182     23185     23188     23189     23182     23185     23188     23190
     23182     23185     23188     23191     23183     23182     23185     23186
     23183     23182     23185     23187     23183     23182     23185     23188
     23184     23182     23185     23186     23184     23182     23185     23187
     23184     23182     23185     23188     23186     23185     23188     23189
     23186     23185     23188     23190     23186     23185     23188     23191
     23187     23185     23188     23189     23187     23185     23188     23190
     23187     23185     23188     23191     23192     23193     23208     23209
     23192     23193     23208     23210     23192     23193     23208     23214
     23193     23192     23196     23197     23193     23192     23196     23198
     23193     23192     23196     23199     23193     23192     23200     23201
     23193     23192     23200     23202     23193     23192     23200     23203
     23193     23192     23204     23205     23193     23192     23204     23206
     23193     23192     23204     23207     23193     23208     23214     23211
     23194     23193     23192     23196     23194     23193     23192     23200
     23194     23193     23192     23204     23194     23193     23208     23209
     23194     23193     23208     23210     23194     23193     23208     23214
     23195     23193     23192     23196     23195     23193     23192     23200
     23195     23193     23192     23204     23195     23193     23208     23209
     23195     23193     23208     23210     23195     23193     23208     23214
     23196     23192     23193     23208     23196     23192     23200     23201
     23196     23192     23200     23202     23196     23192     23200     23203
     23196     23192     23204     23205     23196     23192     23204     23206
     23196     23192     23204     23207     23197     23196     23192     23200
     23197     23196     23192     23204     23198     23196     23192     23200
     23198     23196     23192     23204     23199     23196     23192     23200
     23199     23196     23192     23204     23200     23192     23193     23208
     23200     23192     23204     23205     23200     23192     23204     23206
     23200     23192     23204     23207     23201     23200     23192     23204
     23202     23200     23192     23204     23203     23200     23192     23204
     23204     23192     23193     23208     23208     23214     23211     23212
     23208     23214     23211     23213     23208     23214     23211     23215
     23209     23208     23214     23211     23210     23208     23214     23211
     23211     23215     23216     23217     23211     23215     23216     23218
     23211     23215     23216     23219     23212     23211     23215     23216
     23213     23211     23215     23216     23214     23211     23215     23216
     23215     23216     23219     23220     23215     23216     23219     23221
     23215     23216     23219     23227     23216     23219     23221     23222
     23216     23219     23227     23228     23216     23219     23227     23229
     23216     23219     23227     23230     23217     23216     23219     23220
     23217     23216     23219     23221     23217     23216     23219     23227
     23218     23216     23219     23220     23218     23216     23219     23221
     23218     23216     23219     23227     23219     23221     23222     23223
     23219     23221     23222     23224     23219     23227     23230     23231
     23220     23219     23221     23222     23220     23219     23227     23228
     23220     23219     23227     23229     23220     23219     23227     23230
     23221     23219     23227     23228     23221     23219     23227     23229
     23221     23219     23227     23230     23221     23222     23224     23225
     23221     23222     23224     23226     23221     23222     23224     23236
     23222     23221     23219     23227     23222     23224     23236     23237
     23222     23224     23236     23238     23222     23224     23236     23239
     23223     23222     23224     23225     23223     23222     23224     23226
     23223     23222     23224     23236     23224     23236     23239     23240
     23224     23236     23239     23241     23224     23236     23239     23242
     23225     23224     23236     23237     23225     23224     23236     23238
     23225     23224     23236     23239     23226     23224     23236     23237
     23226     23224     23236     23238     23226     23224     23236     23239
     23227     23230     23231     23232     23227     23230     23231     23233
     23228     23227     23230     23231     23229     23227     23230     23231
     23230     23231     23233     23234     23230     23231     23233     23235
     23230     23231     23233     23283     23231     23233     23283     23284
     23231     23233     23283     23285     23231     23233     23283     23286
     23232     23231     23233     23234     23232     23231     23233     23235
     23232     23231     23233     23283     23233     23283     23286     23287
     23233     23283     23286     23288     23233     23283     23286     23289
     23234     23233     23283     23284     23234     23233     23283     23285
     23234     23233     23283     23286     23235     23233     23283     23284
     23235     23233     23283     23285     23235     23233     23283     23286
     23236     23239     23242     23243     23236     23239     23242     23244
     23236     23239     23242     23245     23237     23236     23239     23240
     23237     23236     23239     23241     23237     23236     23239     23242
     23238     23236     23239     23240     23238     23236     23239     23241
     23238     23236     23239     23242     23239     23242     23245     23246
     23239     23242     23245     23247     23239     23242     23245     23248
     23240     23239     23242     23243     23240     23239     23242     23244
     23240     23239     23242     23245     23241     23239     23242     23243
     23241     23239     23242     23244     23241     23239     23242     23245
     23242     23245     23248     23249     23242     23245     23248     23250
     23242     23245     23248     23251     23243     23242     23245     23246
     23243     23242     23245     23247     23243     23242     23245     23248
     23244     23242     23245     23246     23244     23242     23245     23247
     23244     23242     23245     23248     23245     23248     23251     23252
     23245     23248     23251     23253     23245     23248     23251     23254
     23246     23245     23248     23249     23246     23245     23248     23250
     23246     23245     23248     23251     23247     23245     23248     23249
     23247     23245     23248     23250     23247     23245     23248     23251
     23248     23251     23254     23255     23248     23251     23254     23256
     23249     23248     23251     23252     23249     23248     23251     23253
     23249     23248     23251     23254     23250     23248     23251     23252
     23250     23248     23251     23253     23250     23248     23251     23254
     23251     23254     23256     23257     23251     23254     23256     23258
     23252     23251     23254     23255     23252     23251     23254     23256
     23253     23251     23254     23255     23253     23251     23254     23256
     23254     23256     23258     23259     23254     23256     23258     23260
     23254     23256     23258     23261     23255     23254     23256     23257
     23255     23254     23256     23258     23256     23258     23261     23262
     23256     23258     23261     23263     23256     23258     23261     23264
     23257     23256     23258     23259     23257     23256     23258     23260
     23257     23256     23258     23261     23258     23261     23264     23265
     23258     23261     23264     23266     23258     23261     23264     23267
     23259     23258     23261     23262     23259     23258     23261     23263
     23259     23258     23261     23264     23260     23258     23261     23262
     23260     23258     23261     23263     23260     23258     23261     23264
     23261     23264     23267     23268     23261     23264     23267     23269
     23261     23264     23267     23270     23262     23261     23264     23265
     23262     23261     23264     23266     23262     23261     23264     23267
     23263     23261     23264     23265     23263     23261     23264     23266
     23263     23261     23264     23267     23264     23267     23270     23271
     23264     23267     23270     23272     23264     23267     23270     23273
     23265     23264     23267     23268     23265     23264     23267     23269
     23265     23264     23267     23270     23266     23264     23267     23268
     23266     23264     23267     23269     23266     23264     23267     23270
     23267     23270     23273     23274     23267     23270     23273     23275
     23267     23270     23273     23276     23268     23267     23270     23271
     23268     23267     23270     23272     23268     23267     23270     23273
     23269     23267     23270     23271     23269     23267     23270     23272
     23269     23267     23270     23273     23270     23273     23276     23277
     23270     23273     23276     23278     23270     23273     23276     23279
     23271     23270     23273     23274     23271     23270     23273     23275
     23271     23270     23273     23276     23272     23270     23273     23274
     23272     23270     23273     23275     23272     23270     23273     23276
     23273     23276     23279     23280     23273     23276     23279     23281
     23273     23276     23279     23282     23274     23273     23276     23277
     23274     23273     23276     23278     23274     23273     23276     23279
     23275     23273     23276     23277     23275     23273     23276     23278
     23275     23273     23276     23279     23277     23276     23279     23280
     23277     23276     23279     23281     23277     23276     23279     23282
     23278     23276     23279     23280     23278     23276     23279     23281
     23278     23276     23279     23282     23283     23286     23289     23290
     23283     23286     23289     23291     23283     23286     23289     23292
     23284     23283     23286     23287     23284     23283     23286     23288
     23284     23283     23286     23289     23285     23283     23286     23287
     23285     23283     23286     23288     23285     23283     23286     23289
     23286     23289     23292     23293     23286     23289     23292     23294
     23286     23289     23292     23295     23287     23286     23289     23290
     23287     23286     23289     23291     23287     23286     23289     23292
     23288     23286     23289     23290     23288     23286     23289     23291
     23288     23286     23289     23292     23289     23292     23295     23296
     23289     23292     23295     23297     23289     23292     23295     23298
     23290     23289     23292     23293     23290     23289     23292     23294
     23290     23289     23292     23295     23291     23289     23292     23293
     23291     23289     23292     23294     23291     23289     23292     23295
     23292     23295     23298     23299     23292     23295     23298     23300
     23292     23295     23298     23301     23293     23292     23295     23296
     23293     23292     23295     23297     23293     23292     23295     23298
     23294     23292     23295     23296     23294     23292     23295     23297
     23294     23292     23295     23298     23295     23298     23301     23302
     23295     23298     23301     23303     23295     23298     23301     23304
     23296     23295     23298     23299     23296     23295     23298     23300
     23296     23295     23298     23301     23297     23295     23298     23299
     23297     23295     23298     23300     23297     23295     23298     23301
     23298     23301     23304     23305     23298     23301     23304     23306
     23298     23301     23304     23307     23299     23298     23301     23302
     23299     23298     23301     23303     23299     23298     23301     23304
     23300     23298     23301     23302     23300     23298     23301     23303
     23300     23298     23301     23304     23301     23304     23307     23308
     23301     23304     23307     23309     23301     23304     23307     23310
     23302     23301     23304     23305     23302     23301     23304     23306
     23302     23301     23304     23307     23303     23301     23304     23305
     23303     23301     23304     23306     23303     23301     23304     23307
     23304     23307     23310     23311     23304     23307     23310     23312
     23304     23307     23310     23313     23305     23304     23307     23308
     23305     23304     23307     23309     23305     23304     23307     23310
     23306     23304     23307     23308     23306     23304     23307     23309
     23306     23304     23307     23310     23307     23310     23313     23314
     23307     23310     23313     23315     23307     23310     23313     23316
     23308     23307     23310     23311     23308     23307     23310     23312
     23308     23307     23310     23313     23309     23307     23310     23311
     23309     23307     23310     23312     23309     23307     23310     23313
     23310     23313     23316     23317     23310     23313     23316     23318
     23310     23313     23316     23319     23311     23310     23313     23314
     23311     23310     23313     23315     23311     23310     23313     23316
     23312     23310     23313     23314     23312     23310     23313     23315
     23312     23310     23313     23316     23313     23316     23319     23320
     23313     23316     23319     23321     23313     23316     23319     23322
     23314     23313     23316     23317     23314     23313     23316     23318
     23314     23313     23316     23319     23315     23313     23316     23317
     23315     23313     23316     23318     23315     23313     23316     23319
     23316     23319     23322     23323     23316     23319     23322     23324
     23316     23319     23322     23325     23317     23316     23319     23320
     23317     23316     23319     23321     23317     23316     23319     23322
     23318     23316     23319     23320     23318     23316     23319     23321
     23318     23316     23319     23322     23320     23319     23322     23323
     23320     23319     23322     23324     23320     23319     23322     23325
     23321     23319     23322     23323     23321     23319     23322     23324
     23321     23319     23322     23325     23326     23330     23332     23333
     23326     23330     23332     23334     23326     23330     23335     23336
     23326     23330     23335     23337     23326     23330     23335     23341
     23327     23326     23330     23331     23327     23326     23330     23332
     23327     23326     23330     23335     23328     23326     23330     23331
     23328     23326     23330     23332     23328     23326     23330     23335
     23329     23326     23330     23331     23329     23326     23330     23332
     23329     23326     23330     23335     23330     23335     23341     23338
     23331     23330     23332     23333     23331     23330     23332     23334
     23331     23330     23335     23336     23331     23330     23335     23337
     23331     23330     23335     23341     23332     23330     23335     23336
     23332     23330     23335     23337     23332     23330     23335     23341
     23333     23332     23330     23335     23334     23332     23330     23335
     23335     23341     23338     23339     23335     23341     23338     23340
     23335     23341     23338     23342     23336     23335     23341     23338
     23337     23335     23341     23338     23338     23342     23343     23344
     23338     23342     23343     23345     23338     23342     23343     23346
     23339     23338     23342     23343     23340     23338     23342     23343
     23341     23338     23342     23343     23342     23343     23346     23347
     23342     23343     23346     23348     23342     23343     23346     23354
     23343     23346     23348     23349     23343     23346     23354     23355
     23343     23346     23354     23356     23343     23346     23354     23357
     23344     23343     23346     23347     23344     23343     23346     23348
     23344     23343     23346     23354     23345     23343     23346     23347
     23345     23343     23346     23348     23345     23343     23346     23354
     23346     23348     23349     23350     23346     23348     23349     23351
     23346     23354     23357     23358     23347     23346     23348     23349
     23347     23346     23354     23355     23347     23346     23354     23356
     23347     23346     23354     23357     23348     23346     23354     23355
     23348     23346     23354     23356     23348     23346     23354     23357
     23348     23349     23351     23352     23348     23349     23351     23353
     23348     23349     23351     23363     23349     23348     23346     23354
     23349     23351     23363     23364     23349     23351     23363     23365
     23349     23351     23363     23366     23350     23349     23351     23352
     23350     23349     23351     23353     23350     23349     23351     23363
     23351     23363     23366     23367     23351     23363     23366     23368
     23351     23363     23366     23369     23352     23351     23363     23364
     23352     23351     23363     23365     23352     23351     23363     23366
     23353     23351     23363     23364     23353     23351     23363     23365
     23353     23351     23363     23366     23354     23357     23358     23359
     23354     23357     23358     23360     23355     23354     23357     23358
     23356     23354     23357     23358     23357     23358     23360     23361
     23357     23358     23360     23362     23357     23358     23360     23410
     23358     23360     23410     23411     23358     23360     23410     23412
     23358     23360     23410     23413     23359     23358     23360     23361
     23359     23358     23360     23362     23359     23358     23360     23410
     23360     23410     23413     23414     23360     23410     23413     23415
     23360     23410     23413     23416     23361     23360     23410     23411
     23361     23360     23410     23412     23361     23360     23410     23413
     23362     23360     23410     23411     23362     23360     23410     23412
     23362     23360     23410     23413     23363     23366     23369     23370
     23363     23366     23369     23371     23363     23366     23369     23372
     23364     23363     23366     23367     23364     23363     23366     23368
     23364     23363     23366     23369     23365     23363     23366     23367
     23365     23363     23366     23368     23365     23363     23366     23369
     23366     23369     23372     23373     23366     23369     23372     23374
     23366     23369     23372     23375     23367     23366     23369     23370
     23367     23366     23369     23371     23367     23366     23369     23372
     23368     23366     23369     23370     23368     23366     23369     23371
     23368     23366     23369     23372     23369     23372     23375     23376
     23369     23372     23375     23377     23369     23372     23375     23378
     23370     23369     23372     23373     23370     23369     23372     23374
     23370     23369     23372     23375     23371     23369     23372     23373
     23371     23369     23372     23374     23371     23369     23372     23375
     23372     23375     23378     23379     23372     23375     23378     23380
     23372     23375     23378     23381     23373     23372     23375     23376
     23373     23372     23375     23377     23373     23372     23375     23378
     23374     23372     23375     23376     23374     23372     23375     23377
     23374     23372     23375     23378     23375     23378     23381     23382
     23375     23378     23381     23383     23376     23375     23378     23379
     23376     23375     23378     23380     23376     23375     23378     23381
     23377     23375     23378     23379     23377     23375     23378     23380
     23377     23375     23378     23381     23378     23381     23383     23384
     23378     23381     23383     23385     23379     23378     23381     23382
     23379     23378     23381     23383     23380     23378     23381     23382
     23380     23378     23381     23383     23381     23383     23385     23386
     23381     23383     23385     23387     23381     23383     23385     23388
     23382     23381     23383     23384     23382     23381     23383     23385
     23383     23385     23388     23389     23383     23385     23388     23390
     23383     23385     23388     23391     23384     23383     23385     23386
     23384     23383     23385     23387     23384     23383     23385     23388
     23385     23388     23391     23392     23385     23388     23391     23393
     23385     23388     23391     23394     23386     23385     23388     23389
     23386     23385     23388     23390     23386     23385     23388     23391
     23387     23385     23388     23389     23387     23385     23388     23390
     23387     23385     23388     23391     23388     23391     23394     23395
     23388     23391     23394     23396     23388     23391     23394     23397
     23389     23388     23391     23392     23389     23388     23391     23393
     23389     23388     23391     23394     23390     23388     23391     23392
     23390     23388     23391     23393     23390     23388     23391     23394
     23391     23394     23397     23398     23391     23394     23397     23399
     23391     23394     23397     23400     23392     23391     23394     23395
     23392     23391     23394     23396     23392     23391     23394     23397
     23393     23391     23394     23395     23393     23391     23394     23396
     23393     23391     23394     23397     23394     23397     23400     23401
     23394     23397     23400     23402     23394     23397     23400     23403
     23395     23394     23397     23398     23395     23394     23397     23399
     23395     23394     23397     23400     23396     23394     23397     23398
     23396     23394     23397     23399     23396     23394     23397     23400
     23397     23400     23403     23404     23397     23400     23403     23405
     23397     23400     23403     23406     23398     23397     23400     23401
     23398     23397     23400     23402     23398     23397     23400     23403
     23399     23397     23400     23401     23399     23397     23400     23402
     23399     23397     23400     23403     23400     23403     23406     23407
     23400     23403     23406     23408     23400     23403     23406     23409
     23401     23400     23403     23404     23401     23400     23403     23405
     23401     23400     23403     23406     23402     23400     23403     23404
     23402     23400     23403     23405     23402     23400     23403     23406
     23404     23403     23406     23407     23404     23403     23406     23408
     23404     23403     23406     23409     23405     23403     23406     23407
     23405     23403     23406     23408     23405     23403     23406     23409
     23410     23413     23416     23417     23410     23413     23416     23418
     23410     23413     23416     23419     23411     23410     23413     23414
     23411     23410     23413     23415     23411     23410     23413     23416
     23412     23410     23413     23414     23412     23410     23413     23415
     23412     23410     23413     23416     23413     23416     23419     23420
     23413     23416     23419     23421     23413     23416     23419     23422
     23414     23413     23416     23417     23414     23413     23416     23418
     23414     23413     23416     23419     23415     23413     23416     23417
     23415     23413     23416     23418     23415     23413     23416     23419
     23416     23419     23422     23423     23416     23419     23422     23424
     23416     23419     23422     23425     23417     23416     23419     23420
     23417     23416     23419     23421     23417     23416     23419     23422
     23418     23416     23419     23420     23418     23416     23419     23421
     23418     23416     23419     23422     23419     23422     23425     23426
     23419     23422     23425     23427     23419     23422     23425     23428
     23420     23419     23422     23423     23420     23419     23422     23424
     23420     23419     23422     23425     23421     23419     23422     23423
     23421     23419     23422     23424     23421     23419     23422     23425
     23422     23425     23428     23429     23422     23425     23428     23430
     23422     23425     23428     23431     23423     23422     23425     23426
     23423     23422     23425     23427     23423     23422     23425     23428
     23424     23422     23425     23426     23424     23422     23425     23427
     23424     23422     23425     23428     23425     23428     23431     23432
     23425     23428     23431     23433     23425     23428     23431     23434
     23426     23425     23428     23429     23426     23425     23428     23430
     23426     23425     23428     23431     23427     23425     23428     23429
     23427     23425     23428     23430     23427     23425     23428     23431
     23428     23431     23434     23435     23428     23431     23434     23436
     23428     23431     23434     23437     23429     23428     23431     23432
     23429     23428     23431     23433     23429     23428     23431     23434
     23430     23428     23431     23432     23430     23428     23431     23433
     23430     23428     23431     23434     23431     23434     23437     23438
     23431     23434     23437     23439     23431     23434     23437     23440
     23432     23431     23434     23435     23432     23431     23434     23436
     23432     23431     23434     23437     23433     23431     23434     23435
     23433     23431     23434     23436     23433     23431     23434     23437
     23434     23437     23440     23441     23434     23437     23440     23442
     23434     23437     23440     23443     23435     23434     23437     23438
     23435     23434     23437     23439     23435     23434     23437     23440
     23436     23434     23437     23438     23436     23434     23437     23439
     23436     23434     23437     23440     23437     23440     23443     23444
     23437     23440     23443     23445     23437     23440     23443     23446
     23438     23437     23440     23441     23438     23437     23440     23442
     23438     23437     23440     23443     23439     23437     23440     23441
     23439     23437     23440     23442     23439     23437     23440     23443
     23440     23443     23446     23447     23440     23443     23446     23448
     23440     23443     23446     23449     23441     23440     23443     23444
     23441     23440     23443     23445     23441     23440     23443     23446
     23442     23440     23443     23444     23442     23440     23443     23445
     23442     23440     23443     23446     23443     23446     23449     23450
     23443     23446     23449     23451     23443     23446     23449     23452
     23444     23443     23446     23447     23444     23443     23446     23448
     23444     23443     23446     23449     23445     23443     23446     23447
     23445     23443     23446     23448     23445     23443     23446     23449
     23447     23446     23449     23450     23447     23446     23449     23451
     23447     23446     23449     23452     23448     23446     23449     23450
     23448     23446     23449     23451     23448     23446     23449     23452
     23453     23454     23469     23470     23453     23454     23469     23471
     23453     23454     23469     23475     23454     23453     23457     23458
     23454     23453     23457     23459     23454     23453     23457     23460
     23454     23453     23461     23462     23454     23453     23461     23463
     23454     23453     23461     23464     23454     23453     23465     23466
     23454     23453     23465     23467     23454     23453     23465     23468
     23454     23469     23475     23472     23455     23454     23453     23457
     23455     23454     23453     23461     23455     23454     23453     23465
     23455     23454     23469     23470     23455     23454     23469     23471
     23455     23454     23469     23475     23456     23454     23453     23457
     23456     23454     23453     23461     23456     23454     23453     23465
     23456     23454     23469     23470     23456     23454     23469     23471
     23456     23454     23469     23475     23457     23453     23454     23469
     23457     23453     23461     23462     23457     23453     23461     23463
     23457     23453     23461     23464     23457     23453     23465     23466
     23457     23453     23465     23467     23457     23453     23465     23468
     23458     23457     23453     23461     23458     23457     23453     23465
     23459     23457     23453     23461     23459     23457     23453     23465
     23460     23457     23453     23461     23460     23457     23453     23465
     23461     23453     23454     23469     23461     23453     23465     23466
     23461     23453     23465     23467     23461     23453     23465     23468
     23462     23461     23453     23465     23463     23461     23453     23465
     23464     23461     23453     23465     23465     23453     23454     23469
     23469     23475     23472     23473     23469     23475     23472     23474
     23469     23475     23472     23476     23470     23469     23475     23472
     23471     23469     23475     23472     23472     23476     23477     23478
     23472     23476     23477     23479     23472     23476     23477     23480
     23473     23472     23476     23477     23474     23472     23476     23477
     23475     23472     23476     23477     23476     23477     23480     23481
     23476     23477     23480     23482     23476     23477     23480     23488
     23477     23480     23482     23483     23477     23480     23488     23489
     23477     23480     23488     23490     23477     23480     23488     23491
     23478     23477     23480     23481     23478     23477     23480     23482
     23478     23477     23480     23488     23479     23477     23480     23481
     23479     23477     23480     23482     23479     23477     23480     23488
     23480     23482     23483     23484     23480     23482     23483     23485
     23480     23488     23491     23492     23481     23480     23482     23483
     23481     23480     23488     23489     23481     23480     23488     23490
     23481     23480     23488     23491     23482     23480     23488     23489
     23482     23480     23488     23490     23482     23480     23488     23491
     23482     23483     23485     23486     23482     23483     23485     23487
     23482     23483     23485     23497     23483     23482     23480     23488
     23483     23485     23497     23498     23483     23485     23497     23499
     23483     23485     23497     23500     23484     23483     23485     23486
     23484     23483     23485     23487     23484     23483     23485     23497
     23485     23497     23500     23501     23485     23497     23500     23502
     23485     23497     23500     23503     23486     23485     23497     23498
     23486     23485     23497     23499     23486     23485     23497     23500
     23487     23485     23497     23498     23487     23485     23497     23499
     23487     23485     23497     23500     23488     23491     23492     23493
     23488     23491     23492     23494     23489     23488     23491     23492
     23490     23488     23491     23492     23491     23492     23494     23495
     23491     23492     23494     23496     23491     23492     23494     23544
     23492     23494     23544     23545     23492     23494     23544     23546
     23492     23494     23544     23547     23493     23492     23494     23495
     23493     23492     23494     23496     23493     23492     23494     23544
     23494     23544     23547     23548     23494     23544     23547     23549
     23494     23544     23547     23550     23495     23494     23544     23545
     23495     23494     23544     23546     23495     23494     23544     23547
     23496     23494     23544     23545     23496     23494     23544     23546
     23496     23494     23544     23547     23497     23500     23503     23504
     23497     23500     23503     23505     23497     23500     23503     23506
     23498     23497     23500     23501     23498     23497     23500     23502
     23498     23497     23500     23503     23499     23497     23500     23501
     23499     23497     23500     23502     23499     23497     23500     23503
     23500     23503     23506     23507     23500     23503     23506     23508
     23500     23503     23506     23509     23501     23500     23503     23504
     23501     23500     23503     23505     23501     23500     23503     23506
     23502     23500     23503     23504     23502     23500     23503     23505
     23502     23500     23503     23506     23503     23506     23509     23510
     23503     23506     23509     23511     23503     23506     23509     23512
     23504     23503     23506     23507     23504     23503     23506     23508
     23504     23503     23506     23509     23505     23503     23506     23507
     23505     23503     23506     23508     23505     23503     23506     23509
     23506     23509     23512     23513     23506     23509     23512     23514
     23506     23509     23512     23515     23507     23506     23509     23510
     23507     23506     23509     23511     23507     23506     23509     23512
     23508     23506     23509     23510     23508     23506     23509     23511
     23508     23506     23509     23512     23509     23512     23515     23516
     23509     23512     23515     23517     23510     23509     23512     23513
     23510     23509     23512     23514     23510     23509     23512     23515
     23511     23509     23512     23513     23511     23509     23512     23514
     23511     23509     23512     23515     23512     23515     23517     23518
     23512     23515     23517     23519     23513     23512     23515     23516
     23513     23512     23515     23517     23514     23512     23515     23516
     23514     23512     23515     23517     23515     23517     23519     23520
     23515     23517     23519     23521     23515     23517     23519     23522
     23516     23515     23517     23518     23516     23515     23517     23519
     23517     23519     23522     23523     23517     23519     23522     23524
     23517     23519     23522     23525     23518     23517     23519     23520
     23518     23517     23519     23521     23518     23517     23519     23522
     23519     23522     23525     23526     23519     23522     23525     23527
     23519     23522     23525     23528     23520     23519     23522     23523
     23520     23519     23522     23524     23520     23519     23522     23525
     23521     23519     23522     23523     23521     23519     23522     23524
     23521     23519     23522     23525     23522     23525     23528     23529
     23522     23525     23528     23530     23522     23525     23528     23531
     23523     23522     23525     23526     23523     23522     23525     23527
     23523     23522     23525     23528     23524     23522     23525     23526
     23524     23522     23525     23527     23524     23522     23525     23528
     23525     23528     23531     23532     23525     23528     23531     23533
     23525     23528     23531     23534     23526     23525     23528     23529
     23526     23525     23528     23530     23526     23525     23528     23531
     23527     23525     23528     23529     23527     23525     23528     23530
     23527     23525     23528     23531     23528     23531     23534     23535
     23528     23531     23534     23536     23528     23531     23534     23537
     23529     23528     23531     23532     23529     23528     23531     23533
     23529     23528     23531     23534     23530     23528     23531     23532
     23530     23528     23531     23533     23530     23528     23531     23534
     23531     23534     23537     23538     23531     23534     23537     23539
     23531     23534     23537     23540     23532     23531     23534     23535
     23532     23531     23534     23536     23532     23531     23534     23537
     23533     23531     23534     23535     23533     23531     23534     23536
     23533     23531     23534     23537     23534     23537     23540     23541
     23534     23537     23540     23542     23534     23537     23540     23543
     23535     23534     23537     23538     23535     23534     23537     23539
     23535     23534     23537     23540     23536     23534     23537     23538
     23536     23534     23537     23539     23536     23534     23537     23540
     23538     23537     23540     23541     23538     23537     23540     23542
     23538     23537     23540     23543     23539     23537     23540     23541
     23539     23537     23540     23542     23539     23537     23540     23543
     23544     23547     23550     23551     23544     23547     23550     23552
     23544     23547     23550     23553     23545     23544     23547     23548
     23545     23544     23547     23549     23545     23544     23547     23550
     23546     23544     23547     23548     23546     23544     23547     23549
     23546     23544     23547     23550     23547     23550     23553     23554
     23547     23550     23553     23555     23547     23550     23553     23556
     23548     23547     23550     23551     23548     23547     23550     23552
     23548     23547     23550     23553     23549     23547     23550     23551
     23549     23547     23550     23552     23549     23547     23550     23553
     23550     23553     23556     23557     23550     23553     23556     23558
     23550     23553     23556     23559     23551     23550     23553     23554
     23551     23550     23553     23555     23551     23550     23553     23556
     23552     23550     23553     23554     23552     23550     23553     23555
     23552     23550     23553     23556     23553     23556     23559     23560
     23553     23556     23559     23561     23553     23556     23559     23562
     23554     23553     23556     23557     23554     23553     23556     23558
     23554     23553     23556     23559     23555     23553     23556     23557
     23555     23553     23556     23558     23555     23553     23556     23559
     23556     23559     23562     23563     23556     23559     23562     23564
     23556     23559     23562     23565     23557     23556     23559     23560
     23557     23556     23559     23561     23557     23556     23559     23562
     23558     23556     23559     23560     23558     23556     23559     23561
     23558     23556     23559     23562     23559     23562     23565     23566
     23559     23562     23565     23567     23559     23562     23565     23568
     23560     23559     23562     23563     23560     23559     23562     23564
     23560     23559     23562     23565     23561     23559     23562     23563
     23561     23559     23562     23564     23561     23559     23562     23565
     23562     23565     23568     23569     23562     23565     23568     23570
     23562     23565     23568     23571     23563     23562     23565     23566
     23563     23562     23565     23567     23563     23562     23565     23568
     23564     23562     23565     23566     23564     23562     23565     23567
     23564     23562     23565     23568     23565     23568     23571     23572
     23565     23568     23571     23573     23565     23568     23571     23574
     23566     23565     23568     23569     23566     23565     23568     23570
     23566     23565     23568     23571     23567     23565     23568     23569
     23567     23565     23568     23570     23567     23565     23568     23571
     23568     23571     23574     23575     23568     23571     23574     23576
     23568     23571     23574     23577     23569     23568     23571     23572
     23569     23568     23571     23573     23569     23568     23571     23574
     23570     23568     23571     23572     23570     23568     23571     23573
     23570     23568     23571     23574     23571     23574     23577     23578
     23571     23574     23577     23579     23571     23574     23577     23580
     23572     23571     23574     23575     23572     23571     23574     23576
     23572     23571     23574     23577     23573     23571     23574     23575
     23573     23571     23574     23576     23573     23571     23574     23577
     23574     23577     23580     23581     23574     23577     23580     23582
     23574     23577     23580     23583     23575     23574     23577     23578
     23575     23574     23577     23579     23575     23574     23577     23580
     23576     23574     23577     23578     23576     23574     23577     23579
     23576     23574     23577     23580     23577     23580     23583     23584
     23577     23580     23583     23585     23577     23580     23583     23586
     23578     23577     23580     23581     23578     23577     23580     23582
     23578     23577     23580     23583     23579     23577     23580     23581
     23579     23577     23580     23582     23579     23577     23580     23583
     23581     23580     23583     23584     23581     23580     23583     23585
     23581     23580     23583     23586     23582     23580     23583     23584
     23582     23580     23583     23585     23582     23580     23583     23586
     23587     23588     23603     23604     23587     23588     23603     23605
     23587     23588     23603     23609     23588     23587     23591     23592
     23588     23587     23591     23593     23588     23587     23591     23594
     23588     23587     23595     23596     23588     23587     23595     23597
     23588     23587     23595     23598     23588     23587     23599     23600
     23588     23587     23599     23601     23588     23587     23599     23602
     23588     23603     23609     23606     23589     23588     23587     23591
     23589     23588     23587     23595     23589     23588     23587     23599
     23589     23588     23603     23604     23589     23588     23603     23605
     23589     23588     23603     23609     23590     23588     23587     23591
     23590     23588     23587     23595     23590     23588     23587     23599
     23590     23588     23603     23604     23590     23588     23603     23605
     23590     23588     23603     23609     23591     23587     23588     23603
     23591     23587     23595     23596     23591     23587     23595     23597
     23591     23587     23595     23598     23591     23587     23599     23600
     23591     23587     23599     23601     23591     23587     23599     23602
     23592     23591     23587     23595     23592     23591     23587     23599
     23593     23591     23587     23595     23593     23591     23587     23599
     23594     23591     23587     23595     23594     23591     23587     23599
     23595     23587     23588     23603     23595     23587     23599     23600
     23595     23587     23599     23601     23595     23587     23599     23602
     23596     23595     23587     23599     23597     23595     23587     23599
     23598     23595     23587     23599     23599     23587     23588     23603
     23603     23609     23606     23607     23603     23609     23606     23608
     23603     23609     23606     23610     23604     23603     23609     23606
     23605     23603     23609     23606     23606     23610     23611     23612
     23606     23610     23611     23613     23606     23610     23611     23614
     23607     23606     23610     23611     23608     23606     23610     23611
     23609     23606     23610     23611     23610     23611     23614     23615
     23610     23611     23614     23616     23610     23611     23614     23622
     23611     23614     23616     23617     23611     23614     23622     23623
     23611     23614     23622     23624     23611     23614     23622     23625
     23612     23611     23614     23615     23612     23611     23614     23616
     23612     23611     23614     23622     23613     23611     23614     23615
     23613     23611     23614     23616     23613     23611     23614     23622
     23614     23616     23617     23618     23614     23616     23617     23619
     23614     23622     23625     23626     23615     23614     23616     23617
     23615     23614     23622     23623     23615     23614     23622     23624
     23615     23614     23622     23625     23616     23614     23622     23623
     23616     23614     23622     23624     23616     23614     23622     23625
     23616     23617     23619     23620     23616     23617     23619     23621
     23616     23617     23619     23631     23617     23616     23614     23622
     23617     23619     23631     23632     23617     23619     23631     23633
     23617     23619     23631     23634     23618     23617     23619     23620
     23618     23617     23619     23621     23618     23617     23619     23631
     23619     23631     23634     23635     23619     23631     23634     23636
     23619     23631     23634     23637     23620     23619     23631     23632
     23620     23619     23631     23633     23620     23619     23631     23634
     23621     23619     23631     23632     23621     23619     23631     23633
     23621     23619     23631     23634     23622     23625     23626     23627
     23622     23625     23626     23628     23623     23622     23625     23626
     23624     23622     23625     23626     23625     23626     23628     23629
     23625     23626     23628     23630     23625     23626     23628     23678
     23626     23628     23678     23679     23626     23628     23678     23680
     23626     23628     23678     23681     23627     23626     23628     23629
     23627     23626     23628     23630     23627     23626     23628     23678
     23628     23678     23681     23682     23628     23678     23681     23683
     23628     23678     23681     23684     23629     23628     23678     23679
     23629     23628     23678     23680     23629     23628     23678     23681
     23630     23628     23678     23679     23630     23628     23678     23680
     23630     23628     23678     23681     23631     23634     23637     23638
     23631     23634     23637     23639     23631     23634     23637     23640
     23632     23631     23634     23635     23632     23631     23634     23636
     23632     23631     23634     23637     23633     23631     23634     23635
     23633     23631     23634     23636     23633     23631     23634     23637
     23634     23637     23640     23641     23634     23637     23640     23642
     23634     23637     23640     23643     23635     23634     23637     23638
     23635     23634     23637     23639     23635     23634     23637     23640
     23636     23634     23637     23638     23636     23634     23637     23639
     23636     23634     23637     23640     23637     23640     23643     23644
     23637     23640     23643     23645     23637     23640     23643     23646
     23638     23637     23640     23641     23638     23637     23640     23642
     23638     23637     23640     23643     23639     23637     23640     23641
     23639     23637     23640     23642     23639     23637     23640     23643
     23640     23643     23646     23647     23640     23643     23646     23648
     23640     23643     23646     23649     23641     23640     23643     23644
     23641     23640     23643     23645     23641     23640     23643     23646
     23642     23640     23643     23644     23642     23640     23643     23645
     23642     23640     23643     23646     23643     23646     23649     23650
     23643     23646     23649     23651     23644     23643     23646     23647
     23644     23643     23646     23648     23644     23643     23646     23649
     23645     23643     23646     23647     23645     23643     23646     23648
     23645     23643     23646     23649     23646     23649     23651     23652
     23646     23649     23651     23653     23647     23646     23649     23650
     23647     23646     23649     23651     23648     23646     23649     23650
     23648     23646     23649     23651     23649     23651     23653     23654
     23649     23651     23653     23655     23649     23651     23653     23656
     23650     23649     23651     23652     23650     23649     23651     23653
     23651     23653     23656     23657     23651     23653     23656     23658
     23651     23653     23656     23659     23652     23651     23653     23654
     23652     23651     23653     23655     23652     23651     23653     23656
     23653     23656     23659     23660     23653     23656     23659     23661
     23653     23656     23659     23662     23654     23653     23656     23657
     23654     23653     23656     23658     23654     23653     23656     23659
     23655     23653     23656     23657     23655     23653     23656     23658
     23655     23653     23656     23659     23656     23659     23662     23663
     23656     23659     23662     23664     23656     23659     23662     23665
     23657     23656     23659     23660     23657     23656     23659     23661
     23657     23656     23659     23662     23658     23656     23659     23660
     23658     23656     23659     23661     23658     23656     23659     23662
     23659     23662     23665     23666     23659     23662     23665     23667
     23659     23662     23665     23668     23660     23659     23662     23663
     23660     23659     23662     23664     23660     23659     23662     23665
     23661     23659     23662     23663     23661     23659     23662     23664
     23661     23659     23662     23665     23662     23665     23668     23669
     23662     23665     23668     23670     23662     23665     23668     23671
     23663     23662     23665     23666     23663     23662     23665     23667
     23663     23662     23665     23668     23664     23662     23665     23666
     23664     23662     23665     23667     23664     23662     23665     23668
     23665     23668     23671     23672     23665     23668     23671     23673
     23665     23668     23671     23674     23666     23665     23668     23669
     23666     23665     23668     23670     23666     23665     23668     23671
     23667     23665     23668     23669     23667     23665     23668     23670
     23667     23665     23668     23671     23668     23671     23674     23675
     23668     23671     23674     23676     23668     23671     23674     23677
     23669     23668     23671     23672     23669     23668     23671     23673
     23669     23668     23671     23674     23670     23668     23671     23672
     23670     23668     23671     23673     23670     23668     23671     23674
     23672     23671     23674     23675     23672     23671     23674     23676
     23672     23671     23674     23677     23673     23671     23674     23675
     23673     23671     23674     23676     23673     23671     23674     23677
     23678     23681     23684     23685     23678     23681     23684     23686
     23678     23681     23684     23687     23679     23678     23681     23682
     23679     23678     23681     23683     23679     23678     23681     23684
     23680     23678     23681     23682     23680     23678     23681     23683
     23680     23678     23681     23684     23681     23684     23687     23688
     23681     23684     23687     23689     23681     23684     23687     23690
     23682     23681     23684     23685     23682     23681     23684     23686
     23682     23681     23684     23687     23683     23681     23684     23685
     23683     23681     23684     23686     23683     23681     23684     23687
     23684     23687     23690     23691     23684     23687     23690     23692
     23684     23687     23690     23693     23685     23684     23687     23688
     23685     23684     23687     23689     23685     23684     23687     23690
     23686     23684     23687     23688     23686     23684     23687     23689
     23686     23684     23687     23690     23687     23690     23693     23694
     23687     23690     23693     23695     23687     23690     23693     23696
     23688     23687     23690     23691     23688     23687     23690     23692
     23688     23687     23690     23693     23689     23687     23690     23691
     23689     23687     23690     23692     23689     23687     23690     23693
     23690     23693     23696     23697     23690     23693     23696     23698
     23690     23693     23696     23699     23691     23690     23693     23694
     23691     23690     23693     23695     23691     23690     23693     23696
     23692     23690     23693     23694     23692     23690     23693     23695
     23692     23690     23693     23696     23693     23696     23699     23700
     23693     23696     23699     23701     23693     23696     23699     23702
     23694     23693     23696     23697     23694     23693     23696     23698
     23694     23693     23696     23699     23695     23693     23696     23697
     23695     23693     23696     23698     23695     23693     23696     23699
     23696     23699     23702     23703     23696     23699     23702     23704
     23696     23699     23702     23705     23697     23696     23699     23700
     23697     23696     23699     23701     23697     23696     23699     23702
     23698     23696     23699     23700     23698     23696     23699     23701
     23698     23696     23699     23702     23699     23702     23705     23706
     23699     23702     23705     23707     23699     23702     23705     23708
     23700     23699     23702     23703     23700     23699     23702     23704
     23700     23699     23702     23705     23701     23699     23702     23703
     23701     23699     23702     23704     23701     23699     23702     23705
     23702     23705     23708     23709     23702     23705     23708     23710
     23702     23705     23708     23711     23703     23702     23705     23706
     23703     23702     23705     23707     23703     23702     23705     23708
     23704     23702     23705     23706     23704     23702     23705     23707
     23704     23702     23705     23708     23705     23708     23711     23712
     23705     23708     23711     23713     23705     23708     23711     23714
     23706     23705     23708     23709     23706     23705     23708     23710
     23706     23705     23708     23711     23707     23705     23708     23709
     23707     23705     23708     23710     23707     23705     23708     23711
     23708     23711     23714     23715     23708     23711     23714     23716
     23708     23711     23714     23717     23709     23708     23711     23712
     23709     23708     23711     23713     23709     23708     23711     23714
     23710     23708     23711     23712     23710     23708     23711     23713
     23710     23708     23711     23714     23711     23714     23717     23718
     23711     23714     23717     23719     23711     23714     23717     23720
     23712     23711     23714     23715     23712     23711     23714     23716
     23712     23711     23714     23717     23713     23711     23714     23715
     23713     23711     23714     23716     23713     23711     23714     23717
     23715     23714     23717     23718     23715     23714     23717     23719
     23715     23714     23717     23720     23716     23714     23717     23718
     23716     23714     23717     23719     23716     23714     23717     23720
     23721     23722     23737     23738     23721     23722     23737     23739
     23721     23722     23737     23743     23722     23721     23725     23726
     23722     23721     23725     23727     23722     23721     23725     23728
     23722     23721     23729     23730     23722     23721     23729     23731
     23722     23721     23729     23732     23722     23721     23733     23734
     23722     23721     23733     23735     23722     23721     23733     23736
     23722     23737     23743     23740     23723     23722     23721     23725
     23723     23722     23721     23729     23723     23722     23721     23733
     23723     23722     23737     23738     23723     23722     23737     23739
     23723     23722     23737     23743     23724     23722     23721     23725
     23724     23722     23721     23729     23724     23722     23721     23733
     23724     23722     23737     23738     23724     23722     23737     23739
     23724     23722     23737     23743     23725     23721     23722     23737
     23725     23721     23729     23730     23725     23721     23729     23731
     23725     23721     23729     23732     23725     23721     23733     23734
     23725     23721     23733     23735     23725     23721     23733     23736
     23726     23725     23721     23729     23726     23725     23721     23733
     23727     23725     23721     23729     23727     23725     23721     23733
     23728     23725     23721     23729     23728     23725     23721     23733
     23729     23721     23722     23737     23729     23721     23733     23734
     23729     23721     23733     23735     23729     23721     23733     23736
     23730     23729     23721     23733     23731     23729     23721     23733
     23732     23729     23721     23733     23733     23721     23722     23737
     23737     23743     23740     23741     23737     23743     23740     23742
     23737     23743     23740     23744     23738     23737     23743     23740
     23739     23737     23743     23740     23740     23744     23745     23746
     23740     23744     23745     23747     23740     23744     23745     23748
     23741     23740     23744     23745     23742     23740     23744     23745
     23743     23740     23744     23745     23744     23745     23748     23749
     23744     23745     23748     23750     23744     23745     23748     23756
     23745     23748     23750     23751     23745     23748     23756     23757
     23745     23748     23756     23758     23745     23748     23756     23759
     23746     23745     23748     23749     23746     23745     23748     23750
     23746     23745     23748     23756     23747     23745     23748     23749
     23747     23745     23748     23750     23747     23745     23748     23756
     23748     23750     23751     23752     23748     23750     23751     23753
     23748     23756     23759     23760     23749     23748     23750     23751
     23749     23748     23756     23757     23749     23748     23756     23758
     23749     23748     23756     23759     23750     23748     23756     23757
     23750     23748     23756     23758     23750     23748     23756     23759
     23750     23751     23753     23754     23750     23751     23753     23755
     23750     23751     23753     23765     23751     23750     23748     23756
     23751     23753     23765     23766     23751     23753     23765     23767
     23751     23753     23765     23768     23752     23751     23753     23754
     23752     23751     23753     23755     23752     23751     23753     23765
     23753     23765     23768     23769     23753     23765     23768     23770
     23753     23765     23768     23771     23754     23753     23765     23766
     23754     23753     23765     23767     23754     23753     23765     23768
     23755     23753     23765     23766     23755     23753     23765     23767
     23755     23753     23765     23768     23756     23759     23760     23761
     23756     23759     23760     23762     23757     23756     23759     23760
     23758     23756     23759     23760     23759     23760     23762     23763
     23759     23760     23762     23764     23759     23760     23762     23812
     23760     23762     23812     23813     23760     23762     23812     23814
     23760     23762     23812     23815     23761     23760     23762     23763
     23761     23760     23762     23764     23761     23760     23762     23812
     23762     23812     23815     23816     23762     23812     23815     23817
     23762     23812     23815     23818     23763     23762     23812     23813
     23763     23762     23812     23814     23763     23762     23812     23815
     23764     23762     23812     23813     23764     23762     23812     23814
     23764     23762     23812     23815     23765     23768     23771     23772
     23765     23768     23771     23773     23765     23768     23771     23774
     23766     23765     23768     23769     23766     23765     23768     23770
     23766     23765     23768     23771     23767     23765     23768     23769
     23767     23765     23768     23770     23767     23765     23768     23771
     23768     23771     23774     23775     23768     23771     23774     23776
     23768     23771     23774     23777     23769     23768     23771     23772
     23769     23768     23771     23773     23769     23768     23771     23774
     23770     23768     23771     23772     23770     23768     23771     23773
     23770     23768     23771     23774     23771     23774     23777     23778
     23771     23774     23777     23779     23771     23774     23777     23780
     23772     23771     23774     23775     23772     23771     23774     23776
     23772     23771     23774     23777     23773     23771     23774     23775
     23773     23771     23774     23776     23773     23771     23774     23777
     23774     23777     23780     23781     23774     23777     23780     23782
     23774     23777     23780     23783     23775     23774     23777     23778
     23775     23774     23777     23779     23775     23774     23777     23780
     23776     23774     23777     23778     23776     23774     23777     23779
     23776     23774     23777     23780     23777     23780     23783     23784
     23777     23780     23783     23785     23778     23777     23780     23781
     23778     23777     23780     23782     23778     23777     23780     23783
     23779     23777     23780     23781     23779     23777     23780     23782
     23779     23777     23780     23783     23780     23783     23785     23786
     23780     23783     23785     23787     23781     23780     23783     23784
     23781     23780     23783     23785     23782     23780     23783     23784
     23782     23780     23783     23785     23783     23785     23787     23788
     23783     23785     23787     23789     23783     23785     23787     23790
     23784     23783     23785     23786     23784     23783     23785     23787
     23785     23787     23790     23791     23785     23787     23790     23792
     23785     23787     23790     23793     23786     23785     23787     23788
     23786     23785     23787     23789     23786     23785     23787     23790
     23787     23790     23793     23794     23787     23790     23793     23795
     23787     23790     23793     23796     23788     23787     23790     23791
     23788     23787     23790     23792     23788     23787     23790     23793
     23789     23787     23790     23791     23789     23787     23790     23792
     23789     23787     23790     23793     23790     23793     23796     23797
     23790     23793     23796     23798     23790     23793     23796     23799
     23791     23790     23793     23794     23791     23790     23793     23795
     23791     23790     23793     23796     23792     23790     23793     23794
     23792     23790     23793     23795     23792     23790     23793     23796
     23793     23796     23799     23800     23793     23796     23799     23801
     23793     23796     23799     23802     23794     23793     23796     23797
     23794     23793     23796     23798     23794     23793     23796     23799
     23795     23793     23796     23797     23795     23793     23796     23798
     23795     23793     23796     23799     23796     23799     23802     23803
     23796     23799     23802     23804     23796     23799     23802     23805
     23797     23796     23799     23800     23797     23796     23799     23801
     23797     23796     23799     23802     23798     23796     23799     23800
     23798     23796     23799     23801     23798     23796     23799     23802
     23799     23802     23805     23806     23799     23802     23805     23807
     23799     23802     23805     23808     23800     23799     23802     23803
     23800     23799     23802     23804     23800     23799     23802     23805
     23801     23799     23802     23803     23801     23799     23802     23804
     23801     23799     23802     23805     23802     23805     23808     23809
     23802     23805     23808     23810     23802     23805     23808     23811
     23803     23802     23805     23806     23803     23802     23805     23807
     23803     23802     23805     23808     23804     23802     23805     23806
     23804     23802     23805     23807     23804     23802     23805     23808
     23806     23805     23808     23809     23806     23805     23808     23810
     23806     23805     23808     23811     23807     23805     23808     23809
     23807     23805     23808     23810     23807     23805     23808     23811
     23812     23815     23818     23819     23812     23815     23818     23820
     23812     23815     23818     23821     23813     23812     23815     23816
     23813     23812     23815     23817     23813     23812     23815     23818
     23814     23812     23815     23816     23814     23812     23815     23817
     23814     23812     23815     23818     23815     23818     23821     23822
     23815     23818     23821     23823     23815     23818     23821     23824
     23816     23815     23818     23819     23816     23815     23818     23820
     23816     23815     23818     23821     23817     23815     23818     23819
     23817     23815     23818     23820     23817     23815     23818     23821
     23818     23821     23824     23825     23818     23821     23824     23826
     23818     23821     23824     23827     23819     23818     23821     23822
     23819     23818     23821     23823     23819     23818     23821     23824
     23820     23818     23821     23822     23820     23818     23821     23823
     23820     23818     23821     23824     23821     23824     23827     23828
     23821     23824     23827     23829     23821     23824     23827     23830
     23822     23821     23824     23825     23822     23821     23824     23826
     23822     23821     23824     23827     23823     23821     23824     23825
     23823     23821     23824     23826     23823     23821     23824     23827
     23824     23827     23830     23831     23824     23827     23830     23832
     23824     23827     23830     23833     23825     23824     23827     23828
     23825     23824     23827     23829     23825     23824     23827     23830
     23826     23824     23827     23828     23826     23824     23827     23829
     23826     23824     23827     23830     23827     23830     23833     23834
     23827     23830     23833     23835     23827     23830     23833     23836
     23828     23827     23830     23831     23828     23827     23830     23832
     23828     23827     23830     23833     23829     23827     23830     23831
     23829     23827     23830     23832     23829     23827     23830     23833
     23830     23833     23836     23837     23830     23833     23836     23838
     23830     23833     23836     23839     23831     23830     23833     23834
     23831     23830     23833     23835     23831     23830     23833     23836
     23832     23830     23833     23834     23832     23830     23833     23835
     23832     23830     23833     23836     23833     23836     23839     23840
     23833     23836     23839     23841     23833     23836     23839     23842
     23834     23833     23836     23837     23834     23833     23836     23838
     23834     23833     23836     23839     23835     23833     23836     23837
     23835     23833     23836     23838     23835     23833     23836     23839
     23836     23839     23842     23843     23836     23839     23842     23844
     23836     23839     23842     23845     23837     23836     23839     23840
     23837     23836     23839     23841     23837     23836     23839     23842
     23838     23836     23839     23840     23838     23836     23839     23841
     23838     23836     23839     23842     23839     23842     23845     23846
     23839     23842     23845     23847     23839     23842     23845     23848
     23840     23839     23842     23843     23840     23839     23842     23844
     23840     23839     23842     23845     23841     23839     23842     23843
     23841     23839     23842     23844     23841     23839     23842     23845
     23842     23845     23848     23849     23842     23845     23848     23850
     23842     23845     23848     23851     23843     23842     23845     23846
     23843     23842     23845     23847     23843     23842     23845     23848
     23844     23842     23845     23846     23844     23842     23845     23847
     23844     23842     23845     23848     23845     23848     23851     23852
     23845     23848     23851     23853     23845     23848     23851     23854
     23846     23845     23848     23849     23846     23845     23848     23850
     23846     23845     23848     23851     23847     23845     23848     23849
     23847     23845     23848     23850     23847     23845     23848     23851
     23849     23848     23851     23852     23849     23848     23851     23853
     23849     23848     23851     23854     23850     23848     23851     23852
     23850     23848     23851     23853     23850     23848     23851     23854
     23855     23856     23871     23872     23855     23856     23871     23873
     23855     23856     23871     23877     23856     23855     23859     23860
     23856     23855     23859     23861     23856     23855     23859     23862
     23856     23855     23863     23864     23856     23855     23863     23865
     23856     23855     23863     23866     23856     23855     23867     23868
     23856     23855     23867     23869     23856     23855     23867     23870
     23856     23871     23877     23874     23857     23856     23855     23859
     23857     23856     23855     23863     23857     23856     23855     23867
     23857     23856     23871     23872     23857     23856     23871     23873
     23857     23856     23871     23877     23858     23856     23855     23859
     23858     23856     23855     23863     23858     23856     23855     23867
     23858     23856     23871     23872     23858     23856     23871     23873
     23858     23856     23871     23877     23859     23855     23856     23871
     23859     23855     23863     23864     23859     23855     23863     23865
     23859     23855     23863     23866     23859     23855     23867     23868
     23859     23855     23867     23869     23859     23855     23867     23870
     23860     23859     23855     23863     23860     23859     23855     23867
     23861     23859     23855     23863     23861     23859     23855     23867
     23862     23859     23855     23863     23862     23859     23855     23867
     23863     23855     23856     23871     23863     23855     23867     23868
     23863     23855     23867     23869     23863     23855     23867     23870
     23864     23863     23855     23867     23865     23863     23855     23867
     23866     23863     23855     23867     23867     23855     23856     23871
     23871     23877     23874     23875     23871     23877     23874     23876
     23871     23877     23874     23878     23872     23871     23877     23874
     23873     23871     23877     23874     23874     23878     23879     23880
     23874     23878     23879     23881     23874     23878     23879     23882
     23875     23874     23878     23879     23876     23874     23878     23879
     23877     23874     23878     23879     23878     23879     23882     23883
     23878     23879     23882     23884     23878     23879     23882     23890
     23879     23882     23884     23885     23879     23882     23890     23891
     23879     23882     23890     23892     23879     23882     23890     23893
     23880     23879     23882     23883     23880     23879     23882     23884
     23880     23879     23882     23890     23881     23879     23882     23883
     23881     23879     23882     23884     23881     23879     23882     23890
     23882     23884     23885     23886     23882     23884     23885     23887
     23882     23890     23893     23894     23883     23882     23884     23885
     23883     23882     23890     23891     23883     23882     23890     23892
     23883     23882     23890     23893     23884     23882     23890     23891
     23884     23882     23890     23892     23884     23882     23890     23893
     23884     23885     23887     23888     23884     23885     23887     23889
     23884     23885     23887     23899     23885     23884     23882     23890
     23885     23887     23899     23900     23885     23887     23899     23901
     23885     23887     23899     23902     23886     23885     23887     23888
     23886     23885     23887     23889     23886     23885     23887     23899
     23887     23899     23902     23903     23887     23899     23902     23904
     23887     23899     23902     23905     23888     23887     23899     23900
     23888     23887     23899     23901     23888     23887     23899     23902
     23889     23887     23899     23900     23889     23887     23899     23901
     23889     23887     23899     23902     23890     23893     23894     23895
     23890     23893     23894     23896     23891     23890     23893     23894
     23892     23890     23893     23894     23893     23894     23896     23897
     23893     23894     23896     23898     23893     23894     23896     23946
     23894     23896     23946     23947     23894     23896     23946     23948
     23894     23896     23946     23949     23895     23894     23896     23897
     23895     23894     23896     23898     23895     23894     23896     23946
     23896     23946     23949     23950     23896     23946     23949     23951
     23896     23946     23949     23952     23897     23896     23946     23947
     23897     23896     23946     23948     23897     23896     23946     23949
     23898     23896     23946     23947     23898     23896     23946     23948
     23898     23896     23946     23949     23899     23902     23905     23906
     23899     23902     23905     23907     23899     23902     23905     23908
     23900     23899     23902     23903     23900     23899     23902     23904
     23900     23899     23902     23905     23901     23899     23902     23903
     23901     23899     23902     23904     23901     23899     23902     23905
     23902     23905     23908     23909     23902     23905     23908     23910
     23902     23905     23908     23911     23903     23902     23905     23906
     23903     23902     23905     23907     23903     23902     23905     23908
     23904     23902     23905     23906     23904     23902     23905     23907
     23904     23902     23905     23908     23905     23908     23911     23912
     23905     23908     23911     23913     23905     23908     23911     23914
     23906     23905     23908     23909     23906     23905     23908     23910
     23906     23905     23908     23911     23907     23905     23908     23909
     23907     23905     23908     23910     23907     23905     23908     23911
     23908     23911     23914     23915     23908     23911     23914     23916
     23908     23911     23914     23917     23909     23908     23911     23912
     23909     23908     23911     23913     23909     23908     23911     23914
     23910     23908     23911     23912     23910     23908     23911     23913
     23910     23908     23911     23914     23911     23914     23917     23918
     23911     23914     23917     23919     23912     23911     23914     23915
     23912     23911     23914     23916     23912     23911     23914     23917
     23913     23911     23914     23915     23913     23911     23914     23916
     23913     23911     23914     23917     23914     23917     23919     23920
     23914     23917     23919     23921     23915     23914     23917     23918
     23915     23914     23917     23919     23916     23914     23917     23918
     23916     23914     23917     23919     23917     23919     23921     23922
     23917     23919     23921     23923     23917     23919     23921     23924
     23918     23917     23919     23920     23918     23917     23919     23921
     23919     23921     23924     23925     23919     23921     23924     23926
     23919     23921     23924     23927     23920     23919     23921     23922
     23920     23919     23921     23923     23920     23919     23921     23924
     23921     23924     23927     23928     23921     23924     23927     23929
     23921     23924     23927     23930     23922     23921     23924     23925
     23922     23921     23924     23926     23922     23921     23924     23927
     23923     23921     23924     23925     23923     23921     23924     23926
     23923     23921     23924     23927     23924     23927     23930     23931
     23924     23927     23930     23932     23924     23927     23930     23933
     23925     23924     23927     23928     23925     23924     23927     23929
     23925     23924     23927     23930     23926     23924     23927     23928
     23926     23924     23927     23929     23926     23924     23927     23930
     23927     23930     23933     23934     23927     23930     23933     23935
     23927     23930     23933     23936     23928     23927     23930     23931
     23928     23927     23930     23932     23928     23927     23930     23933
     23929     23927     23930     23931     23929     23927     23930     23932
     23929     23927     23930     23933     23930     23933     23936     23937
     23930     23933     23936     23938     23930     23933     23936     23939
     23931     23930     23933     23934     23931     23930     23933     23935
     23931     23930     23933     23936     23932     23930     23933     23934
     23932     23930     23933     23935     23932     23930     23933     23936
     23933     23936     23939     23940     23933     23936     23939     23941
     23933     23936     23939     23942     23934     23933     23936     23937
     23934     23933     23936     23938     23934     23933     23936     23939
     23935     23933     23936     23937     23935     23933     23936     23938
     23935     23933     23936     23939     23936     23939     23942     23943
     23936     23939     23942     23944     23936     23939     23942     23945
     23937     23936     23939     23940     23937     23936     23939     23941
     23937     23936     23939     23942     23938     23936     23939     23940
     23938     23936     23939     23941     23938     23936     23939     23942
     23940     23939     23942     23943     23940     23939     23942     23944
     23940     23939     23942     23945     23941     23939     23942     23943
     23941     23939     23942     23944     23941     23939     23942     23945
     23946     23949     23952     23953     23946     23949     23952     23954
     23946     23949     23952     23955     23947     23946     23949     23950
     23947     23946     23949     23951     23947     23946     23949     23952
     23948     23946     23949     23950     23948     23946     23949     23951
     23948     23946     23949     23952     23949     23952     23955     23956
     23949     23952     23955     23957     23949     23952     23955     23958
     23950     23949     23952     23953     23950     23949     23952     23954
     23950     23949     23952     23955     23951     23949     23952     23953
     23951     23949     23952     23954     23951     23949     23952     23955
     23952     23955     23958     23959     23952     23955     23958     23960
     23952     23955     23958     23961     23953     23952     23955     23956
     23953     23952     23955     23957     23953     23952     23955     23958
     23954     23952     23955     23956     23954     23952     23955     23957
     23954     23952     23955     23958     23955     23958     23961     23962
     23955     23958     23961     23963     23955     23958     23961     23964
     23956     23955     23958     23959     23956     23955     23958     23960
     23956     23955     23958     23961     23957     23955     23958     23959
     23957     23955     23958     23960     23957     23955     23958     23961
     23958     23961     23964     23965     23958     23961     23964     23966
     23958     23961     23964     23967     23959     23958     23961     23962
     23959     23958     23961     23963     23959     23958     23961     23964
     23960     23958     23961     23962     23960     23958     23961     23963
     23960     23958     23961     23964     23961     23964     23967     23968
     23961     23964     23967     23969     23961     23964     23967     23970
     23962     23961     23964     23965     23962     23961     23964     23966
     23962     23961     23964     23967     23963     23961     23964     23965
     23963     23961     23964     23966     23963     23961     23964     23967
     23964     23967     23970     23971     23964     23967     23970     23972
     23964     23967     23970     23973     23965     23964     23967     23968
     23965     23964     23967     23969     23965     23964     23967     23970
     23966     23964     23967     23968     23966     23964     23967     23969
     23966     23964     23967     23970     23967     23970     23973     23974
     23967     23970     23973     23975     23967     23970     23973     23976
     23968     23967     23970     23971     23968     23967     23970     23972
     23968     23967     23970     23973     23969     23967     23970     23971
     23969     23967     23970     23972     23969     23967     23970     23973
     23970     23973     23976     23977     23970     23973     23976     23978
     23970     23973     23976     23979     23971     23970     23973     23974
     23971     23970     23973     23975     23971     23970     23973     23976
     23972     23970     23973     23974     23972     23970     23973     23975
     23972     23970     23973     23976     23973     23976     23979     23980
     23973     23976     23979     23981     23973     23976     23979     23982
     23974     23973     23976     23977     23974     23973     23976     23978
     23974     23973     23976     23979     23975     23973     23976     23977
     23975     23973     23976     23978     23975     23973     23976     23979
     23976     23979     23982     23983     23976     23979     23982     23984
     23976     23979     23982     23985     23977     23976     23979     23980
     23977     23976     23979     23981     23977     23976     23979     23982
     23978     23976     23979     23980     23978     23976     23979     23981
     23978     23976     23979     23982     23979     23982     23985     23986
     23979     23982     23985     23987     23979     23982     23985     23988
     23980     23979     23982     23983     23980     23979     23982     23984
     23980     23979     23982     23985     23981     23979     23982     23983
     23981     23979     23982     23984     23981     23979     23982     23985
     23983     23982     23985     23986     23983     23982     23985     23987
     23983     23982     23985     23988     23984     23982     23985     23986
     23984     23982     23985     23987     23984     23982     23985     23988
     23989     23990     24005     24006     23989     23990     24005     24007
     23989     23990     24005     24011     23990     23989     23993     23994
     23990     23989     23993     23995     23990     23989     23993     23996
     23990     23989     23997     23998     23990     23989     23997     23999
     23990     23989     23997     24000     23990     23989     24001     24002
     23990     23989     24001     24003     23990     23989     24001     24004
     23990     24005     24011     24008     23991     23990     23989     23993
     23991     23990     23989     23997     23991     23990     23989     24001
     23991     23990     24005     24006     23991     23990     24005     24007
     23991     23990     24005     24011     23992     23990     23989     23993
     23992     23990     23989     23997     23992     23990     23989     24001
     23992     23990     24005     24006     23992     23990     24005     24007
     23992     23990     24005     24011     23993     23989     23990     24005
     23993     23989     23997     23998     23993     23989     23997     23999
     23993     23989     23997     24000     23993     23989     24001     24002
     23993     23989     24001     24003     23993     23989     24001     24004
     23994     23993     23989     23997     23994     23993     23989     24001
     23995     23993     23989     23997     23995     23993     23989     24001
     23996     23993     23989     23997     23996     23993     23989     24001
     23997     23989     23990     24005     23997     23989     24001     24002
     23997     23989     24001     24003     23997     23989     24001     24004
     23998     23997     23989     24001     23999     23997     23989     24001
     24000     23997     23989     24001     24001     23989     23990     24005
     24005     24011     24008     24009     24005     24011     24008     24010
     24005     24011     24008     24012     24006     24005     24011     24008
     24007     24005     24011     24008     24008     24012     24013     24014
     24008     24012     24013     24015     24008     24012     24013     24016
     24009     24008     24012     24013     24010     24008     24012     24013
     24011     24008     24012     24013     24012     24013     24016     24017
     24012     24013     24016     24018     24012     24013     24016     24024
     24013     24016     24018     24019     24013     24016     24024     24025
     24013     24016     24024     24026     24013     24016     24024     24027
     24014     24013     24016     24017     24014     24013     24016     24018
     24014     24013     24016     24024     24015     24013     24016     24017
     24015     24013     24016     24018     24015     24013     24016     24024
     24016     24018     24019     24020     24016     24018     24019     24021
     24016     24024     24027     24028     24017     24016     24018     24019
     24017     24016     24024     24025     24017     24016     24024     24026
     24017     24016     24024     24027     24018     24016     24024     24025
     24018     24016     24024     24026     24018     24016     24024     24027
     24018     24019     24021     24022     24018     24019     24021     24023
     24018     24019     24021     24033     24019     24018     24016     24024
     24019     24021     24033     24034     24019     24021     24033     24035
     24019     24021     24033     24036     24020     24019     24021     24022
     24020     24019     24021     24023     24020     24019     24021     24033
     24021     24033     24036     24037     24021     24033     24036     24038
     24021     24033     24036     24039     24022     24021     24033     24034
     24022     24021     24033     24035     24022     24021     24033     24036
     24023     24021     24033     24034     24023     24021     24033     24035
     24023     24021     24033     24036     24024     24027     24028     24029
     24024     24027     24028     24030     24025     24024     24027     24028
     24026     24024     24027     24028     24027     24028     24030     24031
     24027     24028     24030     24032     24027     24028     24030     24080
     24028     24030     24080     24081     24028     24030     24080     24082
     24028     24030     24080     24083     24029     24028     24030     24031
     24029     24028     24030     24032     24029     24028     24030     24080
     24030     24080     24083     24084     24030     24080     24083     24085
     24030     24080     24083     24086     24031     24030     24080     24081
     24031     24030     24080     24082     24031     24030     24080     24083
     24032     24030     24080     24081     24032     24030     24080     24082
     24032     24030     24080     24083     24033     24036     24039     24040
     24033     24036     24039     24041     24033     24036     24039     24042
     24034     24033     24036     24037     24034     24033     24036     24038
     24034     24033     24036     24039     24035     24033     24036     24037
     24035     24033     24036     24038     24035     24033     24036     24039
     24036     24039     24042     24043     24036     24039     24042     24044
     24036     24039     24042     24045     24037     24036     24039     24040
     24037     24036     24039     24041     24037     24036     24039     24042
     24038     24036     24039     24040     24038     24036     24039     24041
     24038     24036     24039     24042     24039     24042     24045     24046
     24039     24042     24045     24047     24039     24042     24045     24048
     24040     24039     24042     24043     24040     24039     24042     24044
     24040     24039     24042     24045     24041     24039     24042     24043
     24041     24039     24042     24044     24041     24039     24042     24045
     24042     24045     24048     24049     24042     24045     24048     24050
     24042     24045     24048     24051     24043     24042     24045     24046
     24043     24042     24045     24047     24043     24042     24045     24048
     24044     24042     24045     24046     24044     24042     24045     24047
     24044     24042     24045     24048     24045     24048     24051     24052
     24045     24048     24051     24053     24046     24045     24048     24049
     24046     24045     24048     24050     24046     24045     24048     24051
     24047     24045     24048     24049     24047     24045     24048     24050
     24047     24045     24048     24051     24048     24051     24053     24054
     24048     24051     24053     24055     24049     24048     24051     24052
     24049     24048     24051     24053     24050     24048     24051     24052
     24050     24048     24051     24053     24051     24053     24055     24056
     24051     24053     24055     24057     24051     24053     24055     24058
     24052     24051     24053     24054     24052     24051     24053     24055
     24053     24055     24058     24059     24053     24055     24058     24060
     24053     24055     24058     24061     24054     24053     24055     24056
     24054     24053     24055     24057     24054     24053     24055     24058
     24055     24058     24061     24062     24055     24058     24061     24063
     24055     24058     24061     24064     24056     24055     24058     24059
     24056     24055     24058     24060     24056     24055     24058     24061
     24057     24055     24058     24059     24057     24055     24058     24060
     24057     24055     24058     24061     24058     24061     24064     24065
     24058     24061     24064     24066     24058     24061     24064     24067
     24059     24058     24061     24062     24059     24058     24061     24063
     24059     24058     24061     24064     24060     24058     24061     24062
     24060     24058     24061     24063     24060     24058     24061     24064
     24061     24064     24067     24068     24061     24064     24067     24069
     24061     24064     24067     24070     24062     24061     24064     24065
     24062     24061     24064     24066     24062     24061     24064     24067
     24063     24061     24064     24065     24063     24061     24064     24066
     24063     24061     24064     24067     24064     24067     24070     24071
     24064     24067     24070     24072     24064     24067     24070     24073
     24065     24064     24067     24068     24065     24064     24067     24069
     24065     24064     24067     24070     24066     24064     24067     24068
     24066     24064     24067     24069     24066     24064     24067     24070
     24067     24070     24073     24074     24067     24070     24073     24075
     24067     24070     24073     24076     24068     24067     24070     24071
     24068     24067     24070     24072     24068     24067     24070     24073
     24069     24067     24070     24071     24069     24067     24070     24072
     24069     24067     24070     24073     24070     24073     24076     24077
     24070     24073     24076     24078     24070     24073     24076     24079
     24071     24070     24073     24074     24071     24070     24073     24075
     24071     24070     24073     24076     24072     24070     24073     24074
     24072     24070     24073     24075     24072     24070     24073     24076
     24074     24073     24076     24077     24074     24073     24076     24078
     24074     24073     24076     24079     24075     24073     24076     24077
     24075     24073     24076     24078     24075     24073     24076     24079
     24080     24083     24086     24087     24080     24083     24086     24088
     24080     24083     24086     24089     24081     24080     24083     24084
     24081     24080     24083     24085     24081     24080     24083     24086
     24082     24080     24083     24084     24082     24080     24083     24085
     24082     24080     24083     24086     24083     24086     24089     24090
     24083     24086     24089     24091     24083     24086     24089     24092
     24084     24083     24086     24087     24084     24083     24086     24088
     24084     24083     24086     24089     24085     24083     24086     24087
     24085     24083     24086     24088     24085     24083     24086     24089
     24086     24089     24092     24093     24086     24089     24092     24094
     24086     24089     24092     24095     24087     24086     24089     24090
     24087     24086     24089     24091     24087     24086     24089     24092
     24088     24086     24089     24090     24088     24086     24089     24091
     24088     24086     24089     24092     24089     24092     24095     24096
     24089     24092     24095     24097     24089     24092     24095     24098
     24090     24089     24092     24093     24090     24089     24092     24094
     24090     24089     24092     24095     24091     24089     24092     24093
     24091     24089     24092     24094     24091     24089     24092     24095
     24092     24095     24098     24099     24092     24095     24098     24100
     24092     24095     24098     24101     24093     24092     24095     24096
     24093     24092     24095     24097     24093     24092     24095     24098
     24094     24092     24095     24096     24094     24092     24095     24097
     24094     24092     24095     24098     24095     24098     24101     24102
     24095     24098     24101     24103     24095     24098     24101     24104
     24096     24095     24098     24099     24096     24095     24098     24100
     24096     24095     24098     24101     24097     24095     24098     24099
     24097     24095     24098     24100     24097     24095     24098     24101
     24098     24101     24104     24105     24098     24101     24104     24106
     24098     24101     24104     24107     24099     24098     24101     24102
     24099     24098     24101     24103     24099     24098     24101     24104
     24100     24098     24101     24102     24100     24098     24101     24103
     24100     24098     24101     24104     24101     24104     24107     24108
     24101     24104     24107     24109     24101     24104     24107     24110
     24102     24101     24104     24105     24102     24101     24104     24106
     24102     24101     24104     24107     24103     24101     24104     24105
     24103     24101     24104     24106     24103     24101     24104     24107
     24104     24107     24110     24111     24104     24107     24110     24112
     24104     24107     24110     24113     24105     24104     24107     24108
     24105     24104     24107     24109     24105     24104     24107     24110
     24106     24104     24107     24108     24106     24104     24107     24109
     24106     24104     24107     24110     24107     24110     24113     24114
     24107     24110     24113     24115     24107     24110     24113     24116
     24108     24107     24110     24111     24108     24107     24110     24112
     24108     24107     24110     24113     24109     24107     24110     24111
     24109     24107     24110     24112     24109     24107     24110     24113
     24110     24113     24116     24117     24110     24113     24116     24118
     24110     24113     24116     24119     24111     24110     24113     24114
     24111     24110     24113     24115     24111     24110     24113     24116
     24112     24110     24113     24114     24112     24110     24113     24115
     24112     24110     24113     24116     24113     24116     24119     24120
     24113     24116     24119     24121     24113     24116     24119     24122
     24114     24113     24116     24117     24114     24113     24116     24118
     24114     24113     24116     24119     24115     24113     24116     24117
     24115     24113     24116     24118     24115     24113     24116     24119
     24117     24116     24119     24120     24117     24116     24119     24121
     24117     24116     24119     24122     24118     24116     24119     24120
     24118     24116     24119     24121     24118     24116     24119     24122
     24123     24124     24139     24140     24123     24124     24139     24141
     24123     24124     24139     24145     24124     24123     24127     24128
     24124     24123     24127     24129     24124     24123     24127     24130
     24124     24123     24131     24132     24124     24123     24131     24133
     24124     24123     24131     24134     24124     24123     24135     24136
     24124     24123     24135     24137     24124     24123     24135     24138
     24124     24139     24145     24142     24125     24124     24123     24127
     24125     24124     24123     24131     24125     24124     24123     24135
     24125     24124     24139     24140     24125     24124     24139     24141
     24125     24124     24139     24145     24126     24124     24123     24127
     24126     24124     24123     24131     24126     24124     24123     24135
     24126     24124     24139     24140     24126     24124     24139     24141
     24126     24124     24139     24145     24127     24123     24124     24139
     24127     24123     24131     24132     24127     24123     24131     24133
     24127     24123     24131     24134     24127     24123     24135     24136
     24127     24123     24135     24137     24127     24123     24135     24138
     24128     24127     24123     24131     24128     24127     24123     24135
     24129     24127     24123     24131     24129     24127     24123     24135
     24130     24127     24123     24131     24130     24127     24123     24135
     24131     24123     24124     24139     24131     24123     24135     24136
     24131     24123     24135     24137     24131     24123     24135     24138
     24132     24131     24123     24135     24133     24131     24123     24135
     24134     24131     24123     24135     24135     24123     24124     24139
     24139     24145     24142     24143     24139     24145     24142     24144
     24139     24145     24142     24146     24140     24139     24145     24142
     24141     24139     24145     24142     24142     24146     24147     24148
     24142     24146     24147     24149     24142     24146     24147     24150
     24143     24142     24146     24147     24144     24142     24146     24147
     24145     24142     24146     24147     24146     24147     24150     24151
     24146     24147     24150     24152     24146     24147     24150     24158
     24147     24150     24152     24153     24147     24150     24158     24159
     24147     24150     24158     24160     24147     24150     24158     24161
     24148     24147     24150     24151     24148     24147     24150     24152
     24148     24147     24150     24158     24149     24147     24150     24151
     24149     24147     24150     24152     24149     24147     24150     24158
     24150     24152     24153     24154     24150     24152     24153     24155
     24150     24158     24161     24162     24151     24150     24152     24153
     24151     24150     24158     24159     24151     24150     24158     24160
     24151     24150     24158     24161     24152     24150     24158     24159
     24152     24150     24158     24160     24152     24150     24158     24161
     24152     24153     24155     24156     24152     24153     24155     24157
     24152     24153     24155     24167     24153     24152     24150     24158
     24153     24155     24167     24168     24153     24155     24167     24169
     24153     24155     24167     24170     24154     24153     24155     24156
     24154     24153     24155     24157     24154     24153     24155     24167
     24155     24167     24170     24171     24155     24167     24170     24172
     24155     24167     24170     24173     24156     24155     24167     24168
     24156     24155     24167     24169     24156     24155     24167     24170
     24157     24155     24167     24168     24157     24155     24167     24169
     24157     24155     24167     24170     24158     24161     24162     24163
     24158     24161     24162     24164     24159     24158     24161     24162
     24160     24158     24161     24162     24161     24162     24164     24165
     24161     24162     24164     24166     24161     24162     24164     24214
     24162     24164     24214     24215     24162     24164     24214     24216
     24162     24164     24214     24217     24163     24162     24164     24165
     24163     24162     24164     24166     24163     24162     24164     24214
     24164     24214     24217     24218     24164     24214     24217     24219
     24164     24214     24217     24220     24165     24164     24214     24215
     24165     24164     24214     24216     24165     24164     24214     24217
     24166     24164     24214     24215     24166     24164     24214     24216
     24166     24164     24214     24217     24167     24170     24173     24174
     24167     24170     24173     24175     24167     24170     24173     24176
     24168     24167     24170     24171     24168     24167     24170     24172
     24168     24167     24170     24173     24169     24167     24170     24171
     24169     24167     24170     24172     24169     24167     24170     24173
     24170     24173     24176     24177     24170     24173     24176     24178
     24170     24173     24176     24179     24171     24170     24173     24174
     24171     24170     24173     24175     24171     24170     24173     24176
     24172     24170     24173     24174     24172     24170     24173     24175
     24172     24170     24173     24176     24173     24176     24179     24180
     24173     24176     24179     24181     24173     24176     24179     24182
     24174     24173     24176     24177     24174     24173     24176     24178
     24174     24173     24176     24179     24175     24173     24176     24177
     24175     24173     24176     24178     24175     24173     24176     24179
     24176     24179     24182     24183     24176     24179     24182     24184
     24176     24179     24182     24185     24177     24176     24179     24180
     24177     24176     24179     24181     24177     24176     24179     24182
     24178     24176     24179     24180     24178     24176     24179     24181
     24178     24176     24179     24182     24179     24182     24185     24186
     24179     24182     24185     24187     24180     24179     24182     24183
     24180     24179     24182     24184     24180     24179     24182     24185
     24181     24179     24182     24183     24181     24179     24182     24184
     24181     24179     24182     24185     24182     24185     24187     24188
     24182     24185     24187     24189     24183     24182     24185     24186
     24183     24182     24185     24187     24184     24182     24185     24186
     24184     24182     24185     24187     24185     24187     24189     24190
     24185     24187     24189     24191     24185     24187     24189     24192
     24186     24185     24187     24188     24186     24185     24187     24189
     24187     24189     24192     24193     24187     24189     24192     24194
     24187     24189     24192     24195     24188     24187     24189     24190
     24188     24187     24189     24191     24188     24187     24189     24192
     24189     24192     24195     24196     24189     24192     24195     24197
     24189     24192     24195     24198     24190     24189     24192     24193
     24190     24189     24192     24194     24190     24189     24192     24195
     24191     24189     24192     24193     24191     24189     24192     24194
     24191     24189     24192     24195     24192     24195     24198     24199
     24192     24195     24198     24200     24192     24195     24198     24201
     24193     24192     24195     24196     24193     24192     24195     24197
     24193     24192     24195     24198     24194     24192     24195     24196
     24194     24192     24195     24197     24194     24192     24195     24198
     24195     24198     24201     24202     24195     24198     24201     24203
     24195     24198     24201     24204     24196     24195     24198     24199
     24196     24195     24198     24200     24196     24195     24198     24201
     24197     24195     24198     24199     24197     24195     24198     24200
     24197     24195     24198     24201     24198     24201     24204     24205
     24198     24201     24204     24206     24198     24201     24204     24207
     24199     24198     24201     24202     24199     24198     24201     24203
     24199     24198     24201     24204     24200     24198     24201     24202
     24200     24198     24201     24203     24200     24198     24201     24204
     24201     24204     24207     24208     24201     24204     24207     24209
     24201     24204     24207     24210     24202     24201     24204     24205
     24202     24201     24204     24206     24202     24201     24204     24207
     24203     24201     24204     24205     24203     24201     24204     24206
     24203     24201     24204     24207     24204     24207     24210     24211
     24204     24207     24210     24212     24204     24207     24210     24213
     24205     24204     24207     24208     24205     24204     24207     24209
     24205     24204     24207     24210     24206     24204     24207     24208
     24206     24204     24207     24209     24206     24204     24207     24210
     24208     24207     24210     24211     24208     24207     24210     24212
     24208     24207     24210     24213     24209     24207     24210     24211
     24209     24207     24210     24212     24209     24207     24210     24213
     24214     24217     24220     24221     24214     24217     24220     24222
     24214     24217     24220     24223     24215     24214     24217     24218
     24215     24214     24217     24219     24215     24214     24217     24220
     24216     24214     24217     24218     24216     24214     24217     24219
     24216     24214     24217     24220     24217     24220     24223     24224
     24217     24220     24223     24225     24217     24220     24223     24226
     24218     24217     24220     24221     24218     24217     24220     24222
     24218     24217     24220     24223     24219     24217     24220     24221
     24219     24217     24220     24222     24219     24217     24220     24223
     24220     24223     24226     24227     24220     24223     24226     24228
     24220     24223     24226     24229     24221     24220     24223     24224
     24221     24220     24223     24225     24221     24220     24223     24226
     24222     24220     24223     24224     24222     24220     24223     24225
     24222     24220     24223     24226     24223     24226     24229     24230
     24223     24226     24229     24231     24223     24226     24229     24232
     24224     24223     24226     24227     24224     24223     24226     24228
     24224     24223     24226     24229     24225     24223     24226     24227
     24225     24223     24226     24228     24225     24223     24226     24229
     24226     24229     24232     24233     24226     24229     24232     24234
     24226     24229     24232     24235     24227     24226     24229     24230
     24227     24226     24229     24231     24227     24226     24229     24232
     24228     24226     24229     24230     24228     24226     24229     24231
     24228     24226     24229     24232     24229     24232     24235     24236
     24229     24232     24235     24237     24229     24232     24235     24238
     24230     24229     24232     24233     24230     24229     24232     24234
     24230     24229     24232     24235     24231     24229     24232     24233
     24231     24229     24232     24234     24231     24229     24232     24235
     24232     24235     24238     24239     24232     24235     24238     24240
     24232     24235     24238     24241     24233     24232     24235     24236
     24233     24232     24235     24237     24233     24232     24235     24238
     24234     24232     24235     24236     24234     24232     24235     24237
     24234     24232     24235     24238     24235     24238     24241     24242
     24235     24238     24241     24243     24235     24238     24241     24244
     24236     24235     24238     24239     24236     24235     24238     24240
     24236     24235     24238     24241     24237     24235     24238     24239
     24237     24235     24238     24240     24237     24235     24238     24241
     24238     24241     24244     24245     24238     24241     24244     24246
     24238     24241     24244     24247     24239     24238     24241     24242
     24239     24238     24241     24243     24239     24238     24241     24244
     24240     24238     24241     24242     24240     24238     24241     24243
     24240     24238     24241     24244     24241     24244     24247     24248
     24241     24244     24247     24249     24241     24244     24247     24250
     24242     24241     24244     24245     24242     24241     24244     24246
     24242     24241     24244     24247     24243     24241     24244     24245
     24243     24241     24244     24246     24243     24241     24244     24247
     24244     24247     24250     24251     24244     24247     24250     24252
     24244     24247     24250     24253     24245     24244     24247     24248
     24245     24244     24247     24249     24245     24244     24247     24250
     24246     24244     24247     24248     24246     24244     24247     24249
     24246     24244     24247     24250     24247     24250     24253     24254
     24247     24250     24253     24255     24247     24250     24253     24256
     24248     24247     24250     24251     24248     24247     24250     24252
     24248     24247     24250     24253     24249     24247     24250     24251
     24249     24247     24250     24252     24249     24247     24250     24253
     24251     24250     24253     24254     24251     24250     24253     24255
     24251     24250     24253     24256     24252     24250     24253     24254
     24252     24250     24253     24255     24252     24250     24253     24256
     24257     24258     24273     24274     24257     24258     24273     24275
     24257     24258     24273     24279     24258     24257     24261     24262
     24258     24257     24261     24263     24258     24257     24261     24264
     24258     24257     24265     24266     24258     24257     24265     24267
     24258     24257     24265     24268     24258     24257     24269     24270
     24258     24257     24269     24271     24258     24257     24269     24272
     24258     24273     24279     24276     24259     24258     24257     24261
     24259     24258     24257     24265     24259     24258     24257     24269
     24259     24258     24273     24274     24259     24258     24273     24275
     24259     24258     24273     24279     24260     24258     24257     24261
     24260     24258     24257     24265     24260     24258     24257     24269
     24260     24258     24273     24274     24260     24258     24273     24275
     24260     24258     24273     24279     24261     24257     24258     24273
     24261     24257     24265     24266     24261     24257     24265     24267
     24261     24257     24265     24268     24261     24257     24269     24270
     24261     24257     24269     24271     24261     24257     24269     24272
     24262     24261     24257     24265     24262     24261     24257     24269
     24263     24261     24257     24265     24263     24261     24257     24269
     24264     24261     24257     24265     24264     24261     24257     24269
     24265     24257     24258     24273     24265     24257     24269     24270
     24265     24257     24269     24271     24265     24257     24269     24272
     24266     24265     24257     24269     24267     24265     24257     24269
     24268     24265     24257     24269     24269     24257     24258     24273
     24273     24279     24276     24277     24273     24279     24276     24278
     24273     24279     24276     24280     24274     24273     24279     24276
     24275     24273     24279     24276     24276     24280     24281     24282
     24276     24280     24281     24283     24276     24280     24281     24284
     24277     24276     24280     24281     24278     24276     24280     24281
     24279     24276     24280     24281     24280     24281     24284     24285
     24280     24281     24284     24286     24280     24281     24284     24292
     24281     24284     24286     24287     24281     24284     24292     24293
     24281     24284     24292     24294     24281     24284     24292     24295
     24282     24281     24284     24285     24282     24281     24284     24286
     24282     24281     24284     24292     24283     24281     24284     24285
     24283     24281     24284     24286     24283     24281     24284     24292
     24284     24286     24287     24288     24284     24286     24287     24289
     24284     24292     24295     24296     24285     24284     24286     24287
     24285     24284     24292     24293     24285     24284     24292     24294
     24285     24284     24292     24295     24286     24284     24292     24293
     24286     24284     24292     24294     24286     24284     24292     24295
     24286     24287     24289     24290     24286     24287     24289     24291
     24286     24287     24289     24301     24287     24286     24284     24292
     24287     24289     24301     24302     24287     24289     24301     24303
     24287     24289     24301     24304     24288     24287     24289     24290
     24288     24287     24289     24291     24288     24287     24289     24301
     24289     24301     24304     24305     24289     24301     24304     24306
     24289     24301     24304     24307     24290     24289     24301     24302
     24290     24289     24301     24303     24290     24289     24301     24304
     24291     24289     24301     24302     24291     24289     24301     24303
     24291     24289     24301     24304     24292     24295     24296     24297
     24292     24295     24296     24298     24293     24292     24295     24296
     24294     24292     24295     24296     24295     24296     24298     24299
     24295     24296     24298     24300     24295     24296     24298     24348
     24296     24298     24348     24349     24296     24298     24348     24350
     24296     24298     24348     24351     24297     24296     24298     24299
     24297     24296     24298     24300     24297     24296     24298     24348
     24298     24348     24351     24352     24298     24348     24351     24353
     24298     24348     24351     24354     24299     24298     24348     24349
     24299     24298     24348     24350     24299     24298     24348     24351
     24300     24298     24348     24349     24300     24298     24348     24350
     24300     24298     24348     24351     24301     24304     24307     24308
     24301     24304     24307     24309     24301     24304     24307     24310
     24302     24301     24304     24305     24302     24301     24304     24306
     24302     24301     24304     24307     24303     24301     24304     24305
     24303     24301     24304     24306     24303     24301     24304     24307
     24304     24307     24310     24311     24304     24307     24310     24312
     24304     24307     24310     24313     24305     24304     24307     24308
     24305     24304     24307     24309     24305     24304     24307     24310
     24306     24304     24307     24308     24306     24304     24307     24309
     24306     24304     24307     24310     24307     24310     24313     24314
     24307     24310     24313     24315     24307     24310     24313     24316
     24308     24307     24310     24311     24308     24307     24310     24312
     24308     24307     24310     24313     24309     24307     24310     24311
     24309     24307     24310     24312     24309     24307     24310     24313
     24310     24313     24316     24317     24310     24313     24316     24318
     24310     24313     24316     24319     24311     24310     24313     24314
     24311     24310     24313     24315     24311     24310     24313     24316
     24312     24310     24313     24314     24312     24310     24313     24315
     24312     24310     24313     24316     24313     24316     24319     24320
     24313     24316     24319     24321     24314     24313     24316     24317
     24314     24313     24316     24318     24314     24313     24316     24319
     24315     24313     24316     24317     24315     24313     24316     24318
     24315     24313     24316     24319     24316     24319     24321     24322
     24316     24319     24321     24323     24317     24316     24319     24320
     24317     24316     24319     24321     24318     24316     24319     24320
     24318     24316     24319     24321     24319     24321     24323     24324
     24319     24321     24323     24325     24319     24321     24323     24326
     24320     24319     24321     24322     24320     24319     24321     24323
     24321     24323     24326     24327     24321     24323     24326     24328
     24321     24323     24326     24329     24322     24321     24323     24324
     24322     24321     24323     24325     24322     24321     24323     24326
     24323     24326     24329     24330     24323     24326     24329     24331
     24323     24326     24329     24332     24324     24323     24326     24327
     24324     24323     24326     24328     24324     24323     24326     24329
     24325     24323     24326     24327     24325     24323     24326     24328
     24325     24323     24326     24329     24326     24329     24332     24333
     24326     24329     24332     24334     24326     24329     24332     24335
     24327     24326     24329     24330     24327     24326     24329     24331
     24327     24326     24329     24332     24328     24326     24329     24330
     24328     24326     24329     24331     24328     24326     24329     24332
     24329     24332     24335     24336     24329     24332     24335     24337
     24329     24332     24335     24338     24330     24329     24332     24333
     24330     24329     24332     24334     24330     24329     24332     24335
     24331     24329     24332     24333     24331     24329     24332     24334
     24331     24329     24332     24335     24332     24335     24338     24339
     24332     24335     24338     24340     24332     24335     24338     24341
     24333     24332     24335     24336     24333     24332     24335     24337
     24333     24332     24335     24338     24334     24332     24335     24336
     24334     24332     24335     24337     24334     24332     24335     24338
     24335     24338     24341     24342     24335     24338     24341     24343
     24335     24338     24341     24344     24336     24335     24338     24339
     24336     24335     24338     24340     24336     24335     24338     24341
     24337     24335     24338     24339     24337     24335     24338     24340
     24337     24335     24338     24341     24338     24341     24344     24345
     24338     24341     24344     24346     24338     24341     24344     24347
     24339     24338     24341     24342     24339     24338     24341     24343
     24339     24338     24341     24344     24340     24338     24341     24342
     24340     24338     24341     24343     24340     24338     24341     24344
     24342     24341     24344     24345     24342     24341     24344     24346
     24342     24341     24344     24347     24343     24341     24344     24345
     24343     24341     24344     24346     24343     24341     24344     24347
     24348     24351     24354     24355     24348     24351     24354     24356
     24348     24351     24354     24357     24349     24348     24351     24352
     24349     24348     24351     24353     24349     24348     24351     24354
     24350     24348     24351     24352     24350     24348     24351     24353
     24350     24348     24351     24354     24351     24354     24357     24358
     24351     24354     24357     24359     24351     24354     24357     24360
     24352     24351     24354     24355     24352     24351     24354     24356
     24352     24351     24354     24357     24353     24351     24354     24355
     24353     24351     24354     24356     24353     24351     24354     24357
     24354     24357     24360     24361     24354     24357     24360     24362
     24354     24357     24360     24363     24355     24354     24357     24358
     24355     24354     24357     24359     24355     24354     24357     24360
     24356     24354     24357     24358     24356     24354     24357     24359
     24356     24354     24357     24360     24357     24360     24363     24364
     24357     24360     24363     24365     24357     24360     24363     24366
     24358     24357     24360     24361     24358     24357     24360     24362
     24358     24357     24360     24363     24359     24357     24360     24361
     24359     24357     24360     24362     24359     24357     24360     24363
     24360     24363     24366     24367     24360     24363     24366     24368
     24360     24363     24366     24369     24361     24360     24363     24364
     24361     24360     24363     24365     24361     24360     24363     24366
     24362     24360     24363     24364     24362     24360     24363     24365
     24362     24360     24363     24366     24363     24366     24369     24370
     24363     24366     24369     24371     24363     24366     24369     24372
     24364     24363     24366     24367     24364     24363     24366     24368
     24364     24363     24366     24369     24365     24363     24366     24367
     24365     24363     24366     24368     24365     24363     24366     24369
     24366     24369     24372     24373     24366     24369     24372     24374
     24366     24369     24372     24375     24367     24366     24369     24370
     24367     24366     24369     24371     24367     24366     24369     24372
     24368     24366     24369     24370     24368     24366     24369     24371
     24368     24366     24369     24372     24369     24372     24375     24376
     24369     24372     24375     24377     24369     24372     24375     24378
     24370     24369     24372     24373     24370     24369     24372     24374
     24370     24369     24372     24375     24371     24369     24372     24373
     24371     24369     24372     24374     24371     24369     24372     24375
     24372     24375     24378     24379     24372     24375     24378     24380
     24372     24375     24378     24381     24373     24372     24375     24376
     24373     24372     24375     24377     24373     24372     24375     24378
     24374     24372     24375     24376     24374     24372     24375     24377
     24374     24372     24375     24378     24375     24378     24381     24382
     24375     24378     24381     24383     24375     24378     24381     24384
     24376     24375     24378     24379     24376     24375     24378     24380
     24376     24375     24378     24381     24377     24375     24378     24379
     24377     24375     24378     24380     24377     24375     24378     24381
     24378     24381     24384     24385     24378     24381     24384     24386
     24378     24381     24384     24387     24379     24378     24381     24382
     24379     24378     24381     24383     24379     24378     24381     24384
     24380     24378     24381     24382     24380     24378     24381     24383
     24380     24378     24381     24384     24381     24384     24387     24388
     24381     24384     24387     24389     24381     24384     24387     24390
     24382     24381     24384     24385     24382     24381     24384     24386
     24382     24381     24384     24387     24383     24381     24384     24385
     24383     24381     24384     24386     24383     24381     24384     24387
     24385     24384     24387     24388     24385     24384     24387     24389
     24385     24384     24387     24390     24386     24384     24387     24388
     24386     24384     24387     24389     24386     24384     24387     24390
     24391     24392     24407     24408     24391     24392     24407     24409
     24391     24392     24407     24413     24392     24391     24395     24396
     24392     24391     24395     24397     24392     24391     24395     24398
     24392     24391     24399     24400     24392     24391     24399     24401
     24392     24391     24399     24402     24392     24391     24403     24404
     24392     24391     24403     24405     24392     24391     24403     24406
     24392     24407     24413     24410     24393     24392     24391     24395
     24393     24392     24391     24399     24393     24392     24391     24403
     24393     24392     24407     24408     24393     24392     24407     24409
     24393     24392     24407     24413     24394     24392     24391     24395
     24394     24392     24391     24399     24394     24392     24391     24403
     24394     24392     24407     24408     24394     24392     24407     24409
     24394     24392     24407     24413     24395     24391     24392     24407
     24395     24391     24399     24400     24395     24391     24399     24401
     24395     24391     24399     24402     24395     24391     24403     24404
     24395     24391     24403     24405     24395     24391     24403     24406
     24396     24395     24391     24399     24396     24395     24391     24403
     24397     24395     24391     24399     24397     24395     24391     24403
     24398     24395     24391     24399     24398     24395     24391     24403
     24399     24391     24392     24407     24399     24391     24403     24404
     24399     24391     24403     24405     24399     24391     24403     24406
     24400     24399     24391     24403     24401     24399     24391     24403
     24402     24399     24391     24403     24403     24391     24392     24407
     24407     24413     24410     24411     24407     24413     24410     24412
     24407     24413     24410     24414     24408     24407     24413     24410
     24409     24407     24413     24410     24410     24414     24415     24416
     24410     24414     24415     24417     24410     24414     24415     24418
     24411     24410     24414     24415     24412     24410     24414     24415
     24413     24410     24414     24415     24414     24415     24418     24419
     24414     24415     24418     24420     24414     24415     24418     24426
     24415     24418     24420     24421     24415     24418     24426     24427
     24415     24418     24426     24428     24415     24418     24426     24429
     24416     24415     24418     24419     24416     24415     24418     24420
     24416     24415     24418     24426     24417     24415     24418     24419
     24417     24415     24418     24420     24417     24415     24418     24426
     24418     24420     24421     24422     24418     24420     24421     24423
     24418     24426     24429     24430     24419     24418     24420     24421
     24419     24418     24426     24427     24419     24418     24426     24428
     24419     24418     24426     24429     24420     24418     24426     24427
     24420     24418     24426     24428     24420     24418     24426     24429
     24420     24421     24423     24424     24420     24421     24423     24425
     24420     24421     24423     24435     24421     24420     24418     24426
     24421     24423     24435     24436     24421     24423     24435     24437
     24421     24423     24435     24438     24422     24421     24423     24424
     24422     24421     24423     24425     24422     24421     24423     24435
     24423     24435     24438     24439     24423     24435     24438     24440
     24423     24435     24438     24441     24424     24423     24435     24436
     24424     24423     24435     24437     24424     24423     24435     24438
     24425     24423     24435     24436     24425     24423     24435     24437
     24425     24423     24435     24438     24426     24429     24430     24431
     24426     24429     24430     24432     24427     24426     24429     24430
     24428     24426     24429     24430     24429     24430     24432     24433
     24429     24430     24432     24434     24429     24430     24432     24482
     24430     24432     24482     24483     24430     24432     24482     24484
     24430     24432     24482     24485     24431     24430     24432     24433
     24431     24430     24432     24434     24431     24430     24432     24482
     24432     24482     24485     24486     24432     24482     24485     24487
     24432     24482     24485     24488     24433     24432     24482     24483
     24433     24432     24482     24484     24433     24432     24482     24485
     24434     24432     24482     24483     24434     24432     24482     24484
     24434     24432     24482     24485     24435     24438     24441     24442
     24435     24438     24441     24443     24435     24438     24441     24444
     24436     24435     24438     24439     24436     24435     24438     24440
     24436     24435     24438     24441     24437     24435     24438     24439
     24437     24435     24438     24440     24437     24435     24438     24441
     24438     24441     24444     24445     24438     24441     24444     24446
     24438     24441     24444     24447     24439     24438     24441     24442
     24439     24438     24441     24443     24439     24438     24441     24444
     24440     24438     24441     24442     24440     24438     24441     24443
     24440     24438     24441     24444     24441     24444     24447     24448
     24441     24444     24447     24449     24441     24444     24447     24450
     24442     24441     24444     24445     24442     24441     24444     24446
     24442     24441     24444     24447     24443     24441     24444     24445
     24443     24441     24444     24446     24443     24441     24444     24447
     24444     24447     24450     24451     24444     24447     24450     24452
     24444     24447     24450     24453     24445     24444     24447     24448
     24445     24444     24447     24449     24445     24444     24447     24450
     24446     24444     24447     24448     24446     24444     24447     24449
     24446     24444     24447     24450     24447     24450     24453     24454
     24447     24450     24453     24455     24448     24447     24450     24451
     24448     24447     24450     24452     24448     24447     24450     24453
     24449     24447     24450     24451     24449     24447     24450     24452
     24449     24447     24450     24453     24450     24453     24455     24456
     24450     24453     24455     24457     24451     24450     24453     24454
     24451     24450     24453     24455     24452     24450     24453     24454
     24452     24450     24453     24455     24453     24455     24457     24458
     24453     24455     24457     24459     24453     24455     24457     24460
     24454     24453     24455     24456     24454     24453     24455     24457
     24455     24457     24460     24461     24455     24457     24460     24462
     24455     24457     24460     24463     24456     24455     24457     24458
     24456     24455     24457     24459     24456     24455     24457     24460
     24457     24460     24463     24464     24457     24460     24463     24465
     24457     24460     24463     24466     24458     24457     24460     24461
     24458     24457     24460     24462     24458     24457     24460     24463
     24459     24457     24460     24461     24459     24457     24460     24462
     24459     24457     24460     24463     24460     24463     24466     24467
     24460     24463     24466     24468     24460     24463     24466     24469
     24461     24460     24463     24464     24461     24460     24463     24465
     24461     24460     24463     24466     24462     24460     24463     24464
     24462     24460     24463     24465     24462     24460     24463     24466
     24463     24466     24469     24470     24463     24466     24469     24471
     24463     24466     24469     24472     24464     24463     24466     24467
     24464     24463     24466     24468     24464     24463     24466     24469
     24465     24463     24466     24467     24465     24463     24466     24468
     24465     24463     24466     24469     24466     24469     24472     24473
     24466     24469     24472     24474     24466     24469     24472     24475
     24467     24466     24469     24470     24467     24466     24469     24471
     24467     24466     24469     24472     24468     24466     24469     24470
     24468     24466     24469     24471     24468     24466     24469     24472
     24469     24472     24475     24476     24469     24472     24475     24477
     24469     24472     24475     24478     24470     24469     24472     24473
     24470     24469     24472     24474     24470     24469     24472     24475
     24471     24469     24472     24473     24471     24469     24472     24474
     24471     24469     24472     24475     24472     24475     24478     24479
     24472     24475     24478     24480     24472     24475     24478     24481
     24473     24472     24475     24476     24473     24472     24475     24477
     24473     24472     24475     24478     24474     24472     24475     24476
     24474     24472     24475     24477     24474     24472     24475     24478
     24476     24475     24478     24479     24476     24475     24478     24480
     24476     24475     24478     24481     24477     24475     24478     24479
     24477     24475     24478     24480     24477     24475     24478     24481
     24482     24485     24488     24489     24482     24485     24488     24490
     24482     24485     24488     24491     24483     24482     24485     24486
     24483     24482     24485     24487     24483     24482     24485     24488
     24484     24482     24485     24486     24484     24482     24485     24487
     24484     24482     24485     24488     24485     24488     24491     24492
     24485     24488     24491     24493     24485     24488     24491     24494
     24486     24485     24488     24489     24486     24485     24488     24490
     24486     24485     24488     24491     24487     24485     24488     24489
     24487     24485     24488     24490     24487     24485     24488     24491
     24488     24491     24494     24495     24488     24491     24494     24496
     24488     24491     24494     24497     24489     24488     24491     24492
     24489     24488     24491     24493     24489     24488     24491     24494
     24490     24488     24491     24492     24490     24488     24491     24493
     24490     24488     24491     24494     24491     24494     24497     24498
     24491     24494     24497     24499     24491     24494     24497     24500
     24492     24491     24494     24495     24492     24491     24494     24496
     24492     24491     24494     24497     24493     24491     24494     24495
     24493     24491     24494     24496     24493     24491     24494     24497
     24494     24497     24500     24501     24494     24497     24500     24502
     24494     24497     24500     24503     24495     24494     24497     24498
     24495     24494     24497     24499     24495     24494     24497     24500
     24496     24494     24497     24498     24496     24494     24497     24499
     24496     24494     24497     24500     24497     24500     24503     24504
     24497     24500     24503     24505     24497     24500     24503     24506
     24498     24497     24500     24501     24498     24497     24500     24502
     24498     24497     24500     24503     24499     24497     24500     24501
     24499     24497     24500     24502     24499     24497     24500     24503
     24500     24503     24506     24507     24500     24503     24506     24508
     24500     24503     24506     24509     24501     24500     24503     24504
     24501     24500     24503     24505     24501     24500     24503     24506
     24502     24500     24503     24504     24502     24500     24503     24505
     24502     24500     24503     24506     24503     24506     24509     24510
     24503     24506     24509     24511     24503     24506     24509     24512
     24504     24503     24506     24507     24504     24503     24506     24508
     24504     24503     24506     24509     24505     24503     24506     24507
     24505     24503     24506     24508     24505     24503     24506     24509
     24506     24509     24512     24513     24506     24509     24512     24514
     24506     24509     24512     24515     24507     24506     24509     24510
     24507     24506     24509     24511     24507     24506     24509     24512
     24508     24506     24509     24510     24508     24506     24509     24511
     24508     24506     24509     24512     24509     24512     24515     24516
     24509     24512     24515     24517     24509     24512     24515     24518
     24510     24509     24512     24513     24510     24509     24512     24514
     24510     24509     24512     24515     24511     24509     24512     24513
     24511     24509     24512     24514     24511     24509     24512     24515
     24512     24515     24518     24519     24512     24515     24518     24520
     24512     24515     24518     24521     24513     24512     24515     24516
     24513     24512     24515     24517     24513     24512     24515     24518
     24514     24512     24515     24516     24514     24512     24515     24517
     24514     24512     24515     24518     24515     24518     24521     24522
     24515     24518     24521     24523     24515     24518     24521     24524
     24516     24515     24518     24519     24516     24515     24518     24520
     24516     24515     24518     24521     24517     24515     24518     24519
     24517     24515     24518     24520     24517     24515     24518     24521
     24519     24518     24521     24522     24519     24518     24521     24523
     24519     24518     24521     24524     24520     24518     24521     24522
     24520     24518     24521     24523     24520     24518     24521     24524
     24525     24526     24541     24542     24525     24526     24541     24543
     24525     24526     24541     24547     24526     24525     24529     24530
     24526     24525     24529     24531     24526     24525     24529     24532
     24526     24525     24533     24534     24526     24525     24533     24535
     24526     24525     24533     24536     24526     24525     24537     24538
     24526     24525     24537     24539     24526     24525     24537     24540
     24526     24541     24547     24544     24527     24526     24525     24529
     24527     24526     24525     24533     24527     24526     24525     24537
     24527     24526     24541     24542     24527     24526     24541     24543
     24527     24526     24541     24547     24528     24526     24525     24529
     24528     24526     24525     24533     24528     24526     24525     24537
     24528     24526     24541     24542     24528     24526     24541     24543
     24528     24526     24541     24547     24529     24525     24526     24541
     24529     24525     24533     24534     24529     24525     24533     24535
     24529     24525     24533     24536     24529     24525     24537     24538
     24529     24525     24537     24539     24529     24525     24537     24540
     24530     24529     24525     24533     24530     24529     24525     24537
     24531     24529     24525     24533     24531     24529     24525     24537
     24532     24529     24525     24533     24532     24529     24525     24537
     24533     24525     24526     24541     24533     24525     24537     24538
     24533     24525     24537     24539     24533     24525     24537     24540
     24534     24533     24525     24537     24535     24533     24525     24537
     24536     24533     24525     24537     24537     24525     24526     24541
     24541     24547     24544     24545     24541     24547     24544     24546
     24541     24547     24544     24548     24542     24541     24547     24544
     24543     24541     24547     24544     24544     24548     24549     24550
     24544     24548     24549     24551     24544     24548     24549     24552
     24545     24544     24548     24549     24546     24544     24548     24549
     24547     24544     24548     24549     24548     24549     24552     24553
     24548     24549     24552     24554     24548     24549     24552     24560
     24549     24552     24554     24555     24549     24552     24560     24561
     24549     24552     24560     24562     24549     24552     24560     24563
     24550     24549     24552     24553     24550     24549     24552     24554
     24550     24549     24552     24560     24551     24549     24552     24553
     24551     24549     24552     24554     24551     24549     24552     24560
     24552     24554     24555     24556     24552     24554     24555     24557
     24552     24560     24563     24564     24553     24552     24554     24555
     24553     24552     24560     24561     24553     24552     24560     24562
     24553     24552     24560     24563     24554     24552     24560     24561
     24554     24552     24560     24562     24554     24552     24560     24563
     24554     24555     24557     24558     24554     24555     24557     24559
     24554     24555     24557     24569     24555     24554     24552     24560
     24555     24557     24569     24570     24555     24557     24569     24571
     24555     24557     24569     24572     24556     24555     24557     24558
     24556     24555     24557     24559     24556     24555     24557     24569
     24557     24569     24572     24573     24557     24569     24572     24574
     24557     24569     24572     24575     24558     24557     24569     24570
     24558     24557     24569     24571     24558     24557     24569     24572
     24559     24557     24569     24570     24559     24557     24569     24571
     24559     24557     24569     24572     24560     24563     24564     24565
     24560     24563     24564     24566     24561     24560     24563     24564
     24562     24560     24563     24564     24563     24564     24566     24567
     24563     24564     24566     24568     24563     24564     24566     24616
     24564     24566     24616     24617     24564     24566     24616     24618
     24564     24566     24616     24619     24565     24564     24566     24567
     24565     24564     24566     24568     24565     24564     24566     24616
     24566     24616     24619     24620     24566     24616     24619     24621
     24566     24616     24619     24622     24567     24566     24616     24617
     24567     24566     24616     24618     24567     24566     24616     24619
     24568     24566     24616     24617     24568     24566     24616     24618
     24568     24566     24616     24619     24569     24572     24575     24576
     24569     24572     24575     24577     24569     24572     24575     24578
     24570     24569     24572     24573     24570     24569     24572     24574
     24570     24569     24572     24575     24571     24569     24572     24573
     24571     24569     24572     24574     24571     24569     24572     24575
     24572     24575     24578     24579     24572     24575     24578     24580
     24572     24575     24578     24581     24573     24572     24575     24576
     24573     24572     24575     24577     24573     24572     24575     24578
     24574     24572     24575     24576     24574     24572     24575     24577
     24574     24572     24575     24578     24575     24578     24581     24582
     24575     24578     24581     24583     24575     24578     24581     24584
     24576     24575     24578     24579     24576     24575     24578     24580
     24576     24575     24578     24581     24577     24575     24578     24579
     24577     24575     24578     24580     24577     24575     24578     24581
     24578     24581     24584     24585     24578     24581     24584     24586
     24578     24581     24584     24587     24579     24578     24581     24582
     24579     24578     24581     24583     24579     24578     24581     24584
     24580     24578     24581     24582     24580     24578     24581     24583
     24580     24578     24581     24584     24581     24584     24587     24588
     24581     24584     24587     24589     24582     24581     24584     24585
     24582     24581     24584     24586     24582     24581     24584     24587
     24583     24581     24584     24585     24583     24581     24584     24586
     24583     24581     24584     24587     24584     24587     24589     24590
     24584     24587     24589     24591     24585     24584     24587     24588
     24585     24584     24587     24589     24586     24584     24587     24588
     24586     24584     24587     24589     24587     24589     24591     24592
     24587     24589     24591     24593     24587     24589     24591     24594
     24588     24587     24589     24590     24588     24587     24589     24591
     24589     24591     24594     24595     24589     24591     24594     24596
     24589     24591     24594     24597     24590     24589     24591     24592
     24590     24589     24591     24593     24590     24589     24591     24594
     24591     24594     24597     24598     24591     24594     24597     24599
     24591     24594     24597     24600     24592     24591     24594     24595
     24592     24591     24594     24596     24592     24591     24594     24597
     24593     24591     24594     24595     24593     24591     24594     24596
     24593     24591     24594     24597     24594     24597     24600     24601
     24594     24597     24600     24602     24594     24597     24600     24603
     24595     24594     24597     24598     24595     24594     24597     24599
     24595     24594     24597     24600     24596     24594     24597     24598
     24596     24594     24597     24599     24596     24594     24597     24600
     24597     24600     24603     24604     24597     24600     24603     24605
     24597     24600     24603     24606     24598     24597     24600     24601
     24598     24597     24600     24602     24598     24597     24600     24603
     24599     24597     24600     24601     24599     24597     24600     24602
     24599     24597     24600     24603     24600     24603     24606     24607
     24600     24603     24606     24608     24600     24603     24606     24609
     24601     24600     24603     24604     24601     24600     24603     24605
     24601     24600     24603     24606     24602     24600     24603     24604
     24602     24600     24603     24605     24602     24600     24603     24606
     24603     24606     24609     24610     24603     24606     24609     24611
     24603     24606     24609     24612     24604     24603     24606     24607
     24604     24603     24606     24608     24604     24603     24606     24609
     24605     24603     24606     24607     24605     24603     24606     24608
     24605     24603     24606     24609     24606     24609     24612     24613
     24606     24609     24612     24614     24606     24609     24612     24615
     24607     24606     24609     24610     24607     24606     24609     24611
     24607     24606     24609     24612     24608     24606     24609     24610
     24608     24606     24609     24611     24608     24606     24609     24612
     24610     24609     24612     24613     24610     24609     24612     24614
     24610     24609     24612     24615     24611     24609     24612     24613
     24611     24609     24612     24614     24611     24609     24612     24615
     24616     24619     24622     24623     24616     24619     24622     24624
     24616     24619     24622     24625     24617     24616     24619     24620
     24617     24616     24619     24621     24617     24616     24619     24622
     24618     24616     24619     24620     24618     24616     24619     24621
     24618     24616     24619     24622     24619     24622     24625     24626
     24619     24622     24625     24627     24619     24622     24625     24628
     24620     24619     24622     24623     24620     24619     24622     24624
     24620     24619     24622     24625     24621     24619     24622     24623
     24621     24619     24622     24624     24621     24619     24622     24625
     24622     24625     24628     24629     24622     24625     24628     24630
     24622     24625     24628     24631     24623     24622     24625     24626
     24623     24622     24625     24627     24623     24622     24625     24628
     24624     24622     24625     24626     24624     24622     24625     24627
     24624     24622     24625     24628     24625     24628     24631     24632
     24625     24628     24631     24633     24625     24628     24631     24634
     24626     24625     24628     24629     24626     24625     24628     24630
     24626     24625     24628     24631     24627     24625     24628     24629
     24627     24625     24628     24630     24627     24625     24628     24631
     24628     24631     24634     24635     24628     24631     24634     24636
     24628     24631     24634     24637     24629     24628     24631     24632
     24629     24628     24631     24633     24629     24628     24631     24634
     24630     24628     24631     24632     24630     24628     24631     24633
     24630     24628     24631     24634     24631     24634     24637     24638
     24631     24634     24637     24639     24631     24634     24637     24640
     24632     24631     24634     24635     24632     24631     24634     24636
     24632     24631     24634     24637     24633     24631     24634     24635
     24633     24631     24634     24636     24633     24631     24634     24637
     24634     24637     24640     24641     24634     24637     24640     24642
     24634     24637     24640     24643     24635     24634     24637     24638
     24635     24634     24637     24639     24635     24634     24637     24640
     24636     24634     24637     24638     24636     24634     24637     24639
     24636     24634     24637     24640     24637     24640     24643     24644
     24637     24640     24643     24645     24637     24640     24643     24646
     24638     24637     24640     24641     24638     24637     24640     24642
     24638     24637     24640     24643     24639     24637     24640     24641
     24639     24637     24640     24642     24639     24637     24640     24643
     24640     24643     24646     24647     24640     24643     24646     24648
     24640     24643     24646     24649     24641     24640     24643     24644
     24641     24640     24643     24645     24641     24640     24643     24646
     24642     24640     24643     24644     24642     24640     24643     24645
     24642     24640     24643     24646     24643     24646     24649     24650
     24643     24646     24649     24651     24643     24646     24649     24652
     24644     24643     24646     24647     24644     24643     24646     24648
     24644     24643     24646     24649     24645     24643     24646     24647
     24645     24643     24646     24648     24645     24643     24646     24649
     24646     24649     24652     24653     24646     24649     24652     24654
     24646     24649     24652     24655     24647     24646     24649     24650
     24647     24646     24649     24651     24647     24646     24649     24652
     24648     24646     24649     24650     24648     24646     24649     24651
     24648     24646     24649     24652     24649     24652     24655     24656
     24649     24652     24655     24657     24649     24652     24655     24658
     24650     24649     24652     24653     24650     24649     24652     24654
     24650     24649     24652     24655     24651     24649     24652     24653
     24651     24649     24652     24654     24651     24649     24652     24655
     24653     24652     24655     24656     24653     24652     24655     24657
     24653     24652     24655     24658     24654     24652     24655     24656
     24654     24652     24655     24657     24654     24652     24655     24658
     24659     24660     24675     24676     24659     24660     24675     24677
     24659     24660     24675     24681     24660     24659     24663     24664
     24660     24659     24663     24665     24660     24659     24663     24666
     24660     24659     24667     24668     24660     24659     24667     24669
     24660     24659     24667     24670     24660     24659     24671     24672
     24660     24659     24671     24673     24660     24659     24671     24674
     24660     24675     24681     24678     24661     24660     24659     24663
     24661     24660     24659     24667     24661     24660     24659     24671
     24661     24660     24675     24676     24661     24660     24675     24677
     24661     24660     24675     24681     24662     24660     24659     24663
     24662     24660     24659     24667     24662     24660     24659     24671
     24662     24660     24675     24676     24662     24660     24675     24677
     24662     24660     24675     24681     24663     24659     24660     24675
     24663     24659     24667     24668     24663     24659     24667     24669
     24663     24659     24667     24670     24663     24659     24671     24672
     24663     24659     24671     24673     24663     24659     24671     24674
     24664     24663     24659     24667     24664     24663     24659     24671
     24665     24663     24659     24667     24665     24663     24659     24671
     24666     24663     24659     24667     24666     24663     24659     24671
     24667     24659     24660     24675     24667     24659     24671     24672
     24667     24659     24671     24673     24667     24659     24671     24674
     24668     24667     24659     24671     24669     24667     24659     24671
     24670     24667     24659     24671     24671     24659     24660     24675
     24675     24681     24678     24679     24675     24681     24678     24680
     24675     24681     24678     24682     24676     24675     24681     24678
     24677     24675     24681     24678     24678     24682     24683     24684
     24678     24682     24683     24685     24678     24682     24683     24686
     24679     24678     24682     24683     24680     24678     24682     24683
     24681     24678     24682     24683     24682     24683     24686     24687
     24682     24683     24686     24688     24682     24683     24686     24694
     24683     24686     24688     24689     24683     24686     24694     24695
     24683     24686     24694     24696     24683     24686     24694     24697
     24684     24683     24686     24687     24684     24683     24686     24688
     24684     24683     24686     24694     24685     24683     24686     24687
     24685     24683     24686     24688     24685     24683     24686     24694
     24686     24688     24689     24690     24686     24688     24689     24691
     24686     24694     24697     24698     24687     24686     24688     24689
     24687     24686     24694     24695     24687     24686     24694     24696
     24687     24686     24694     24697     24688     24686     24694     24695
     24688     24686     24694     24696     24688     24686     24694     24697
     24688     24689     24691     24692     24688     24689     24691     24693
     24688     24689     24691     24703     24689     24688     24686     24694
     24689     24691     24703     24704     24689     24691     24703     24705
     24689     24691     24703     24706     24690     24689     24691     24692
     24690     24689     24691     24693     24690     24689     24691     24703
     24691     24703     24706     24707     24691     24703     24706     24708
     24691     24703     24706     24709     24692     24691     24703     24704
     24692     24691     24703     24705     24692     24691     24703     24706
     24693     24691     24703     24704     24693     24691     24703     24705
     24693     24691     24703     24706     24694     24697     24698     24699
     24694     24697     24698     24700     24695     24694     24697     24698
     24696     24694     24697     24698     24697     24698     24700     24701
     24697     24698     24700     24702     24697     24698     24700     24750
     24698     24700     24750     24751     24698     24700     24750     24752
     24698     24700     24750     24753     24699     24698     24700     24701
     24699     24698     24700     24702     24699     24698     24700     24750
     24700     24750     24753     24754     24700     24750     24753     24755
     24700     24750     24753     24756     24701     24700     24750     24751
     24701     24700     24750     24752     24701     24700     24750     24753
     24702     24700     24750     24751     24702     24700     24750     24752
     24702     24700     24750     24753     24703     24706     24709     24710
     24703     24706     24709     24711     24703     24706     24709     24712
     24704     24703     24706     24707     24704     24703     24706     24708
     24704     24703     24706     24709     24705     24703     24706     24707
     24705     24703     24706     24708     24705     24703     24706     24709
     24706     24709     24712     24713     24706     24709     24712     24714
     24706     24709     24712     24715     24707     24706     24709     24710
     24707     24706     24709     24711     24707     24706     24709     24712
     24708     24706     24709     24710     24708     24706     24709     24711
     24708     24706     24709     24712     24709     24712     24715     24716
     24709     24712     24715     24717     24709     24712     24715     24718
     24710     24709     24712     24713     24710     24709     24712     24714
     24710     24709     24712     24715     24711     24709     24712     24713
     24711     24709     24712     24714     24711     24709     24712     24715
     24712     24715     24718     24719     24712     24715     24718     24720
     24712     24715     24718     24721     24713     24712     24715     24716
     24713     24712     24715     24717     24713     24712     24715     24718
     24714     24712     24715     24716     24714     24712     24715     24717
     24714     24712     24715     24718     24715     24718     24721     24722
     24715     24718     24721     24723     24716     24715     24718     24719
     24716     24715     24718     24720     24716     24715     24718     24721
     24717     24715     24718     24719     24717     24715     24718     24720
     24717     24715     24718     24721     24718     24721     24723     24724
     24718     24721     24723     24725     24719     24718     24721     24722
     24719     24718     24721     24723     24720     24718     24721     24722
     24720     24718     24721     24723     24721     24723     24725     24726
     24721     24723     24725     24727     24721     24723     24725     24728
     24722     24721     24723     24724     24722     24721     24723     24725
     24723     24725     24728     24729     24723     24725     24728     24730
     24723     24725     24728     24731     24724     24723     24725     24726
     24724     24723     24725     24727     24724     24723     24725     24728
     24725     24728     24731     24732     24725     24728     24731     24733
     24725     24728     24731     24734     24726     24725     24728     24729
     24726     24725     24728     24730     24726     24725     24728     24731
     24727     24725     24728     24729     24727     24725     24728     24730
     24727     24725     24728     24731     24728     24731     24734     24735
     24728     24731     24734     24736     24728     24731     24734     24737
     24729     24728     24731     24732     24729     24728     24731     24733
     24729     24728     24731     24734     24730     24728     24731     24732
     24730     24728     24731     24733     24730     24728     24731     24734
     24731     24734     24737     24738     24731     24734     24737     24739
     24731     24734     24737     24740     24732     24731     24734     24735
     24732     24731     24734     24736     24732     24731     24734     24737
     24733     24731     24734     24735     24733     24731     24734     24736
     24733     24731     24734     24737     24734     24737     24740     24741
     24734     24737     24740     24742     24734     24737     24740     24743
     24735     24734     24737     24738     24735     24734     24737     24739
     24735     24734     24737     24740     24736     24734     24737     24738
     24736     24734     24737     24739     24736     24734     24737     24740
     24737     24740     24743     24744     24737     24740     24743     24745
     24737     24740     24743     24746     24738     24737     24740     24741
     24738     24737     24740     24742     24738     24737     24740     24743
     24739     24737     24740     24741     24739     24737     24740     24742
     24739     24737     24740     24743     24740     24743     24746     24747
     24740     24743     24746     24748     24740     24743     24746     24749
     24741     24740     24743     24744     24741     24740     24743     24745
     24741     24740     24743     24746     24742     24740     24743     24744
     24742     24740     24743     24745     24742     24740     24743     24746
     24744     24743     24746     24747     24744     24743     24746     24748
     24744     24743     24746     24749     24745     24743     24746     24747
     24745     24743     24746     24748     24745     24743     24746     24749
     24750     24753     24756     24757     24750     24753     24756     24758
     24750     24753     24756     24759     24751     24750     24753     24754
     24751     24750     24753     24755     24751     24750     24753     24756
     24752     24750     24753     24754     24752     24750     24753     24755
     24752     24750     24753     24756     24753     24756     24759     24760
     24753     24756     24759     24761     24753     24756     24759     24762
     24754     24753     24756     24757     24754     24753     24756     24758
     24754     24753     24756     24759     24755     24753     24756     24757
     24755     24753     24756     24758     24755     24753     24756     24759
     24756     24759     24762     24763     24756     24759     24762     24764
     24756     24759     24762     24765     24757     24756     24759     24760
     24757     24756     24759     24761     24757     24756     24759     24762
     24758     24756     24759     24760     24758     24756     24759     24761
     24758     24756     24759     24762     24759     24762     24765     24766
     24759     24762     24765     24767     24759     24762     24765     24768
     24760     24759     24762     24763     24760     24759     24762     24764
     24760     24759     24762     24765     24761     24759     24762     24763
     24761     24759     24762     24764     24761     24759     24762     24765
     24762     24765     24768     24769     24762     24765     24768     24770
     24762     24765     24768     24771     24763     24762     24765     24766
     24763     24762     24765     24767     24763     24762     24765     24768
     24764     24762     24765     24766     24764     24762     24765     24767
     24764     24762     24765     24768     24765     24768     24771     24772
     24765     24768     24771     24773     24765     24768     24771     24774
     24766     24765     24768     24769     24766     24765     24768     24770
     24766     24765     24768     24771     24767     24765     24768     24769
     24767     24765     24768     24770     24767     24765     24768     24771
     24768     24771     24774     24775     24768     24771     24774     24776
     24768     24771     24774     24777     24769     24768     24771     24772
     24769     24768     24771     24773     24769     24768     24771     24774
     24770     24768     24771     24772     24770     24768     24771     24773
     24770     24768     24771     24774     24771     24774     24777     24778
     24771     24774     24777     24779     24771     24774     24777     24780
     24772     24771     24774     24775     24772     24771     24774     24776
     24772     24771     24774     24777     24773     24771     24774     24775
     24773     24771     24774     24776     24773     24771     24774     24777
     24774     24777     24780     24781     24774     24777     24780     24782
     24774     24777     24780     24783     24775     24774     24777     24778
     24775     24774     24777     24779     24775     24774     24777     24780
     24776     24774     24777     24778     24776     24774     24777     24779
     24776     24774     24777     24780     24777     24780     24783     24784
     24777     24780     24783     24785     24777     24780     24783     24786
     24778     24777     24780     24781     24778     24777     24780     24782
     24778     24777     24780     24783     24779     24777     24780     24781
     24779     24777     24780     24782     24779     24777     24780     24783
     24780     24783     24786     24787     24780     24783     24786     24788
     24780     24783     24786     24789     24781     24780     24783     24784
     24781     24780     24783     24785     24781     24780     24783     24786
     24782     24780     24783     24784     24782     24780     24783     24785
     24782     24780     24783     24786     24783     24786     24789     24790
     24783     24786     24789     24791     24783     24786     24789     24792
     24784     24783     24786     24787     24784     24783     24786     24788
     24784     24783     24786     24789     24785     24783     24786     24787
     24785     24783     24786     24788     24785     24783     24786     24789
     24787     24786     24789     24790     24787     24786     24789     24791
     24787     24786     24789     24792     24788     24786     24789     24790
     24788     24786     24789     24791     24788     24786     24789     24792
     24793     24794     24809     24810     24793     24794     24809     24811
     24793     24794     24809     24815     24794     24793     24797     24798
     24794     24793     24797     24799     24794     24793     24797     24800
     24794     24793     24801     24802     24794     24793     24801     24803
     24794     24793     24801     24804     24794     24793     24805     24806
     24794     24793     24805     24807     24794     24793     24805     24808
     24794     24809     24815     24812     24795     24794     24793     24797
     24795     24794     24793     24801     24795     24794     24793     24805
     24795     24794     24809     24810     24795     24794     24809     24811
     24795     24794     24809     24815     24796     24794     24793     24797
     24796     24794     24793     24801     24796     24794     24793     24805
     24796     24794     24809     24810     24796     24794     24809     24811
     24796     24794     24809     24815     24797     24793     24794     24809
     24797     24793     24801     24802     24797     24793     24801     24803
     24797     24793     24801     24804     24797     24793     24805     24806
     24797     24793     24805     24807     24797     24793     24805     24808
     24798     24797     24793     24801     24798     24797     24793     24805
     24799     24797     24793     24801     24799     24797     24793     24805
     24800     24797     24793     24801     24800     24797     24793     24805
     24801     24793     24794     24809     24801     24793     24805     24806
     24801     24793     24805     24807     24801     24793     24805     24808
     24802     24801     24793     24805     24803     24801     24793     24805
     24804     24801     24793     24805     24805     24793     24794     24809
     24809     24815     24812     24813     24809     24815     24812     24814
     24809     24815     24812     24816     24810     24809     24815     24812
     24811     24809     24815     24812     24812     24816     24817     24818
     24812     24816     24817     24819     24812     24816     24817     24820
     24813     24812     24816     24817     24814     24812     24816     24817
     24815     24812     24816     24817     24816     24817     24820     24821
     24816     24817     24820     24822     24816     24817     24820     24828
     24817     24820     24822     24823     24817     24820     24828     24829
     24817     24820     24828     24830     24817     24820     24828     24831
     24818     24817     24820     24821     24818     24817     24820     24822
     24818     24817     24820     24828     24819     24817     24820     24821
     24819     24817     24820     24822     24819     24817     24820     24828
     24820     24822     24823     24824     24820     24822     24823     24825
     24820     24828     24831     24832     24821     24820     24822     24823
     24821     24820     24828     24829     24821     24820     24828     24830
     24821     24820     24828     24831     24822     24820     24828     24829
     24822     24820     24828     24830     24822     24820     24828     24831
     24822     24823     24825     24826     24822     24823     24825     24827
     24822     24823     24825     24837     24823     24822     24820     24828
     24823     24825     24837     24838     24823     24825     24837     24839
     24823     24825     24837     24840     24824     24823     24825     24826
     24824     24823     24825     24827     24824     24823     24825     24837
     24825     24837     24840     24841     24825     24837     24840     24842
     24825     24837     24840     24843     24826     24825     24837     24838
     24826     24825     24837     24839     24826     24825     24837     24840
     24827     24825     24837     24838     24827     24825     24837     24839
     24827     24825     24837     24840     24828     24831     24832     24833
     24828     24831     24832     24834     24829     24828     24831     24832
     24830     24828     24831     24832     24831     24832     24834     24835
     24831     24832     24834     24836     24831     24832     24834     24884
     24832     24834     24884     24885     24832     24834     24884     24886
     24832     24834     24884     24887     24833     24832     24834     24835
     24833     24832     24834     24836     24833     24832     24834     24884
     24834     24884     24887     24888     24834     24884     24887     24889
     24834     24884     24887     24890     24835     24834     24884     24885
     24835     24834     24884     24886     24835     24834     24884     24887
     24836     24834     24884     24885     24836     24834     24884     24886
     24836     24834     24884     24887     24837     24840     24843     24844
     24837     24840     24843     24845     24837     24840     24843     24846
     24838     24837     24840     24841     24838     24837     24840     24842
     24838     24837     24840     24843     24839     24837     24840     24841
     24839     24837     24840     24842     24839     24837     24840     24843
     24840     24843     24846     24847     24840     24843     24846     24848
     24840     24843     24846     24849     24841     24840     24843     24844
     24841     24840     24843     24845     24841     24840     24843     24846
     24842     24840     24843     24844     24842     24840     24843     24845
     24842     24840     24843     24846     24843     24846     24849     24850
     24843     24846     24849     24851     24843     24846     24849     24852
     24844     24843     24846     24847     24844     24843     24846     24848
     24844     24843     24846     24849     24845     24843     24846     24847
     24845     24843     24846     24848     24845     24843     24846     24849
     24846     24849     24852     24853     24846     24849     24852     24854
     24846     24849     24852     24855     24847     24846     24849     24850
     24847     24846     24849     24851     24847     24846     24849     24852
     24848     24846     24849     24850     24848     24846     24849     24851
     24848     24846     24849     24852     24849     24852     24855     24856
     24849     24852     24855     24857     24850     24849     24852     24853
     24850     24849     24852     24854     24850     24849     24852     24855
     24851     24849     24852     24853     24851     24849     24852     24854
     24851     24849     24852     24855     24852     24855     24857     24858
     24852     24855     24857     24859     24853     24852     24855     24856
     24853     24852     24855     24857     24854     24852     24855     24856
     24854     24852     24855     24857     24855     24857     24859     24860
     24855     24857     24859     24861     24855     24857     24859     24862
     24856     24855     24857     24858     24856     24855     24857     24859
     24857     24859     24862     24863     24857     24859     24862     24864
     24857     24859     24862     24865     24858     24857     24859     24860
     24858     24857     24859     24861     24858     24857     24859     24862
     24859     24862     24865     24866     24859     24862     24865     24867
     24859     24862     24865     24868     24860     24859     24862     24863
     24860     24859     24862     24864     24860     24859     24862     24865
     24861     24859     24862     24863     24861     24859     24862     24864
     24861     24859     24862     24865     24862     24865     24868     24869
     24862     24865     24868     24870     24862     24865     24868     24871
     24863     24862     24865     24866     24863     24862     24865     24867
     24863     24862     24865     24868     24864     24862     24865     24866
     24864     24862     24865     24867     24864     24862     24865     24868
     24865     24868     24871     24872     24865     24868     24871     24873
     24865     24868     24871     24874     24866     24865     24868     24869
     24866     24865     24868     24870     24866     24865     24868     24871
     24867     24865     24868     24869     24867     24865     24868     24870
     24867     24865     24868     24871     24868     24871     24874     24875
     24868     24871     24874     24876     24868     24871     24874     24877
     24869     24868     24871     24872     24869     24868     24871     24873
     24869     24868     24871     24874     24870     24868     24871     24872
     24870     24868     24871     24873     24870     24868     24871     24874
     24871     24874     24877     24878     24871     24874     24877     24879
     24871     24874     24877     24880     24872     24871     24874     24875
     24872     24871     24874     24876     24872     24871     24874     24877
     24873     24871     24874     24875     24873     24871     24874     24876
     24873     24871     24874     24877     24874     24877     24880     24881
     24874     24877     24880     24882     24874     24877     24880     24883
     24875     24874     24877     24878     24875     24874     24877     24879
     24875     24874     24877     24880     24876     24874     24877     24878
     24876     24874     24877     24879     24876     24874     24877     24880
     24878     24877     24880     24881     24878     24877     24880     24882
     24878     24877     24880     24883     24879     24877     24880     24881
     24879     24877     24880     24882     24879     24877     24880     24883
     24884     24887     24890     24891     24884     24887     24890     24892
     24884     24887     24890     24893     24885     24884     24887     24888
     24885     24884     24887     24889     24885     24884     24887     24890
     24886     24884     24887     24888     24886     24884     24887     24889
     24886     24884     24887     24890     24887     24890     24893     24894
     24887     24890     24893     24895     24887     24890     24893     24896
     24888     24887     24890     24891     24888     24887     24890     24892
     24888     24887     24890     24893     24889     24887     24890     24891
     24889     24887     24890     24892     24889     24887     24890     24893
     24890     24893     24896     24897     24890     24893     24896     24898
     24890     24893     24896     24899     24891     24890     24893     24894
     24891     24890     24893     24895     24891     24890     24893     24896
     24892     24890     24893     24894     24892     24890     24893     24895
     24892     24890     24893     24896     24893     24896     24899     24900
     24893     24896     24899     24901     24893     24896     24899     24902
     24894     24893     24896     24897     24894     24893     24896     24898
     24894     24893     24896     24899     24895     24893     24896     24897
     24895     24893     24896     24898     24895     24893     24896     24899
     24896     24899     24902     24903     24896     24899     24902     24904
     24896     24899     24902     24905     24897     24896     24899     24900
     24897     24896     24899     24901     24897     24896     24899     24902
     24898     24896     24899     24900     24898     24896     24899     24901
     24898     24896     24899     24902     24899     24902     24905     24906
     24899     24902     24905     24907     24899     24902     24905     24908
     24900     24899     24902     24903     24900     24899     24902     24904
     24900     24899     24902     24905     24901     24899     24902     24903
     24901     24899     24902     24904     24901     24899     24902     24905
     24902     24905     24908     24909     24902     24905     24908     24910
     24902     24905     24908     24911     24903     24902     24905     24906
     24903     24902     24905     24907     24903     24902     24905     24908
     24904     24902     24905     24906     24904     24902     24905     24907
     24904     24902     24905     24908     24905     24908     24911     24912
     24905     24908     24911     24913     24905     24908     24911     24914
     24906     24905     24908     24909     24906     24905     24908     24910
     24906     24905     24908     24911     24907     24905     24908     24909
     24907     24905     24908     24910     24907     24905     24908     24911
     24908     24911     24914     24915     24908     24911     24914     24916
     24908     24911     24914     24917     24909     24908     24911     24912
     24909     24908     24911     24913     24909     24908     24911     24914
     24910     24908     24911     24912     24910     24908     24911     24913
     24910     24908     24911     24914     24911     24914     24917     24918
     24911     24914     24917     24919     24911     24914     24917     24920
     24912     24911     24914     24915     24912     24911     24914     24916
     24912     24911     24914     24917     24913     24911     24914     24915
     24913     24911     24914     24916     24913     24911     24914     24917
     24914     24917     24920     24921     24914     24917     24920     24922
     24914     24917     24920     24923     24915     24914     24917     24918
     24915     24914     24917     24919     24915     24914     24917     24920
     24916     24914     24917     24918     24916     24914     24917     24919
     24916     24914     24917     24920     24917     24920     24923     24924
     24917     24920     24923     24925     24917     24920     24923     24926
     24918     24917     24920     24921     24918     24917     24920     24922
     24918     24917     24920     24923     24919     24917     24920     24921
     24919     24917     24920     24922     24919     24917     24920     24923
     24921     24920     24923     24924     24921     24920     24923     24925
     24921     24920     24923     24926     24922     24920     24923     24924
     24922     24920     24923     24925     24922     24920     24923     24926
     24927     24928     24943     24944     24927     24928     24943     24945
     24927     24928     24943     24949     24928     24927     24931     24932
     24928     24927     24931     24933     24928     24927     24931     24934
     24928     24927     24935     24936     24928     24927     24935     24937
     24928     24927     24935     24938     24928     24927     24939     24940
     24928     24927     24939     24941     24928     24927     24939     24942
     24928     24943     24949     24946     24929     24928     24927     24931
     24929     24928     24927     24935     24929     24928     24927     24939
     24929     24928     24943     24944     24929     24928     24943     24945
     24929     24928     24943     24949     24930     24928     24927     24931
     24930     24928     24927     24935     24930     24928     24927     24939
     24930     24928     24943     24944     24930     24928     24943     24945
     24930     24928     24943     24949     24931     24927     24928     24943
     24931     24927     24935     24936     24931     24927     24935     24937
     24931     24927     24935     24938     24931     24927     24939     24940
     24931     24927     24939     24941     24931     24927     24939     24942
     24932     24931     24927     24935     24932     24931     24927     24939
     24933     24931     24927     24935     24933     24931     24927     24939
     24934     24931     24927     24935     24934     24931     24927     24939
     24935     24927     24928     24943     24935     24927     24939     24940
     24935     24927     24939     24941     24935     24927     24939     24942
     24936     24935     24927     24939     24937     24935     24927     24939
     24938     24935     24927     24939     24939     24927     24928     24943
     24943     24949     24946     24947     24943     24949     24946     24948
     24943     24949     24946     24950     24944     24943     24949     24946
     24945     24943     24949     24946     24946     24950     24951     24952
     24946     24950     24951     24953     24946     24950     24951     24954
     24947     24946     24950     24951     24948     24946     24950     24951
     24949     24946     24950     24951     24950     24951     24954     24955
     24950     24951     24954     24956     24950     24951     24954     24962
     24951     24954     24956     24957     24951     24954     24962     24963
     24951     24954     24962     24964     24951     24954     24962     24965
     24952     24951     24954     24955     24952     24951     24954     24956
     24952     24951     24954     24962     24953     24951     24954     24955
     24953     24951     24954     24956     24953     24951     24954     24962
     24954     24956     24957     24958     24954     24956     24957     24959
     24954     24962     24965     24966     24955     24954     24956     24957
     24955     24954     24962     24963     24955     24954     24962     24964
     24955     24954     24962     24965     24956     24954     24962     24963
     24956     24954     24962     24964     24956     24954     24962     24965
     24956     24957     24959     24960     24956     24957     24959     24961
     24956     24957     24959     24971     24957     24956     24954     24962
     24957     24959     24971     24972     24957     24959     24971     24973
     24957     24959     24971     24974     24958     24957     24959     24960
     24958     24957     24959     24961     24958     24957     24959     24971
     24959     24971     24974     24975     24959     24971     24974     24976
     24959     24971     24974     24977     24960     24959     24971     24972
     24960     24959     24971     24973     24960     24959     24971     24974
     24961     24959     24971     24972     24961     24959     24971     24973
     24961     24959     24971     24974     24962     24965     24966     24967
     24962     24965     24966     24968     24963     24962     24965     24966
     24964     24962     24965     24966     24965     24966     24968     24969
     24965     24966     24968     24970     24965     24966     24968     25018
     24966     24968     25018     25019     24966     24968     25018     25020
     24966     24968     25018     25021     24967     24966     24968     24969
     24967     24966     24968     24970     24967     24966     24968     25018
     24968     25018     25021     25022     24968     25018     25021     25023
     24968     25018     25021     25024     24969     24968     25018     25019
     24969     24968     25018     25020     24969     24968     25018     25021
     24970     24968     25018     25019     24970     24968     25018     25020
     24970     24968     25018     25021     24971     24974     24977     24978
     24971     24974     24977     24979     24971     24974     24977     24980
     24972     24971     24974     24975     24972     24971     24974     24976
     24972     24971     24974     24977     24973     24971     24974     24975
     24973     24971     24974     24976     24973     24971     24974     24977
     24974     24977     24980     24981     24974     24977     24980     24982
     24974     24977     24980     24983     24975     24974     24977     24978
     24975     24974     24977     24979     24975     24974     24977     24980
     24976     24974     24977     24978     24976     24974     24977     24979
     24976     24974     24977     24980     24977     24980     24983     24984
     24977     24980     24983     24985     24977     24980     24983     24986
     24978     24977     24980     24981     24978     24977     24980     24982
     24978     24977     24980     24983     24979     24977     24980     24981
     24979     24977     24980     24982     24979     24977     24980     24983
     24980     24983     24986     24987     24980     24983     24986     24988
     24980     24983     24986     24989     24981     24980     24983     24984
     24981     24980     24983     24985     24981     24980     24983     24986
     24982     24980     24983     24984     24982     24980     24983     24985
     24982     24980     24983     24986     24983     24986     24989     24990
     24983     24986     24989     24991     24984     24983     24986     24987
     24984     24983     24986     24988     24984     24983     24986     24989
     24985     24983     24986     24987     24985     24983     24986     24988
     24985     24983     24986     24989     24986     24989     24991     24992
     24986     24989     24991     24993     24987     24986     24989     24990
     24987     24986     24989     24991     24988     24986     24989     24990
     24988     24986     24989     24991     24989     24991     24993     24994
     24989     24991     24993     24995     24989     24991     24993     24996
     24990     24989     24991     24992     24990     24989     24991     24993
     24991     24993     24996     24997     24991     24993     24996     24998
     24991     24993     24996     24999     24992     24991     24993     24994
     24992     24991     24993     24995     24992     24991     24993     24996
     24993     24996     24999     25000     24993     24996     24999     25001
     24993     24996     24999     25002     24994     24993     24996     24997
     24994     24993     24996     24998     24994     24993     24996     24999
     24995     24993     24996     24997     24995     24993     24996     24998
     24995     24993     24996     24999     24996     24999     25002     25003
     24996     24999     25002     25004     24996     24999     25002     25005
     24997     24996     24999     25000     24997     24996     24999     25001
     24997     24996     24999     25002     24998     24996     24999     25000
     24998     24996     24999     25001     24998     24996     24999     25002
     24999     25002     25005     25006     24999     25002     25005     25007
     24999     25002     25005     25008     25000     24999     25002     25003
     25000     24999     25002     25004     25000     24999     25002     25005
     25001     24999     25002     25003     25001     24999     25002     25004
     25001     24999     25002     25005     25002     25005     25008     25009
     25002     25005     25008     25010     25002     25005     25008     25011
     25003     25002     25005     25006     25003     25002     25005     25007
     25003     25002     25005     25008     25004     25002     25005     25006
     25004     25002     25005     25007     25004     25002     25005     25008
     25005     25008     25011     25012     25005     25008     25011     25013
     25005     25008     25011     25014     25006     25005     25008     25009
     25006     25005     25008     25010     25006     25005     25008     25011
     25007     25005     25008     25009     25007     25005     25008     25010
     25007     25005     25008     25011     25008     25011     25014     25015
     25008     25011     25014     25016     25008     25011     25014     25017
     25009     25008     25011     25012     25009     25008     25011     25013
     25009     25008     25011     25014     25010     25008     25011     25012
     25010     25008     25011     25013     25010     25008     25011     25014
     25012     25011     25014     25015     25012     25011     25014     25016
     25012     25011     25014     25017     25013     25011     25014     25015
     25013     25011     25014     25016     25013     25011     25014     25017
     25018     25021     25024     25025     25018     25021     25024     25026
     25018     25021     25024     25027     25019     25018     25021     25022
     25019     25018     25021     25023     25019     25018     25021     25024
     25020     25018     25021     25022     25020     25018     25021     25023
     25020     25018     25021     25024     25021     25024     25027     25028
     25021     25024     25027     25029     25021     25024     25027     25030
     25022     25021     25024     25025     25022     25021     25024     25026
     25022     25021     25024     25027     25023     25021     25024     25025
     25023     25021     25024     25026     25023     25021     25024     25027
     25024     25027     25030     25031     25024     25027     25030     25032
     25024     25027     25030     25033     25025     25024     25027     25028
     25025     25024     25027     25029     25025     25024     25027     25030
     25026     25024     25027     25028     25026     25024     25027     25029
     25026     25024     25027     25030     25027     25030     25033     25034
     25027     25030     25033     25035     25027     25030     25033     25036
     25028     25027     25030     25031     25028     25027     25030     25032
     25028     25027     25030     25033     25029     25027     25030     25031
     25029     25027     25030     25032     25029     25027     25030     25033
     25030     25033     25036     25037     25030     25033     25036     25038
     25030     25033     25036     25039     25031     25030     25033     25034
     25031     25030     25033     25035     25031     25030     25033     25036
     25032     25030     25033     25034     25032     25030     25033     25035
     25032     25030     25033     25036     25033     25036     25039     25040
     25033     25036     25039     25041     25033     25036     25039     25042
     25034     25033     25036     25037     25034     25033     25036     25038
     25034     25033     25036     25039     25035     25033     25036     25037
     25035     25033     25036     25038     25035     25033     25036     25039
     25036     25039     25042     25043     25036     25039     25042     25044
     25036     25039     25042     25045     25037     25036     25039     25040
     25037     25036     25039     25041     25037     25036     25039     25042
     25038     25036     25039     25040     25038     25036     25039     25041
     25038     25036     25039     25042     25039     25042     25045     25046
     25039     25042     25045     25047     25039     25042     25045     25048
     25040     25039     25042     25043     25040     25039     25042     25044
     25040     25039     25042     25045     25041     25039     25042     25043
     25041     25039     25042     25044     25041     25039     25042     25045
     25042     25045     25048     25049     25042     25045     25048     25050
     25042     25045     25048     25051     25043     25042     25045     25046
     25043     25042     25045     25047     25043     25042     25045     25048
     25044     25042     25045     25046     25044     25042     25045     25047
     25044     25042     25045     25048     25045     25048     25051     25052
     25045     25048     25051     25053     25045     25048     25051     25054
     25046     25045     25048     25049     25046     25045     25048     25050
     25046     25045     25048     25051     25047     25045     25048     25049
     25047     25045     25048     25050     25047     25045     25048     25051
     25048     25051     25054     25055     25048     25051     25054     25056
     25048     25051     25054     25057     25049     25048     25051     25052
     25049     25048     25051     25053     25049     25048     25051     25054
     25050     25048     25051     25052     25050     25048     25051     25053
     25050     25048     25051     25054     25051     25054     25057     25058
     25051     25054     25057     25059     25051     25054     25057     25060
     25052     25051     25054     25055     25052     25051     25054     25056
     25052     25051     25054     25057     25053     25051     25054     25055
     25053     25051     25054     25056     25053     25051     25054     25057
     25055     25054     25057     25058     25055     25054     25057     25059
     25055     25054     25057     25060     25056     25054     25057     25058
     25056     25054     25057     25059     25056     25054     25057     25060
     25061     25062     25077     25078     25061     25062     25077     25079
     25061     25062     25077     25083     25062     25061     25065     25066
     25062     25061     25065     25067     25062     25061     25065     25068
     25062     25061     25069     25070     25062     25061     25069     25071
     25062     25061     25069     25072     25062     25061     25073     25074
     25062     25061     25073     25075     25062     25061     25073     25076
     25062     25077     25083     25080     25063     25062     25061     25065
     25063     25062     25061     25069     25063     25062     25061     25073
     25063     25062     25077     25078     25063     25062     25077     25079
     25063     25062     25077     25083     25064     25062     25061     25065
     25064     25062     25061     25069     25064     25062     25061     25073
     25064     25062     25077     25078     25064     25062     25077     25079
     25064     25062     25077     25083     25065     25061     25062     25077
     25065     25061     25069     25070     25065     25061     25069     25071
     25065     25061     25069     25072     25065     25061     25073     25074
     25065     25061     25073     25075     25065     25061     25073     25076
     25066     25065     25061     25069     25066     25065     25061     25073
     25067     25065     25061     25069     25067     25065     25061     25073
     25068     25065     25061     25069     25068     25065     25061     25073
     25069     25061     25062     25077     25069     25061     25073     25074
     25069     25061     25073     25075     25069     25061     25073     25076
     25070     25069     25061     25073     25071     25069     25061     25073
     25072     25069     25061     25073     25073     25061     25062     25077
     25077     25083     25080     25081     25077     25083     25080     25082
     25077     25083     25080     25084     25078     25077     25083     25080
     25079     25077     25083     25080     25080     25084     25085     25086
     25080     25084     25085     25087     25080     25084     25085     25088
     25081     25080     25084     25085     25082     25080     25084     25085
     25083     25080     25084     25085     25084     25085     25088     25089
     25084     25085     25088     25090     25084     25085     25088     25096
     25085     25088     25090     25091     25085     25088     25096     25097
     25085     25088     25096     25098     25085     25088     25096     25099
     25086     25085     25088     25089     25086     25085     25088     25090
     25086     25085     25088     25096     25087     25085     25088     25089
     25087     25085     25088     25090     25087     25085     25088     25096
     25088     25090     25091     25092     25088     25090     25091     25093
     25088     25096     25099     25100     25089     25088     25090     25091
     25089     25088     25096     25097     25089     25088     25096     25098
     25089     25088     25096     25099     25090     25088     25096     25097
     25090     25088     25096     25098     25090     25088     25096     25099
     25090     25091     25093     25094     25090     25091     25093     25095
     25090     25091     25093     25105     25091     25090     25088     25096
     25091     25093     25105     25106     25091     25093     25105     25107
     25091     25093     25105     25108     25092     25091     25093     25094
     25092     25091     25093     25095     25092     25091     25093     25105
     25093     25105     25108     25109     25093     25105     25108     25110
     25093     25105     25108     25111     25094     25093     25105     25106
     25094     25093     25105     25107     25094     25093     25105     25108
     25095     25093     25105     25106     25095     25093     25105     25107
     25095     25093     25105     25108     25096     25099     25100     25101
     25096     25099     25100     25102     25097     25096     25099     25100
     25098     25096     25099     25100     25099     25100     25102     25103
     25099     25100     25102     25104     25099     25100     25102     25152
     25100     25102     25152     25153     25100     25102     25152     25154
     25100     25102     25152     25155     25101     25100     25102     25103
     25101     25100     25102     25104     25101     25100     25102     25152
     25102     25152     25155     25156     25102     25152     25155     25157
     25102     25152     25155     25158     25103     25102     25152     25153
     25103     25102     25152     25154     25103     25102     25152     25155
     25104     25102     25152     25153     25104     25102     25152     25154
     25104     25102     25152     25155     25105     25108     25111     25112
     25105     25108     25111     25113     25105     25108     25111     25114
     25106     25105     25108     25109     25106     25105     25108     25110
     25106     25105     25108     25111     25107     25105     25108     25109
     25107     25105     25108     25110     25107     25105     25108     25111
     25108     25111     25114     25115     25108     25111     25114     25116
     25108     25111     25114     25117     25109     25108     25111     25112
     25109     25108     25111     25113     25109     25108     25111     25114
     25110     25108     25111     25112     25110     25108     25111     25113
     25110     25108     25111     25114     25111     25114     25117     25118
     25111     25114     25117     25119     25111     25114     25117     25120
     25112     25111     25114     25115     25112     25111     25114     25116
     25112     25111     25114     25117     25113     25111     25114     25115
     25113     25111     25114     25116     25113     25111     25114     25117
     25114     25117     25120     25121     25114     25117     25120     25122
     25114     25117     25120     25123     25115     25114     25117     25118
     25115     25114     25117     25119     25115     25114     25117     25120
     25116     25114     25117     25118     25116     25114     25117     25119
     25116     25114     25117     25120     25117     25120     25123     25124
     25117     25120     25123     25125     25118     25117     25120     25121
     25118     25117     25120     25122     25118     25117     25120     25123
     25119     25117     25120     25121     25119     25117     25120     25122
     25119     25117     25120     25123     25120     25123     25125     25126
     25120     25123     25125     25127     25121     25120     25123     25124
     25121     25120     25123     25125     25122     25120     25123     25124
     25122     25120     25123     25125     25123     25125     25127     25128
     25123     25125     25127     25129     25123     25125     25127     25130
     25124     25123     25125     25126     25124     25123     25125     25127
     25125     25127     25130     25131     25125     25127     25130     25132
     25125     25127     25130     25133     25126     25125     25127     25128
     25126     25125     25127     25129     25126     25125     25127     25130
     25127     25130     25133     25134     25127     25130     25133     25135
     25127     25130     25133     25136     25128     25127     25130     25131
     25128     25127     25130     25132     25128     25127     25130     25133
     25129     25127     25130     25131     25129     25127     25130     25132
     25129     25127     25130     25133     25130     25133     25136     25137
     25130     25133     25136     25138     25130     25133     25136     25139
     25131     25130     25133     25134     25131     25130     25133     25135
     25131     25130     25133     25136     25132     25130     25133     25134
     25132     25130     25133     25135     25132     25130     25133     25136
     25133     25136     25139     25140     25133     25136     25139     25141
     25133     25136     25139     25142     25134     25133     25136     25137
     25134     25133     25136     25138     25134     25133     25136     25139
     25135     25133     25136     25137     25135     25133     25136     25138
     25135     25133     25136     25139     25136     25139     25142     25143
     25136     25139     25142     25144     25136     25139     25142     25145
     25137     25136     25139     25140     25137     25136     25139     25141
     25137     25136     25139     25142     25138     25136     25139     25140
     25138     25136     25139     25141     25138     25136     25139     25142
     25139     25142     25145     25146     25139     25142     25145     25147
     25139     25142     25145     25148     25140     25139     25142     25143
     25140     25139     25142     25144     25140     25139     25142     25145
     25141     25139     25142     25143     25141     25139     25142     25144
     25141     25139     25142     25145     25142     25145     25148     25149
     25142     25145     25148     25150     25142     25145     25148     25151
     25143     25142     25145     25146     25143     25142     25145     25147
     25143     25142     25145     25148     25144     25142     25145     25146
     25144     25142     25145     25147     25144     25142     25145     25148
     25146     25145     25148     25149     25146     25145     25148     25150
     25146     25145     25148     25151     25147     25145     25148     25149
     25147     25145     25148     25150     25147     25145     25148     25151
     25152     25155     25158     25159     25152     25155     25158     25160
     25152     25155     25158     25161     25153     25152     25155     25156
     25153     25152     25155     25157     25153     25152     25155     25158
     25154     25152     25155     25156     25154     25152     25155     25157
     25154     25152     25155     25158     25155     25158     25161     25162
     25155     25158     25161     25163     25155     25158     25161     25164
     25156     25155     25158     25159     25156     25155     25158     25160
     25156     25155     25158     25161     25157     25155     25158     25159
     25157     25155     25158     25160     25157     25155     25158     25161
     25158     25161     25164     25165     25158     25161     25164     25166
     25158     25161     25164     25167     25159     25158     25161     25162
     25159     25158     25161     25163     25159     25158     25161     25164
     25160     25158     25161     25162     25160     25158     25161     25163
     25160     25158     25161     25164     25161     25164     25167     25168
     25161     25164     25167     25169     25161     25164     25167     25170
     25162     25161     25164     25165     25162     25161     25164     25166
     25162     25161     25164     25167     25163     25161     25164     25165
     25163     25161     25164     25166     25163     25161     25164     25167
     25164     25167     25170     25171     25164     25167     25170     25172
     25164     25167     25170     25173     25165     25164     25167     25168
     25165     25164     25167     25169     25165     25164     25167     25170
     25166     25164     25167     25168     25166     25164     25167     25169
     25166     25164     25167     25170     25167     25170     25173     25174
     25167     25170     25173     25175     25167     25170     25173     25176
     25168     25167     25170     25171     25168     25167     25170     25172
     25168     25167     25170     25173     25169     25167     25170     25171
     25169     25167     25170     25172     25169     25167     25170     25173
     25170     25173     25176     25177     25170     25173     25176     25178
     25170     25173     25176     25179     25171     25170     25173     25174
     25171     25170     25173     25175     25171     25170     25173     25176
     25172     25170     25173     25174     25172     25170     25173     25175
     25172     25170     25173     25176     25173     25176     25179     25180
     25173     25176     25179     25181     25173     25176     25179     25182
     25174     25173     25176     25177     25174     25173     25176     25178
     25174     25173     25176     25179     25175     25173     25176     25177
     25175     25173     25176     25178     25175     25173     25176     25179
     25176     25179     25182     25183     25176     25179     25182     25184
     25176     25179     25182     25185     25177     25176     25179     25180
     25177     25176     25179     25181     25177     25176     25179     25182
     25178     25176     25179     25180     25178     25176     25179     25181
     25178     25176     25179     25182     25179     25182     25185     25186
     25179     25182     25185     25187     25179     25182     25185     25188
     25180     25179     25182     25183     25180     25179     25182     25184
     25180     25179     25182     25185     25181     25179     25182     25183
     25181     25179     25182     25184     25181     25179     25182     25185
     25182     25185     25188     25189     25182     25185     25188     25190
     25182     25185     25188     25191     25183     25182     25185     25186
     25183     25182     25185     25187     25183     25182     25185     25188
     25184     25182     25185     25186     25184     25182     25185     25187
     25184     25182     25185     25188     25185     25188     25191     25192
     25185     25188     25191     25193     25185     25188     25191     25194
     25186     25185     25188     25189     25186     25185     25188     25190
     25186     25185     25188     25191     25187     25185     25188     25189
     25187     25185     25188     25190     25187     25185     25188     25191
     25189     25188     25191     25192     25189     25188     25191     25193
     25189     25188     25191     25194     25190     25188     25191     25192
     25190     25188     25191     25193     25190     25188     25191     25194
     25195     25196     25211     25212     25195     25196     25211     25213
     25195     25196     25211     25217     25196     25195     25199     25200
     25196     25195     25199     25201     25196     25195     25199     25202
     25196     25195     25203     25204     25196     25195     25203     25205
     25196     25195     25203     25206     25196     25195     25207     25208
     25196     25195     25207     25209     25196     25195     25207     25210
     25196     25211     25217     25214     25197     25196     25195     25199
     25197     25196     25195     25203     25197     25196     25195     25207
     25197     25196     25211     25212     25197     25196     25211     25213
     25197     25196     25211     25217     25198     25196     25195     25199
     25198     25196     25195     25203     25198     25196     25195     25207
     25198     25196     25211     25212     25198     25196     25211     25213
     25198     25196     25211     25217     25199     25195     25196     25211
     25199     25195     25203     25204     25199     25195     25203     25205
     25199     25195     25203     25206     25199     25195     25207     25208
     25199     25195     25207     25209     25199     25195     25207     25210
     25200     25199     25195     25203     25200     25199     25195     25207
     25201     25199     25195     25203     25201     25199     25195     25207
     25202     25199     25195     25203     25202     25199     25195     25207
     25203     25195     25196     25211     25203     25195     25207     25208
     25203     25195     25207     25209     25203     25195     25207     25210
     25204     25203     25195     25207     25205     25203     25195     25207
     25206     25203     25195     25207     25207     25195     25196     25211
     25211     25217     25214     25215     25211     25217     25214     25216
     25211     25217     25214     25218     25212     25211     25217     25214
     25213     25211     25217     25214     25214     25218     25219     25220
     25214     25218     25219     25221     25214     25218     25219     25222
     25215     25214     25218     25219     25216     25214     25218     25219
     25217     25214     25218     25219     25218     25219     25222     25223
     25218     25219     25222     25224     25218     25219     25222     25230
     25219     25222     25224     25225     25219     25222     25230     25231
     25219     25222     25230     25232     25219     25222     25230     25233
     25220     25219     25222     25223     25220     25219     25222     25224
     25220     25219     25222     25230     25221     25219     25222     25223
     25221     25219     25222     25224     25221     25219     25222     25230
     25222     25224     25225     25226     25222     25224     25225     25227
     25222     25230     25233     25234     25223     25222     25224     25225
     25223     25222     25230     25231     25223     25222     25230     25232
     25223     25222     25230     25233     25224     25222     25230     25231
     25224     25222     25230     25232     25224     25222     25230     25233
     25224     25225     25227     25228     25224     25225     25227     25229
     25224     25225     25227     25239     25225     25224     25222     25230
     25225     25227     25239     25240     25225     25227     25239     25241
     25225     25227     25239     25242     25226     25225     25227     25228
     25226     25225     25227     25229     25226     25225     25227     25239
     25227     25239     25242     25243     25227     25239     25242     25244
     25227     25239     25242     25245     25228     25227     25239     25240
     25228     25227     25239     25241     25228     25227     25239     25242
     25229     25227     25239     25240     25229     25227     25239     25241
     25229     25227     25239     25242     25230     25233     25234     25235
     25230     25233     25234     25236     25231     25230     25233     25234
     25232     25230     25233     25234     25233     25234     25236     25237
     25233     25234     25236     25238     25233     25234     25236     25286
     25234     25236     25286     25287     25234     25236     25286     25288
     25234     25236     25286     25289     25235     25234     25236     25237
     25235     25234     25236     25238     25235     25234     25236     25286
     25236     25286     25289     25290     25236     25286     25289     25291
     25236     25286     25289     25292     25237     25236     25286     25287
     25237     25236     25286     25288     25237     25236     25286     25289
     25238     25236     25286     25287     25238     25236     25286     25288
     25238     25236     25286     25289     25239     25242     25245     25246
     25239     25242     25245     25247     25239     25242     25245     25248
     25240     25239     25242     25243     25240     25239     25242     25244
     25240     25239     25242     25245     25241     25239     25242     25243
     25241     25239     25242     25244     25241     25239     25242     25245
     25242     25245     25248     25249     25242     25245     25248     25250
     25242     25245     25248     25251     25243     25242     25245     25246
     25243     25242     25245     25247     25243     25242     25245     25248
     25244     25242     25245     25246     25244     25242     25245     25247
     25244     25242     25245     25248     25245     25248     25251     25252
     25245     25248     25251     25253     25245     25248     25251     25254
     25246     25245     25248     25249     25246     25245     25248     25250
     25246     25245     25248     25251     25247     25245     25248     25249
     25247     25245     25248     25250     25247     25245     25248     25251
     25248     25251     25254     25255     25248     25251     25254     25256
     25248     25251     25254     25257     25249     25248     25251     25252
     25249     25248     25251     25253     25249     25248     25251     25254
     25250     25248     25251     25252     25250     25248     25251     25253
     25250     25248     25251     25254     25251     25254     25257     25258
     25251     25254     25257     25259     25252     25251     25254     25255
     25252     25251     25254     25256     25252     25251     25254     25257
     25253     25251     25254     25255     25253     25251     25254     25256
     25253     25251     25254     25257     25254     25257     25259     25260
     25254     25257     25259     25261     25255     25254     25257     25258
     25255     25254     25257     25259     25256     25254     25257     25258
     25256     25254     25257     25259     25257     25259     25261     25262
     25257     25259     25261     25263     25257     25259     25261     25264
     25258     25257     25259     25260     25258     25257     25259     25261
     25259     25261     25264     25265     25259     25261     25264     25266
     25259     25261     25264     25267     25260     25259     25261     25262
     25260     25259     25261     25263     25260     25259     25261     25264
     25261     25264     25267     25268     25261     25264     25267     25269
     25261     25264     25267     25270     25262     25261     25264     25265
     25262     25261     25264     25266     25262     25261     25264     25267
     25263     25261     25264     25265     25263     25261     25264     25266
     25263     25261     25264     25267     25264     25267     25270     25271
     25264     25267     25270     25272     25264     25267     25270     25273
     25265     25264     25267     25268     25265     25264     25267     25269
     25265     25264     25267     25270     25266     25264     25267     25268
     25266     25264     25267     25269     25266     25264     25267     25270
     25267     25270     25273     25274     25267     25270     25273     25275
     25267     25270     25273     25276     25268     25267     25270     25271
     25268     25267     25270     25272     25268     25267     25270     25273
     25269     25267     25270     25271     25269     25267     25270     25272
     25269     25267     25270     25273     25270     25273     25276     25277
     25270     25273     25276     25278     25270     25273     25276     25279
     25271     25270     25273     25274     25271     25270     25273     25275
     25271     25270     25273     25276     25272     25270     25273     25274
     25272     25270     25273     25275     25272     25270     25273     25276
     25273     25276     25279     25280     25273     25276     25279     25281
     25273     25276     25279     25282     25274     25273     25276     25277
     25274     25273     25276     25278     25274     25273     25276     25279
     25275     25273     25276     25277     25275     25273     25276     25278
     25275     25273     25276     25279     25276     25279     25282     25283
     25276     25279     25282     25284     25276     25279     25282     25285
     25277     25276     25279     25280     25277     25276     25279     25281
     25277     25276     25279     25282     25278     25276     25279     25280
     25278     25276     25279     25281     25278     25276     25279     25282
     25280     25279     25282     25283     25280     25279     25282     25284
     25280     25279     25282     25285     25281     25279     25282     25283
     25281     25279     25282     25284     25281     25279     25282     25285
     25286     25289     25292     25293     25286     25289     25292     25294
     25286     25289     25292     25295     25287     25286     25289     25290
     25287     25286     25289     25291     25287     25286     25289     25292
     25288     25286     25289     25290     25288     25286     25289     25291
     25288     25286     25289     25292     25289     25292     25295     25296
     25289     25292     25295     25297     25289     25292     25295     25298
     25290     25289     25292     25293     25290     25289     25292     25294
     25290     25289     25292     25295     25291     25289     25292     25293
     25291     25289     25292     25294     25291     25289     25292     25295
     25292     25295     25298     25299     25292     25295     25298     25300
     25292     25295     25298     25301     25293     25292     25295     25296
     25293     25292     25295     25297     25293     25292     25295     25298
     25294     25292     25295     25296     25294     25292     25295     25297
     25294     25292     25295     25298     25295     25298     25301     25302
     25295     25298     25301     25303     25295     25298     25301     25304
     25296     25295     25298     25299     25296     25295     25298     25300
     25296     25295     25298     25301     25297     25295     25298     25299
     25297     25295     25298     25300     25297     25295     25298     25301
     25298     25301     25304     25305     25298     25301     25304     25306
     25298     25301     25304     25307     25299     25298     25301     25302
     25299     25298     25301     25303     25299     25298     25301     25304
     25300     25298     25301     25302     25300     25298     25301     25303
     25300     25298     25301     25304     25301     25304     25307     25308
     25301     25304     25307     25309     25301     25304     25307     25310
     25302     25301     25304     25305     25302     25301     25304     25306
     25302     25301     25304     25307     25303     25301     25304     25305
     25303     25301     25304     25306     25303     25301     25304     25307
     25304     25307     25310     25311     25304     25307     25310     25312
     25304     25307     25310     25313     25305     25304     25307     25308
     25305     25304     25307     25309     25305     25304     25307     25310
     25306     25304     25307     25308     25306     25304     25307     25309
     25306     25304     25307     25310     25307     25310     25313     25314
     25307     25310     25313     25315     25307     25310     25313     25316
     25308     25307     25310     25311     25308     25307     25310     25312
     25308     25307     25310     25313     25309     25307     25310     25311
     25309     25307     25310     25312     25309     25307     25310     25313
     25310     25313     25316     25317     25310     25313     25316     25318
     25310     25313     25316     25319     25311     25310     25313     25314
     25311     25310     25313     25315     25311     25310     25313     25316
     25312     25310     25313     25314     25312     25310     25313     25315
     25312     25310     25313     25316     25313     25316     25319     25320
     25313     25316     25319     25321     25313     25316     25319     25322
     25314     25313     25316     25317     25314     25313     25316     25318
     25314     25313     25316     25319     25315     25313     25316     25317
     25315     25313     25316     25318     25315     25313     25316     25319
     25316     25319     25322     25323     25316     25319     25322     25324
     25316     25319     25322     25325     25317     25316     25319     25320
     25317     25316     25319     25321     25317     25316     25319     25322
     25318     25316     25319     25320     25318     25316     25319     25321
     25318     25316     25319     25322     25319     25322     25325     25326
     25319     25322     25325     25327     25319     25322     25325     25328
     25320     25319     25322     25323     25320     25319     25322     25324
     25320     25319     25322     25325     25321     25319     25322     25323
     25321     25319     25322     25324     25321     25319     25322     25325
     25323     25322     25325     25326     25323     25322     25325     25327
     25323     25322     25325     25328     25324     25322     25325     25326
     25324     25322     25325     25327     25324     25322     25325     25328
     25329     25330     25345     25346     25329     25330     25345     25347
     25329     25330     25345     25351     25330     25329     25333     25334
     25330     25329     25333     25335     25330     25329     25333     25336
     25330     25329     25337     25338     25330     25329     25337     25339
     25330     25329     25337     25340     25330     25329     25341     25342
     25330     25329     25341     25343     25330     25329     25341     25344
     25330     25345     25351     25348     25331     25330     25329     25333
     25331     25330     25329     25337     25331     25330     25329     25341
     25331     25330     25345     25346     25331     25330     25345     25347
     25331     25330     25345     25351     25332     25330     25329     25333
     25332     25330     25329     25337     25332     25330     25329     25341
     25332     25330     25345     25346     25332     25330     25345     25347
     25332     25330     25345     25351     25333     25329     25330     25345
     25333     25329     25337     25338     25333     25329     25337     25339
     25333     25329     25337     25340     25333     25329     25341     25342
     25333     25329     25341     25343     25333     25329     25341     25344
     25334     25333     25329     25337     25334     25333     25329     25341
     25335     25333     25329     25337     25335     25333     25329     25341
     25336     25333     25329     25337     25336     25333     25329     25341
     25337     25329     25330     25345     25337     25329     25341     25342
     25337     25329     25341     25343     25337     25329     25341     25344
     25338     25337     25329     25341     25339     25337     25329     25341
     25340     25337     25329     25341     25341     25329     25330     25345
     25345     25351     25348     25349     25345     25351     25348     25350
     25345     25351     25348     25352     25346     25345     25351     25348
     25347     25345     25351     25348     25348     25352     25353     25354
     25348     25352     25353     25355     25348     25352     25353     25356
     25349     25348     25352     25353     25350     25348     25352     25353
     25351     25348     25352     25353     25352     25353     25356     25357
     25352     25353     25356     25358     25352     25353     25356     25364
     25353     25356     25358     25359     25353     25356     25364     25365
     25353     25356     25364     25366     25353     25356     25364     25367
     25354     25353     25356     25357     25354     25353     25356     25358
     25354     25353     25356     25364     25355     25353     25356     25357
     25355     25353     25356     25358     25355     25353     25356     25364
     25356     25358     25359     25360     25356     25358     25359     25361
     25356     25364     25367     25368     25357     25356     25358     25359
     25357     25356     25364     25365     25357     25356     25364     25366
     25357     25356     25364     25367     25358     25356     25364     25365
     25358     25356     25364     25366     25358     25356     25364     25367
     25358     25359     25361     25362     25358     25359     25361     25363
     25358     25359     25361     25373     25359     25358     25356     25364
     25359     25361     25373     25374     25359     25361     25373     25375
     25359     25361     25373     25376     25360     25359     25361     25362
     25360     25359     25361     25363     25360     25359     25361     25373
     25361     25373     25376     25377     25361     25373     25376     25378
     25361     25373     25376     25379     25362     25361     25373     25374
     25362     25361     25373     25375     25362     25361     25373     25376
     25363     25361     25373     25374     25363     25361     25373     25375
     25363     25361     25373     25376     25364     25367     25368     25369
     25364     25367     25368     25370     25365     25364     25367     25368
     25366     25364     25367     25368     25367     25368     25370     25371
     25367     25368     25370     25372     25367     25368     25370     25420
     25368     25370     25420     25421     25368     25370     25420     25422
     25368     25370     25420     25423     25369     25368     25370     25371
     25369     25368     25370     25372     25369     25368     25370     25420
     25370     25420     25423     25424     25370     25420     25423     25425
     25370     25420     25423     25426     25371     25370     25420     25421
     25371     25370     25420     25422     25371     25370     25420     25423
     25372     25370     25420     25421     25372     25370     25420     25422
     25372     25370     25420     25423     25373     25376     25379     25380
     25373     25376     25379     25381     25373     25376     25379     25382
     25374     25373     25376     25377     25374     25373     25376     25378
     25374     25373     25376     25379     25375     25373     25376     25377
     25375     25373     25376     25378     25375     25373     25376     25379
     25376     25379     25382     25383     25376     25379     25382     25384
     25376     25379     25382     25385     25377     25376     25379     25380
     25377     25376     25379     25381     25377     25376     25379     25382
     25378     25376     25379     25380     25378     25376     25379     25381
     25378     25376     25379     25382     25379     25382     25385     25386
     25379     25382     25385     25387     25379     25382     25385     25388
     25380     25379     25382     25383     25380     25379     25382     25384
     25380     25379     25382     25385     25381     25379     25382     25383
     25381     25379     25382     25384     25381     25379     25382     25385
     25382     25385     25388     25389     25382     25385     25388     25390
     25382     25385     25388     25391     25383     25382     25385     25386
     25383     25382     25385     25387     25383     25382     25385     25388
     25384     25382     25385     25386     25384     25382     25385     25387
     25384     25382     25385     25388     25385     25388     25391     25392
     25385     25388     25391     25393     25386     25385     25388     25389
     25386     25385     25388     25390     25386     25385     25388     25391
     25387     25385     25388     25389     25387     25385     25388     25390
     25387     25385     25388     25391     25388     25391     25393     25394
     25388     25391     25393     25395     25389     25388     25391     25392
     25389     25388     25391     25393     25390     25388     25391     25392
     25390     25388     25391     25393     25391     25393     25395     25396
     25391     25393     25395     25397     25391     25393     25395     25398
     25392     25391     25393     25394     25392     25391     25393     25395
     25393     25395     25398     25399     25393     25395     25398     25400
     25393     25395     25398     25401     25394     25393     25395     25396
     25394     25393     25395     25397     25394     25393     25395     25398
     25395     25398     25401     25402     25395     25398     25401     25403
     25395     25398     25401     25404     25396     25395     25398     25399
     25396     25395     25398     25400     25396     25395     25398     25401
     25397     25395     25398     25399     25397     25395     25398     25400
     25397     25395     25398     25401     25398     25401     25404     25405
     25398     25401     25404     25406     25398     25401     25404     25407
     25399     25398     25401     25402     25399     25398     25401     25403
     25399     25398     25401     25404     25400     25398     25401     25402
     25400     25398     25401     25403     25400     25398     25401     25404
     25401     25404     25407     25408     25401     25404     25407     25409
     25401     25404     25407     25410     25402     25401     25404     25405
     25402     25401     25404     25406     25402     25401     25404     25407
     25403     25401     25404     25405     25403     25401     25404     25406
     25403     25401     25404     25407     25404     25407     25410     25411
     25404     25407     25410     25412     25404     25407     25410     25413
     25405     25404     25407     25408     25405     25404     25407     25409
     25405     25404     25407     25410     25406     25404     25407     25408
     25406     25404     25407     25409     25406     25404     25407     25410
     25407     25410     25413     25414     25407     25410     25413     25415
     25407     25410     25413     25416     25408     25407     25410     25411
     25408     25407     25410     25412     25408     25407     25410     25413
     25409     25407     25410     25411     25409     25407     25410     25412
     25409     25407     25410     25413     25410     25413     25416     25417
     25410     25413     25416     25418     25410     25413     25416     25419
     25411     25410     25413     25414     25411     25410     25413     25415
     25411     25410     25413     25416     25412     25410     25413     25414
     25412     25410     25413     25415     25412     25410     25413     25416
     25414     25413     25416     25417     25414     25413     25416     25418
     25414     25413     25416     25419     25415     25413     25416     25417
     25415     25413     25416     25418     25415     25413     25416     25419
     25420     25423     25426     25427     25420     25423     25426     25428
     25420     25423     25426     25429     25421     25420     25423     25424
     25421     25420     25423     25425     25421     25420     25423     25426
     25422     25420     25423     25424     25422     25420     25423     25425
     25422     25420     25423     25426     25423     25426     25429     25430
     25423     25426     25429     25431     25423     25426     25429     25432
     25424     25423     25426     25427     25424     25423     25426     25428
     25424     25423     25426     25429     25425     25423     25426     25427
     25425     25423     25426     25428     25425     25423     25426     25429
     25426     25429     25432     25433     25426     25429     25432     25434
     25426     25429     25432     25435     25427     25426     25429     25430
     25427     25426     25429     25431     25427     25426     25429     25432
     25428     25426     25429     25430     25428     25426     25429     25431
     25428     25426     25429     25432     25429     25432     25435     25436
     25429     25432     25435     25437     25429     25432     25435     25438
     25430     25429     25432     25433     25430     25429     25432     25434
     25430     25429     25432     25435     25431     25429     25432     25433
     25431     25429     25432     25434     25431     25429     25432     25435
     25432     25435     25438     25439     25432     25435     25438     25440
     25432     25435     25438     25441     25433     25432     25435     25436
     25433     25432     25435     25437     25433     25432     25435     25438
     25434     25432     25435     25436     25434     25432     25435     25437
     25434     25432     25435     25438     25435     25438     25441     25442
     25435     25438     25441     25443     25435     25438     25441     25444
     25436     25435     25438     25439     25436     25435     25438     25440
     25436     25435     25438     25441     25437     25435     25438     25439
     25437     25435     25438     25440     25437     25435     25438     25441
     25438     25441     25444     25445     25438     25441     25444     25446
     25438     25441     25444     25447     25439     25438     25441     25442
     25439     25438     25441     25443     25439     25438     25441     25444
     25440     25438     25441     25442     25440     25438     25441     25443
     25440     25438     25441     25444     25441     25444     25447     25448
     25441     25444     25447     25449     25441     25444     25447     25450
     25442     25441     25444     25445     25442     25441     25444     25446
     25442     25441     25444     25447     25443     25441     25444     25445
     25443     25441     25444     25446     25443     25441     25444     25447
     25444     25447     25450     25451     25444     25447     25450     25452
     25444     25447     25450     25453     25445     25444     25447     25448
     25445     25444     25447     25449     25445     25444     25447     25450
     25446     25444     25447     25448     25446     25444     25447     25449
     25446     25444     25447     25450     25447     25450     25453     25454
     25447     25450     25453     25455     25447     25450     25453     25456
     25448     25447     25450     25451     25448     25447     25450     25452
     25448     25447     25450     25453     25449     25447     25450     25451
     25449     25447     25450     25452     25449     25447     25450     25453
     25450     25453     25456     25457     25450     25453     25456     25458
     25450     25453     25456     25459     25451     25450     25453     25454
     25451     25450     25453     25455     25451     25450     25453     25456
     25452     25450     25453     25454     25452     25450     25453     25455
     25452     25450     25453     25456     25453     25456     25459     25460
     25453     25456     25459     25461     25453     25456     25459     25462
     25454     25453     25456     25457     25454     25453     25456     25458
     25454     25453     25456     25459     25455     25453     25456     25457
     25455     25453     25456     25458     25455     25453     25456     25459
     25457     25456     25459     25460     25457     25456     25459     25461
     25457     25456     25459     25462     25458     25456     25459     25460
     25458     25456     25459     25461     25458     25456     25459     25462
     25463     25464     25479     25480     25463     25464     25479     25481
     25463     25464     25479     25485     25464     25463     25467     25468
     25464     25463     25467     25469     25464     25463     25467     25470
     25464     25463     25471     25472     25464     25463     25471     25473
     25464     25463     25471     25474     25464     25463     25475     25476
     25464     25463     25475     25477     25464     25463     25475     25478
     25464     25479     25485     25482     25465     25464     25463     25467
     25465     25464     25463     25471     25465     25464     25463     25475
     25465     25464     25479     25480     25465     25464     25479     25481
     25465     25464     25479     25485     25466     25464     25463     25467
     25466     25464     25463     25471     25466     25464     25463     25475
     25466     25464     25479     25480     25466     25464     25479     25481
     25466     25464     25479     25485     25467     25463     25464     25479
     25467     25463     25471     25472     25467     25463     25471     25473
     25467     25463     25471     25474     25467     25463     25475     25476
     25467     25463     25475     25477     25467     25463     25475     25478
     25468     25467     25463     25471     25468     25467     25463     25475
     25469     25467     25463     25471     25469     25467     25463     25475
     25470     25467     25463     25471     25470     25467     25463     25475
     25471     25463     25464     25479     25471     25463     25475     25476
     25471     25463     25475     25477     25471     25463     25475     25478
     25472     25471     25463     25475     25473     25471     25463     25475
     25474     25471     25463     25475     25475     25463     25464     25479
     25479     25485     25482     25483     25479     25485     25482     25484
     25479     25485     25482     25486     25480     25479     25485     25482
     25481     25479     25485     25482     25482     25486     25487     25488
     25482     25486     25487     25489     25482     25486     25487     25490
     25483     25482     25486     25487     25484     25482     25486     25487
     25485     25482     25486     25487     25486     25487     25490     25491
     25486     25487     25490     25492     25486     25487     25490     25498
     25487     25490     25492     25493     25487     25490     25498     25499
     25487     25490     25498     25500     25487     25490     25498     25501
     25488     25487     25490     25491     25488     25487     25490     25492
     25488     25487     25490     25498     25489     25487     25490     25491
     25489     25487     25490     25492     25489     25487     25490     25498
     25490     25492     25493     25494     25490     25492     25493     25495
     25490     25498     25501     25502     25491     25490     25492     25493
     25491     25490     25498     25499     25491     25490     25498     25500
     25491     25490     25498     25501     25492     25490     25498     25499
     25492     25490     25498     25500     25492     25490     25498     25501
     25492     25493     25495     25496     25492     25493     25495     25497
     25492     25493     25495     25507     25493     25492     25490     25498
     25493     25495     25507     25508     25493     25495     25507     25509
     25493     25495     25507     25510     25494     25493     25495     25496
     25494     25493     25495     25497     25494     25493     25495     25507
     25495     25507     25510     25511     25495     25507     25510     25512
     25495     25507     25510     25513     25496     25495     25507     25508
     25496     25495     25507     25509     25496     25495     25507     25510
     25497     25495     25507     25508     25497     25495     25507     25509
     25497     25495     25507     25510     25498     25501     25502     25503
     25498     25501     25502     25504     25499     25498     25501     25502
     25500     25498     25501     25502     25501     25502     25504     25505
     25501     25502     25504     25506     25501     25502     25504     25554
     25502     25504     25554     25555     25502     25504     25554     25556
     25502     25504     25554     25557     25503     25502     25504     25505
     25503     25502     25504     25506     25503     25502     25504     25554
     25504     25554     25557     25558     25504     25554     25557     25559
     25504     25554     25557     25560     25505     25504     25554     25555
     25505     25504     25554     25556     25505     25504     25554     25557
     25506     25504     25554     25555     25506     25504     25554     25556
     25506     25504     25554     25557     25507     25510     25513     25514
     25507     25510     25513     25515     25507     25510     25513     25516
     25508     25507     25510     25511     25508     25507     25510     25512
     25508     25507     25510     25513     25509     25507     25510     25511
     25509     25507     25510     25512     25509     25507     25510     25513
     25510     25513     25516     25517     25510     25513     25516     25518
     25510     25513     25516     25519     25511     25510     25513     25514
     25511     25510     25513     25515     25511     25510     25513     25516
     25512     25510     25513     25514     25512     25510     25513     25515
     25512     25510     25513     25516     25513     25516     25519     25520
     25513     25516     25519     25521     25513     25516     25519     25522
     25514     25513     25516     25517     25514     25513     25516     25518
     25514     25513     25516     25519     25515     25513     25516     25517
     25515     25513     25516     25518     25515     25513     25516     25519
     25516     25519     25522     25523     25516     25519     25522     25524
     25516     25519     25522     25525     25517     25516     25519     25520
     25517     25516     25519     25521     25517     25516     25519     25522
     25518     25516     25519     25520     25518     25516     25519     25521
     25518     25516     25519     25522     25519     25522     25525     25526
     25519     25522     25525     25527     25520     25519     25522     25523
     25520     25519     25522     25524     25520     25519     25522     25525
     25521     25519     25522     25523     25521     25519     25522     25524
     25521     25519     25522     25525     25522     25525     25527     25528
     25522     25525     25527     25529     25523     25522     25525     25526
     25523     25522     25525     25527     25524     25522     25525     25526
     25524     25522     25525     25527     25525     25527     25529     25530
     25525     25527     25529     25531     25525     25527     25529     25532
     25526     25525     25527     25528     25526     25525     25527     25529
     25527     25529     25532     25533     25527     25529     25532     25534
     25527     25529     25532     25535     25528     25527     25529     25530
     25528     25527     25529     25531     25528     25527     25529     25532
     25529     25532     25535     25536     25529     25532     25535     25537
     25529     25532     25535     25538     25530     25529     25532     25533
     25530     25529     25532     25534     25530     25529     25532     25535
     25531     25529     25532     25533     25531     25529     25532     25534
     25531     25529     25532     25535     25532     25535     25538     25539
     25532     25535     25538     25540     25532     25535     25538     25541
     25533     25532     25535     25536     25533     25532     25535     25537
     25533     25532     25535     25538     25534     25532     25535     25536
     25534     25532     25535     25537     25534     25532     25535     25538
     25535     25538     25541     25542     25535     25538     25541     25543
     25535     25538     25541     25544     25536     25535     25538     25539
     25536     25535     25538     25540     25536     25535     25538     25541
     25537     25535     25538     25539     25537     25535     25538     25540
     25537     25535     25538     25541     25538     25541     25544     25545
     25538     25541     25544     25546     25538     25541     25544     25547
     25539     25538     25541     25542     25539     25538     25541     25543
     25539     25538     25541     25544     25540     25538     25541     25542
     25540     25538     25541     25543     25540     25538     25541     25544
     25541     25544     25547     25548     25541     25544     25547     25549
     25541     25544     25547     25550     25542     25541     25544     25545
     25542     25541     25544     25546     25542     25541     25544     25547
     25543     25541     25544     25545     25543     25541     25544     25546
     25543     25541     25544     25547     25544     25547     25550     25551
     25544     25547     25550     25552     25544     25547     25550     25553
     25545     25544     25547     25548     25545     25544     25547     25549
     25545     25544     25547     25550     25546     25544     25547     25548
     25546     25544     25547     25549     25546     25544     25547     25550
     25548     25547     25550     25551     25548     25547     25550     25552
     25548     25547     25550     25553     25549     25547     25550     25551
     25549     25547     25550     25552     25549     25547     25550     25553
     25554     25557     25560     25561     25554     25557     25560     25562
     25554     25557     25560     25563     25555     25554     25557     25558
     25555     25554     25557     25559     25555     25554     25557     25560
     25556     25554     25557     25558     25556     25554     25557     25559
     25556     25554     25557     25560     25557     25560     25563     25564
     25557     25560     25563     25565     25557     25560     25563     25566
     25558     25557     25560     25561     25558     25557     25560     25562
     25558     25557     25560     25563     25559     25557     25560     25561
     25559     25557     25560     25562     25559     25557     25560     25563
     25560     25563     25566     25567     25560     25563     25566     25568
     25560     25563     25566     25569     25561     25560     25563     25564
     25561     25560     25563     25565     25561     25560     25563     25566
     25562     25560     25563     25564     25562     25560     25563     25565
     25562     25560     25563     25566     25563     25566     25569     25570
     25563     25566     25569     25571     25563     25566     25569     25572
     25564     25563     25566     25567     25564     25563     25566     25568
     25564     25563     25566     25569     25565     25563     25566     25567
     25565     25563     25566     25568     25565     25563     25566     25569
     25566     25569     25572     25573     25566     25569     25572     25574
     25566     25569     25572     25575     25567     25566     25569     25570
     25567     25566     25569     25571     25567     25566     25569     25572
     25568     25566     25569     25570     25568     25566     25569     25571
     25568     25566     25569     25572     25569     25572     25575     25576
     25569     25572     25575     25577     25569     25572     25575     25578
     25570     25569     25572     25573     25570     25569     25572     25574
     25570     25569     25572     25575     25571     25569     25572     25573
     25571     25569     25572     25574     25571     25569     25572     25575
     25572     25575     25578     25579     25572     25575     25578     25580
     25572     25575     25578     25581     25573     25572     25575     25576
     25573     25572     25575     25577     25573     25572     25575     25578
     25574     25572     25575     25576     25574     25572     25575     25577
     25574     25572     25575     25578     25575     25578     25581     25582
     25575     25578     25581     25583     25575     25578     25581     25584
     25576     25575     25578     25579     25576     25575     25578     25580
     25576     25575     25578     25581     25577     25575     25578     25579
     25577     25575     25578     25580     25577     25575     25578     25581
     25578     25581     25584     25585     25578     25581     25584     25586
     25578     25581     25584     25587     25579     25578     25581     25582
     25579     25578     25581     25583     25579     25578     25581     25584
     25580     25578     25581     25582     25580     25578     25581     25583
     25580     25578     25581     25584     25581     25584     25587     25588
     25581     25584     25587     25589     25581     25584     25587     25590
     25582     25581     25584     25585     25582     25581     25584     25586
     25582     25581     25584     25587     25583     25581     25584     25585
     25583     25581     25584     25586     25583     25581     25584     25587
     25584     25587     25590     25591     25584     25587     25590     25592
     25584     25587     25590     25593     25585     25584     25587     25588
     25585     25584     25587     25589     25585     25584     25587     25590
     25586     25584     25587     25588     25586     25584     25587     25589
     25586     25584     25587     25590     25587     25590     25593     25594
     25587     25590     25593     25595     25587     25590     25593     25596
     25588     25587     25590     25591     25588     25587     25590     25592
     25588     25587     25590     25593     25589     25587     25590     25591
     25589     25587     25590     25592     25589     25587     25590     25593
     25591     25590     25593     25594     25591     25590     25593     25595
     25591     25590     25593     25596     25592     25590     25593     25594
     25592     25590     25593     25595     25592     25590     25593     25596
     25597     25598     25613     25614     25597     25598     25613     25615
     25597     25598     25613     25619     25598     25597     25601     25602
     25598     25597     25601     25603     25598     25597     25601     25604
     25598     25597     25605     25606     25598     25597     25605     25607
     25598     25597     25605     25608     25598     25597     25609     25610
     25598     25597     25609     25611     25598     25597     25609     25612
     25598     25613     25619     25616     25599     25598     25597     25601
     25599     25598     25597     25605     25599     25598     25597     25609
     25599     25598     25613     25614     25599     25598     25613     25615
     25599     25598     25613     25619     25600     25598     25597     25601
     25600     25598     25597     25605     25600     25598     25597     25609
     25600     25598     25613     25614     25600     25598     25613     25615
     25600     25598     25613     25619     25601     25597     25598     25613
     25601     25597     25605     25606     25601     25597     25605     25607
     25601     25597     25605     25608     25601     25597     25609     25610
     25601     25597     25609     25611     25601     25597     25609     25612
     25602     25601     25597     25605     25602     25601     25597     25609
     25603     25601     25597     25605     25603     25601     25597     25609
     25604     25601     25597     25605     25604     25601     25597     25609
     25605     25597     25598     25613     25605     25597     25609     25610
     25605     25597     25609     25611     25605     25597     25609     25612
     25606     25605     25597     25609     25607     25605     25597     25609
     25608     25605     25597     25609     25609     25597     25598     25613
     25613     25619     25616     25617     25613     25619     25616     25618
     25613     25619     25616     25620     25614     25613     25619     25616
     25615     25613     25619     25616     25616     25620     25621     25622
     25616     25620     25621     25623     25616     25620     25621     25624
     25617     25616     25620     25621     25618     25616     25620     25621
     25619     25616     25620     25621     25620     25621     25624     25625
     25620     25621     25624     25626     25620     25621     25624     25632
     25621     25624     25626     25627     25621     25624     25632     25633
     25621     25624     25632     25634     25621     25624     25632     25635
     25622     25621     25624     25625     25622     25621     25624     25626
     25622     25621     25624     25632     25623     25621     25624     25625
     25623     25621     25624     25626     25623     25621     25624     25632
     25624     25626     25627     25628     25624     25626     25627     25629
     25624     25632     25635     25636     25625     25624     25626     25627
     25625     25624     25632     25633     25625     25624     25632     25634
     25625     25624     25632     25635     25626     25624     25632     25633
     25626     25624     25632     25634     25626     25624     25632     25635
     25626     25627     25629     25630     25626     25627     25629     25631
     25626     25627     25629     25641     25627     25626     25624     25632
     25627     25629     25641     25642     25627     25629     25641     25643
     25627     25629     25641     25644     25628     25627     25629     25630
     25628     25627     25629     25631     25628     25627     25629     25641
     25629     25641     25644     25645     25629     25641     25644     25646
     25629     25641     25644     25647     25630     25629     25641     25642
     25630     25629     25641     25643     25630     25629     25641     25644
     25631     25629     25641     25642     25631     25629     25641     25643
     25631     25629     25641     25644     25632     25635     25636     25637
     25632     25635     25636     25638     25633     25632     25635     25636
     25634     25632     25635     25636     25635     25636     25638     25639
     25635     25636     25638     25640     25635     25636     25638     25688
     25636     25638     25688     25689     25636     25638     25688     25690
     25636     25638     25688     25691     25637     25636     25638     25639
     25637     25636     25638     25640     25637     25636     25638     25688
     25638     25688     25691     25692     25638     25688     25691     25693
     25638     25688     25691     25694     25639     25638     25688     25689
     25639     25638     25688     25690     25639     25638     25688     25691
     25640     25638     25688     25689     25640     25638     25688     25690
     25640     25638     25688     25691     25641     25644     25647     25648
     25641     25644     25647     25649     25641     25644     25647     25650
     25642     25641     25644     25645     25642     25641     25644     25646
     25642     25641     25644     25647     25643     25641     25644     25645
     25643     25641     25644     25646     25643     25641     25644     25647
     25644     25647     25650     25651     25644     25647     25650     25652
     25644     25647     25650     25653     25645     25644     25647     25648
     25645     25644     25647     25649     25645     25644     25647     25650
     25646     25644     25647     25648     25646     25644     25647     25649
     25646     25644     25647     25650     25647     25650     25653     25654
     25647     25650     25653     25655     25647     25650     25653     25656
     25648     25647     25650     25651     25648     25647     25650     25652
     25648     25647     25650     25653     25649     25647     25650     25651
     25649     25647     25650     25652     25649     25647     25650     25653
     25650     25653     25656     25657     25650     25653     25656     25658
     25650     25653     25656     25659     25651     25650     25653     25654
     25651     25650     25653     25655     25651     25650     25653     25656
     25652     25650     25653     25654     25652     25650     25653     25655
     25652     25650     25653     25656     25653     25656     25659     25660
     25653     25656     25659     25661     25654     25653     25656     25657
     25654     25653     25656     25658     25654     25653     25656     25659
     25655     25653     25656     25657     25655     25653     25656     25658
     25655     25653     25656     25659     25656     25659     25661     25662
     25656     25659     25661     25663     25657     25656     25659     25660
     25657     25656     25659     25661     25658     25656     25659     25660
     25658     25656     25659     25661     25659     25661     25663     25664
     25659     25661     25663     25665     25659     25661     25663     25666
     25660     25659     25661     25662     25660     25659     25661     25663
     25661     25663     25666     25667     25661     25663     25666     25668
     25661     25663     25666     25669     25662     25661     25663     25664
     25662     25661     25663     25665     25662     25661     25663     25666
     25663     25666     25669     25670     25663     25666     25669     25671
     25663     25666     25669     25672     25664     25663     25666     25667
     25664     25663     25666     25668     25664     25663     25666     25669
     25665     25663     25666     25667     25665     25663     25666     25668
     25665     25663     25666     25669     25666     25669     25672     25673
     25666     25669     25672     25674     25666     25669     25672     25675
     25667     25666     25669     25670     25667     25666     25669     25671
     25667     25666     25669     25672     25668     25666     25669     25670
     25668     25666     25669     25671     25668     25666     25669     25672
     25669     25672     25675     25676     25669     25672     25675     25677
     25669     25672     25675     25678     25670     25669     25672     25673
     25670     25669     25672     25674     25670     25669     25672     25675
     25671     25669     25672     25673     25671     25669     25672     25674
     25671     25669     25672     25675     25672     25675     25678     25679
     25672     25675     25678     25680     25672     25675     25678     25681
     25673     25672     25675     25676     25673     25672     25675     25677
     25673     25672     25675     25678     25674     25672     25675     25676
     25674     25672     25675     25677     25674     25672     25675     25678
     25675     25678     25681     25682     25675     25678     25681     25683
     25675     25678     25681     25684     25676     25675     25678     25679
     25676     25675     25678     25680     25676     25675     25678     25681
     25677     25675     25678     25679     25677     25675     25678     25680
     25677     25675     25678     25681     25678     25681     25684     25685
     25678     25681     25684     25686     25678     25681     25684     25687
     25679     25678     25681     25682     25679     25678     25681     25683
     25679     25678     25681     25684     25680     25678     25681     25682
     25680     25678     25681     25683     25680     25678     25681     25684
     25682     25681     25684     25685     25682     25681     25684     25686
     25682     25681     25684     25687     25683     25681     25684     25685
     25683     25681     25684     25686     25683     25681     25684     25687
     25688     25691     25694     25695     25688     25691     25694     25696
     25688     25691     25694     25697     25689     25688     25691     25692
     25689     25688     25691     25693     25689     25688     25691     25694
     25690     25688     25691     25692     25690     25688     25691     25693
     25690     25688     25691     25694     25691     25694     25697     25698
     25691     25694     25697     25699     25691     25694     25697     25700
     25692     25691     25694     25695     25692     25691     25694     25696
     25692     25691     25694     25697     25693     25691     25694     25695
     25693     25691     25694     25696     25693     25691     25694     25697
     25694     25697     25700     25701     25694     25697     25700     25702
     25694     25697     25700     25703     25695     25694     25697     25698
     25695     25694     25697     25699     25695     25694     25697     25700
     25696     25694     25697     25698     25696     25694     25697     25699
     25696     25694     25697     25700     25697     25700     25703     25704
     25697     25700     25703     25705     25697     25700     25703     25706
     25698     25697     25700     25701     25698     25697     25700     25702
     25698     25697     25700     25703     25699     25697     25700     25701
     25699     25697     25700     25702     25699     25697     25700     25703
     25700     25703     25706     25707     25700     25703     25706     25708
     25700     25703     25706     25709     25701     25700     25703     25704
     25701     25700     25703     25705     25701     25700     25703     25706
     25702     25700     25703     25704     25702     25700     25703     25705
     25702     25700     25703     25706     25703     25706     25709     25710
     25703     25706     25709     25711     25703     25706     25709     25712
     25704     25703     25706     25707     25704     25703     25706     25708
     25704     25703     25706     25709     25705     25703     25706     25707
     25705     25703     25706     25708     25705     25703     25706     25709
     25706     25709     25712     25713     25706     25709     25712     25714
     25706     25709     25712     25715     25707     25706     25709     25710
     25707     25706     25709     25711     25707     25706     25709     25712
     25708     25706     25709     25710     25708     25706     25709     25711
     25708     25706     25709     25712     25709     25712     25715     25716
     25709     25712     25715     25717     25709     25712     25715     25718
     25710     25709     25712     25713     25710     25709     25712     25714
     25710     25709     25712     25715     25711     25709     25712     25713
     25711     25709     25712     25714     25711     25709     25712     25715
     25712     25715     25718     25719     25712     25715     25718     25720
     25712     25715     25718     25721     25713     25712     25715     25716
     25713     25712     25715     25717     25713     25712     25715     25718
     25714     25712     25715     25716     25714     25712     25715     25717
     25714     25712     25715     25718     25715     25718     25721     25722
     25715     25718     25721     25723     25715     25718     25721     25724
     25716     25715     25718     25719     25716     25715     25718     25720
     25716     25715     25718     25721     25717     25715     25718     25719
     25717     25715     25718     25720     25717     25715     25718     25721
     25718     25721     25724     25725     25718     25721     25724     25726
     25718     25721     25724     25727     25719     25718     25721     25722
     25719     25718     25721     25723     25719     25718     25721     25724
     25720     25718     25721     25722     25720     25718     25721     25723
     25720     25718     25721     25724     25721     25724     25727     25728
     25721     25724     25727     25729     25721     25724     25727     25730
     25722     25721     25724     25725     25722     25721     25724     25726
     25722     25721     25724     25727     25723     25721     25724     25725
     25723     25721     25724     25726     25723     25721     25724     25727
     25725     25724     25727     25728     25725     25724     25727     25729
     25725     25724     25727     25730     25726     25724     25727     25728
     25726     25724     25727     25729     25726     25724     25727     25730
     25731     25732     25747     25748     25731     25732     25747     25749
     25731     25732     25747     25753     25732     25731     25735     25736
     25732     25731     25735     25737     25732     25731     25735     25738
     25732     25731     25739     25740     25732     25731     25739     25741
     25732     25731     25739     25742     25732     25731     25743     25744
     25732     25731     25743     25745     25732     25731     25743     25746
     25732     25747     25753     25750     25733     25732     25731     25735
     25733     25732     25731     25739     25733     25732     25731     25743
     25733     25732     25747     25748     25733     25732     25747     25749
     25733     25732     25747     25753     25734     25732     25731     25735
     25734     25732     25731     25739     25734     25732     25731     25743
     25734     25732     25747     25748     25734     25732     25747     25749
     25734     25732     25747     25753     25735     25731     25732     25747
     25735     25731     25739     25740     25735     25731     25739     25741
     25735     25731     25739     25742     25735     25731     25743     25744
     25735     25731     25743     25745     25735     25731     25743     25746
     25736     25735     25731     25739     25736     25735     25731     25743
     25737     25735     25731     25739     25737     25735     25731     25743
     25738     25735     25731     25739     25738     25735     25731     25743
     25739     25731     25732     25747     25739     25731     25743     25744
     25739     25731     25743     25745     25739     25731     25743     25746
     25740     25739     25731     25743     25741     25739     25731     25743
     25742     25739     25731     25743     25743     25731     25732     25747
     25747     25753     25750     25751     25747     25753     25750     25752
     25747     25753     25750     25754     25748     25747     25753     25750
     25749     25747     25753     25750     25750     25754     25755     25756
     25750     25754     25755     25757     25750     25754     25755     25758
     25751     25750     25754     25755     25752     25750     25754     25755
     25753     25750     25754     25755     25754     25755     25758     25759
     25754     25755     25758     25760     25754     25755     25758     25766
     25755     25758     25760     25761     25755     25758     25766     25767
     25755     25758     25766     25768     25755     25758     25766     25769
     25756     25755     25758     25759     25756     25755     25758     25760
     25756     25755     25758     25766     25757     25755     25758     25759
     25757     25755     25758     25760     25757     25755     25758     25766
     25758     25760     25761     25762     25758     25760     25761     25763
     25758     25766     25769     25770     25759     25758     25760     25761
     25759     25758     25766     25767     25759     25758     25766     25768
     25759     25758     25766     25769     25760     25758     25766     25767
     25760     25758     25766     25768     25760     25758     25766     25769
     25760     25761     25763     25764     25760     25761     25763     25765
     25760     25761     25763     25775     25761     25760     25758     25766
     25761     25763     25775     25776     25761     25763     25775     25777
     25761     25763     25775     25778     25762     25761     25763     25764
     25762     25761     25763     25765     25762     25761     25763     25775
     25763     25775     25778     25779     25763     25775     25778     25780
     25763     25775     25778     25781     25764     25763     25775     25776
     25764     25763     25775     25777     25764     25763     25775     25778
     25765     25763     25775     25776     25765     25763     25775     25777
     25765     25763     25775     25778     25766     25769     25770     25771
     25766     25769     25770     25772     25767     25766     25769     25770
     25768     25766     25769     25770     25769     25770     25772     25773
     25769     25770     25772     25774     25769     25770     25772     25822
     25770     25772     25822     25823     25770     25772     25822     25824
     25770     25772     25822     25825     25771     25770     25772     25773
     25771     25770     25772     25774     25771     25770     25772     25822
     25772     25822     25825     25826     25772     25822     25825     25827
     25772     25822     25825     25828     25773     25772     25822     25823
     25773     25772     25822     25824     25773     25772     25822     25825
     25774     25772     25822     25823     25774     25772     25822     25824
     25774     25772     25822     25825     25775     25778     25781     25782
     25775     25778     25781     25783     25775     25778     25781     25784
     25776     25775     25778     25779     25776     25775     25778     25780
     25776     25775     25778     25781     25777     25775     25778     25779
     25777     25775     25778     25780     25777     25775     25778     25781
     25778     25781     25784     25785     25778     25781     25784     25786
     25778     25781     25784     25787     25779     25778     25781     25782
     25779     25778     25781     25783     25779     25778     25781     25784
     25780     25778     25781     25782     25780     25778     25781     25783
     25780     25778     25781     25784     25781     25784     25787     25788
     25781     25784     25787     25789     25781     25784     25787     25790
     25782     25781     25784     25785     25782     25781     25784     25786
     25782     25781     25784     25787     25783     25781     25784     25785
     25783     25781     25784     25786     25783     25781     25784     25787
     25784     25787     25790     25791     25784     25787     25790     25792
     25784     25787     25790     25793     25785     25784     25787     25788
     25785     25784     25787     25789     25785     25784     25787     25790
     25786     25784     25787     25788     25786     25784     25787     25789
     25786     25784     25787     25790     25787     25790     25793     25794
     25787     25790     25793     25795     25788     25787     25790     25791
     25788     25787     25790     25792     25788     25787     25790     25793
     25789     25787     25790     25791     25789     25787     25790     25792
     25789     25787     25790     25793     25790     25793     25795     25796
     25790     25793     25795     25797     25791     25790     25793     25794
     25791     25790     25793     25795     25792     25790     25793     25794
     25792     25790     25793     25795     25793     25795     25797     25798
     25793     25795     25797     25799     25793     25795     25797     25800
     25794     25793     25795     25796     25794     25793     25795     25797
     25795     25797     25800     25801     25795     25797     25800     25802
     25795     25797     25800     25803     25796     25795     25797     25798
     25796     25795     25797     25799     25796     25795     25797     25800
     25797     25800     25803     25804     25797     25800     25803     25805
     25797     25800     25803     25806     25798     25797     25800     25801
     25798     25797     25800     25802     25798     25797     25800     25803
     25799     25797     25800     25801     25799     25797     25800     25802
     25799     25797     25800     25803     25800     25803     25806     25807
     25800     25803     25806     25808     25800     25803     25806     25809
     25801     25800     25803     25804     25801     25800     25803     25805
     25801     25800     25803     25806     25802     25800     25803     25804
     25802     25800     25803     25805     25802     25800     25803     25806
     25803     25806     25809     25810     25803     25806     25809     25811
     25803     25806     25809     25812     25804     25803     25806     25807
     25804     25803     25806     25808     25804     25803     25806     25809
     25805     25803     25806     25807     25805     25803     25806     25808
     25805     25803     25806     25809     25806     25809     25812     25813
     25806     25809     25812     25814     25806     25809     25812     25815
     25807     25806     25809     25810     25807     25806     25809     25811
     25807     25806     25809     25812     25808     25806     25809     25810
     25808     25806     25809     25811     25808     25806     25809     25812
     25809     25812     25815     25816     25809     25812     25815     25817
     25809     25812     25815     25818     25810     25809     25812     25813
     25810     25809     25812     25814     25810     25809     25812     25815
     25811     25809     25812     25813     25811     25809     25812     25814
     25811     25809     25812     25815     25812     25815     25818     25819
     25812     25815     25818     25820     25812     25815     25818     25821
     25813     25812     25815     25816     25813     25812     25815     25817
     25813     25812     25815     25818     25814     25812     25815     25816
     25814     25812     25815     25817     25814     25812     25815     25818
     25816     25815     25818     25819     25816     25815     25818     25820
     25816     25815     25818     25821     25817     25815     25818     25819
     25817     25815     25818     25820     25817     25815     25818     25821
     25822     25825     25828     25829     25822     25825     25828     25830
     25822     25825     25828     25831     25823     25822     25825     25826
     25823     25822     25825     25827     25823     25822     25825     25828
     25824     25822     25825     25826     25824     25822     25825     25827
     25824     25822     25825     25828     25825     25828     25831     25832
     25825     25828     25831     25833     25825     25828     25831     25834
     25826     25825     25828     25829     25826     25825     25828     25830
     25826     25825     25828     25831     25827     25825     25828     25829
     25827     25825     25828     25830     25827     25825     25828     25831
     25828     25831     25834     25835     25828     25831     25834     25836
     25828     25831     25834     25837     25829     25828     25831     25832
     25829     25828     25831     25833     25829     25828     25831     25834
     25830     25828     25831     25832     25830     25828     25831     25833
     25830     25828     25831     25834     25831     25834     25837     25838
     25831     25834     25837     25839     25831     25834     25837     25840
     25832     25831     25834     25835     25832     25831     25834     25836
     25832     25831     25834     25837     25833     25831     25834     25835
     25833     25831     25834     25836     25833     25831     25834     25837
     25834     25837     25840     25841     25834     25837     25840     25842
     25834     25837     25840     25843     25835     25834     25837     25838
     25835     25834     25837     25839     25835     25834     25837     25840
     25836     25834     25837     25838     25836     25834     25837     25839
     25836     25834     25837     25840     25837     25840     25843     25844
     25837     25840     25843     25845     25837     25840     25843     25846
     25838     25837     25840     25841     25838     25837     25840     25842
     25838     25837     25840     25843     25839     25837     25840     25841
     25839     25837     25840     25842     25839     25837     25840     25843
     25840     25843     25846     25847     25840     25843     25846     25848
     25840     25843     25846     25849     25841     25840     25843     25844
     25841     25840     25843     25845     25841     25840     25843     25846
     25842     25840     25843     25844     25842     25840     25843     25845
     25842     25840     25843     25846     25843     25846     25849     25850
     25843     25846     25849     25851     25843     25846     25849     25852
     25844     25843     25846     25847     25844     25843     25846     25848
     25844     25843     25846     25849     25845     25843     25846     25847
     25845     25843     25846     25848     25845     25843     25846     25849
     25846     25849     25852     25853     25846     25849     25852     25854
     25846     25849     25852     25855     25847     25846     25849     25850
     25847     25846     25849     25851     25847     25846     25849     25852
     25848     25846     25849     25850     25848     25846     25849     25851
     25848     25846     25849     25852     25849     25852     25855     25856
     25849     25852     25855     25857     25849     25852     25855     25858
     25850     25849     25852     25853     25850     25849     25852     25854
     25850     25849     25852     25855     25851     25849     25852     25853
     25851     25849     25852     25854     25851     25849     25852     25855
     25852     25855     25858     25859     25852     25855     25858     25860
     25852     25855     25858     25861     25853     25852     25855     25856
     25853     25852     25855     25857     25853     25852     25855     25858
     25854     25852     25855     25856     25854     25852     25855     25857
     25854     25852     25855     25858     25855     25858     25861     25862
     25855     25858     25861     25863     25855     25858     25861     25864
     25856     25855     25858     25859     25856     25855     25858     25860
     25856     25855     25858     25861     25857     25855     25858     25859
     25857     25855     25858     25860     25857     25855     25858     25861
     25859     25858     25861     25862     25859     25858     25861     25863
     25859     25858     25861     25864     25860     25858     25861     25862
     25860     25858     25861     25863     25860     25858     25861     25864
     25865     25866     25881     25882     25865     25866     25881     25883
     25865     25866     25881     25887     25866     25865     25869     25870
     25866     25865     25869     25871     25866     25865     25869     25872
     25866     25865     25873     25874     25866     25865     25873     25875
     25866     25865     25873     25876     25866     25865     25877     25878
     25866     25865     25877     25879     25866     25865     25877     25880
     25866     25881     25887     25884     25867     25866     25865     25869
     25867     25866     25865     25873     25867     25866     25865     25877
     25867     25866     25881     25882     25867     25866     25881     25883
     25867     25866     25881     25887     25868     25866     25865     25869
     25868     25866     25865     25873     25868     25866     25865     25877
     25868     25866     25881     25882     25868     25866     25881     25883
     25868     25866     25881     25887     25869     25865     25866     25881
     25869     25865     25873     25874     25869     25865     25873     25875
     25869     25865     25873     25876     25869     25865     25877     25878
     25869     25865     25877     25879     25869     25865     25877     25880
     25870     25869     25865     25873     25870     25869     25865     25877
     25871     25869     25865     25873     25871     25869     25865     25877
     25872     25869     25865     25873     25872     25869     25865     25877
     25873     25865     25866     25881     25873     25865     25877     25878
     25873     25865     25877     25879     25873     25865     25877     25880
     25874     25873     25865     25877     25875     25873     25865     25877
     25876     25873     25865     25877     25877     25865     25866     25881
     25881     25887     25884     25885     25881     25887     25884     25886
     25881     25887     25884     25888     25882     25881     25887     25884
     25883     25881     25887     25884     25884     25888     25889     25890
     25884     25888     25889     25891     25884     25888     25889     25892
     25885     25884     25888     25889     25886     25884     25888     25889
     25887     25884     25888     25889     25888     25889     25892     25893
     25888     25889     25892     25894     25888     25889     25892     25900
     25889     25892     25894     25895     25889     25892     25900     25901
     25889     25892     25900     25902     25889     25892     25900     25903
     25890     25889     25892     25893     25890     25889     25892     25894
     25890     25889     25892     25900     25891     25889     25892     25893
     25891     25889     25892     25894     25891     25889     25892     25900
     25892     25894     25895     25896     25892     25894     25895     25897
     25892     25900     25903     25904     25893     25892     25894     25895
     25893     25892     25900     25901     25893     25892     25900     25902
     25893     25892     25900     25903     25894     25892     25900     25901
     25894     25892     25900     25902     25894     25892     25900     25903
     25894     25895     25897     25898     25894     25895     25897     25899
     25894     25895     25897     25909     25895     25894     25892     25900
     25895     25897     25909     25910     25895     25897     25909     25911
     25895     25897     25909     25912     25896     25895     25897     25898
     25896     25895     25897     25899     25896     25895     25897     25909
     25897     25909     25912     25913     25897     25909     25912     25914
     25897     25909     25912     25915     25898     25897     25909     25910
     25898     25897     25909     25911     25898     25897     25909     25912
     25899     25897     25909     25910     25899     25897     25909     25911
     25899     25897     25909     25912     25900     25903     25904     25905
     25900     25903     25904     25906     25901     25900     25903     25904
     25902     25900     25903     25904     25903     25904     25906     25907
     25903     25904     25906     25908     25903     25904     25906     25956
     25904     25906     25956     25957     25904     25906     25956     25958
     25904     25906     25956     25959     25905     25904     25906     25907
     25905     25904     25906     25908     25905     25904     25906     25956
     25906     25956     25959     25960     25906     25956     25959     25961
     25906     25956     25959     25962     25907     25906     25956     25957
     25907     25906     25956     25958     25907     25906     25956     25959
     25908     25906     25956     25957     25908     25906     25956     25958
     25908     25906     25956     25959     25909     25912     25915     25916
     25909     25912     25915     25917     25909     25912     25915     25918
     25910     25909     25912     25913     25910     25909     25912     25914
     25910     25909     25912     25915     25911     25909     25912     25913
     25911     25909     25912     25914     25911     25909     25912     25915
     25912     25915     25918     25919     25912     25915     25918     25920
     25912     25915     25918     25921     25913     25912     25915     25916
     25913     25912     25915     25917     25913     25912     25915     25918
     25914     25912     25915     25916     25914     25912     25915     25917
     25914     25912     25915     25918     25915     25918     25921     25922
     25915     25918     25921     25923     25915     25918     25921     25924
     25916     25915     25918     25919     25916     25915     25918     25920
     25916     25915     25918     25921     25917     25915     25918     25919
     25917     25915     25918     25920     25917     25915     25918     25921
     25918     25921     25924     25925     25918     25921     25924     25926
     25918     25921     25924     25927     25919     25918     25921     25922
     25919     25918     25921     25923     25919     25918     25921     25924
     25920     25918     25921     25922     25920     25918     25921     25923
     25920     25918     25921     25924     25921     25924     25927     25928
     25921     25924     25927     25929     25922     25921     25924     25925
     25922     25921     25924     25926     25922     25921     25924     25927
     25923     25921     25924     25925     25923     25921     25924     25926
     25923     25921     25924     25927     25924     25927     25929     25930
     25924     25927     25929     25931     25925     25924     25927     25928
     25925     25924     25927     25929     25926     25924     25927     25928
     25926     25924     25927     25929     25927     25929     25931     25932
     25927     25929     25931     25933     25927     25929     25931     25934
     25928     25927     25929     25930     25928     25927     25929     25931
     25929     25931     25934     25935     25929     25931     25934     25936
     25929     25931     25934     25937     25930     25929     25931     25932
     25930     25929     25931     25933     25930     25929     25931     25934
     25931     25934     25937     25938     25931     25934     25937     25939
     25931     25934     25937     25940     25932     25931     25934     25935
     25932     25931     25934     25936     25932     25931     25934     25937
     25933     25931     25934     25935     25933     25931     25934     25936
     25933     25931     25934     25937     25934     25937     25940     25941
     25934     25937     25940     25942     25934     25937     25940     25943
     25935     25934     25937     25938     25935     25934     25937     25939
     25935     25934     25937     25940     25936     25934     25937     25938
     25936     25934     25937     25939     25936     25934     25937     25940
     25937     25940     25943     25944     25937     25940     25943     25945
     25937     25940     25943     25946     25938     25937     25940     25941
     25938     25937     25940     25942     25938     25937     25940     25943
     25939     25937     25940     25941     25939     25937     25940     25942
     25939     25937     25940     25943     25940     25943     25946     25947
     25940     25943     25946     25948     25940     25943     25946     25949
     25941     25940     25943     25944     25941     25940     25943     25945
     25941     25940     25943     25946     25942     25940     25943     25944
     25942     25940     25943     25945     25942     25940     25943     25946
     25943     25946     25949     25950     25943     25946     25949     25951
     25943     25946     25949     25952     25944     25943     25946     25947
     25944     25943     25946     25948     25944     25943     25946     25949
     25945     25943     25946     25947     25945     25943     25946     25948
     25945     25943     25946     25949     25946     25949     25952     25953
     25946     25949     25952     25954     25946     25949     25952     25955
     25947     25946     25949     25950     25947     25946     25949     25951
     25947     25946     25949     25952     25948     25946     25949     25950
     25948     25946     25949     25951     25948     25946     25949     25952
     25950     25949     25952     25953     25950     25949     25952     25954
     25950     25949     25952     25955     25951     25949     25952     25953
     25951     25949     25952     25954     25951     25949     25952     25955
     25956     25959     25962     25963     25956     25959     25962     25964
     25956     25959     25962     25965     25957     25956     25959     25960
     25957     25956     25959     25961     25957     25956     25959     25962
     25958     25956     25959     25960     25958     25956     25959     25961
     25958     25956     25959     25962     25959     25962     25965     25966
     25959     25962     25965     25967     25959     25962     25965     25968
     25960     25959     25962     25963     25960     25959     25962     25964
     25960     25959     25962     25965     25961     25959     25962     25963
     25961     25959     25962     25964     25961     25959     25962     25965
     25962     25965     25968     25969     25962     25965     25968     25970
     25962     25965     25968     25971     25963     25962     25965     25966
     25963     25962     25965     25967     25963     25962     25965     25968
     25964     25962     25965     25966     25964     25962     25965     25967
     25964     25962     25965     25968     25965     25968     25971     25972
     25965     25968     25971     25973     25965     25968     25971     25974
     25966     25965     25968     25969     25966     25965     25968     25970
     25966     25965     25968     25971     25967     25965     25968     25969
     25967     25965     25968     25970     25967     25965     25968     25971
     25968     25971     25974     25975     25968     25971     25974     25976
     25968     25971     25974     25977     25969     25968     25971     25972
     25969     25968     25971     25973     25969     25968     25971     25974
     25970     25968     25971     25972     25970     25968     25971     25973
     25970     25968     25971     25974     25971     25974     25977     25978
     25971     25974     25977     25979     25971     25974     25977     25980
     25972     25971     25974     25975     25972     25971     25974     25976
     25972     25971     25974     25977     25973     25971     25974     25975
     25973     25971     25974     25976     25973     25971     25974     25977
     25974     25977     25980     25981     25974     25977     25980     25982
     25974     25977     25980     25983     25975     25974     25977     25978
     25975     25974     25977     25979     25975     25974     25977     25980
     25976     25974     25977     25978     25976     25974     25977     25979
     25976     25974     25977     25980     25977     25980     25983     25984
     25977     25980     25983     25985     25977     25980     25983     25986
     25978     25977     25980     25981     25978     25977     25980     25982
     25978     25977     25980     25983     25979     25977     25980     25981
     25979     25977     25980     25982     25979     25977     25980     25983
     25980     25983     25986     25987     25980     25983     25986     25988
     25980     25983     25986     25989     25981     25980     25983     25984
     25981     25980     25983     25985     25981     25980     25983     25986
     25982     25980     25983     25984     25982     25980     25983     25985
     25982     25980     25983     25986     25983     25986     25989     25990
     25983     25986     25989     25991     25983     25986     25989     25992
     25984     25983     25986     25987     25984     25983     25986     25988
     25984     25983     25986     25989     25985     25983     25986     25987
     25985     25983     25986     25988     25985     25983     25986     25989
     25986     25989     25992     25993     25986     25989     25992     25994
     25986     25989     25992     25995     25987     25986     25989     25990
     25987     25986     25989     25991     25987     25986     25989     25992
     25988     25986     25989     25990     25988     25986     25989     25991
     25988     25986     25989     25992     25989     25992     25995     25996
     25989     25992     25995     25997     25989     25992     25995     25998
     25990     25989     25992     25993     25990     25989     25992     25994
     25990     25989     25992     25995     25991     25989     25992     25993
     25991     25989     25992     25994     25991     25989     25992     25995
     25993     25992     25995     25996     25993     25992     25995     25997
     25993     25992     25995     25998     25994     25992     25995     25996
     25994     25992     25995     25997     25994     25992     25995     25998
     25999     26003     26005     26006     25999     26003     26005     26007
     25999     26003     26008     26009     25999     26003     26008     26010
     25999     26003     26008     26014     26000     25999     26003     26004
     26000     25999     26003     26005     26000     25999     26003     26008
     26001     25999     26003     26004     26001     25999     26003     26005
     26001     25999     26003     26008     26002     25999     26003     26004
     26002     25999     26003     26005     26002     25999     26003     26008
     26003     26008     26014     26011     26004     26003     26005     26006
     26004     26003     26005     26007     26004     26003     26008     26009
     26004     26003     26008     26010     26004     26003     26008     26014
     26005     26003     26008     26009     26005     26003     26008     26010
     26005     26003     26008     26014     26006     26005     26003     26008
     26007     26005     26003     26008     26008     26014     26011     26012
     26008     26014     26011     26013     26008     26014     26011     26015
     26009     26008     26014     26011     26010     26008     26014     26011
     26011     26015     26016     26017     26011     26015     26016     26018
     26011     26015     26016     26019     26012     26011     26015     26016
     26013     26011     26015     26016     26014     26011     26015     26016
     26015     26016     26019     26020     26015     26016     26019     26021
     26015     26016     26019     26027     26016     26019     26021     26022
     26016     26019     26027     26028     26016     26019     26027     26029
     26016     26019     26027     26030     26017     26016     26019     26020
     26017     26016     26019     26021     26017     26016     26019     26027
     26018     26016     26019     26020     26018     26016     26019     26021
     26018     26016     26019     26027     26019     26021     26022     26023
     26019     26021     26022     26024     26019     26027     26030     26031
     26020     26019     26021     26022     26020     26019     26027     26028
     26020     26019     26027     26029     26020     26019     26027     26030
     26021     26019     26027     26028     26021     26019     26027     26029
     26021     26019     26027     26030     26021     26022     26024     26025
     26021     26022     26024     26026     26021     26022     26024     26036
     26022     26021     26019     26027     26022     26024     26036     26037
     26022     26024     26036     26038     26022     26024     26036     26039
     26023     26022     26024     26025     26023     26022     26024     26026
     26023     26022     26024     26036     26024     26036     26039     26040
     26024     26036     26039     26041     26024     26036     26039     26042
     26025     26024     26036     26037     26025     26024     26036     26038
     26025     26024     26036     26039     26026     26024     26036     26037
     26026     26024     26036     26038     26026     26024     26036     26039
     26027     26030     26031     26032     26027     26030     26031     26033
     26028     26027     26030     26031     26029     26027     26030     26031
     26030     26031     26033     26034     26030     26031     26033     26035
     26030     26031     26033     26083     26031     26033     26083     26084
     26031     26033     26083     26085     26031     26033     26083     26086
     26032     26031     26033     26034     26032     26031     26033     26035
     26032     26031     26033     26083     26033     26083     26086     26087
     26033     26083     26086     26088     26033     26083     26086     26089
     26034     26033     26083     26084     26034     26033     26083     26085
     26034     26033     26083     26086     26035     26033     26083     26084
     26035     26033     26083     26085     26035     26033     26083     26086
     26036     26039     26042     26043     26036     26039     26042     26044
     26036     26039     26042     26045     26037     26036     26039     26040
     26037     26036     26039     26041     26037     26036     26039     26042
     26038     26036     26039     26040     26038     26036     26039     26041
     26038     26036     26039     26042     26039     26042     26045     26046
     26039     26042     26045     26047     26039     26042     26045     26048
     26040     26039     26042     26043     26040     26039     26042     26044
     26040     26039     26042     26045     26041     26039     26042     26043
     26041     26039     26042     26044     26041     26039     26042     26045
     26042     26045     26048     26049     26042     26045     26048     26050
     26042     26045     26048     26051     26043     26042     26045     26046
     26043     26042     26045     26047     26043     26042     26045     26048
     26044     26042     26045     26046     26044     26042     26045     26047
     26044     26042     26045     26048     26045     26048     26051     26052
     26045     26048     26051     26053     26045     26048     26051     26054
     26046     26045     26048     26049     26046     26045     26048     26050
     26046     26045     26048     26051     26047     26045     26048     26049
     26047     26045     26048     26050     26047     26045     26048     26051
     26048     26051     26054     26055     26048     26051     26054     26056
     26049     26048     26051     26052     26049     26048     26051     26053
     26049     26048     26051     26054     26050     26048     26051     26052
     26050     26048     26051     26053     26050     26048     26051     26054
     26051     26054     26056     26057     26051     26054     26056     26058
     26052     26051     26054     26055     26052     26051     26054     26056
     26053     26051     26054     26055     26053     26051     26054     26056
     26054     26056     26058     26059     26054     26056     26058     26060
     26054     26056     26058     26061     26055     26054     26056     26057
     26055     26054     26056     26058     26056     26058     26061     26062
     26056     26058     26061     26063     26056     26058     26061     26064
     26057     26056     26058     26059     26057     26056     26058     26060
     26057     26056     26058     26061     26058     26061     26064     26065
     26058     26061     26064     26066     26058     26061     26064     26067
     26059     26058     26061     26062     26059     26058     26061     26063
     26059     26058     26061     26064     26060     26058     26061     26062
     26060     26058     26061     26063     26060     26058     26061     26064
     26061     26064     26067     26068     26061     26064     26067     26069
     26061     26064     26067     26070     26062     26061     26064     26065
     26062     26061     26064     26066     26062     26061     26064     26067
     26063     26061     26064     26065     26063     26061     26064     26066
     26063     26061     26064     26067     26064     26067     26070     26071
     26064     26067     26070     26072     26064     26067     26070     26073
     26065     26064     26067     26068     26065     26064     26067     26069
     26065     26064     26067     26070     26066     26064     26067     26068
     26066     26064     26067     26069     26066     26064     26067     26070
     26067     26070     26073     26074     26067     26070     26073     26075
     26067     26070     26073     26076     26068     26067     26070     26071
     26068     26067     26070     26072     26068     26067     26070     26073
     26069     26067     26070     26071     26069     26067     26070     26072
     26069     26067     26070     26073     26070     26073     26076     26077
     26070     26073     26076     26078     26070     26073     26076     26079
     26071     26070     26073     26074     26071     26070     26073     26075
     26071     26070     26073     26076     26072     26070     26073     26074
     26072     26070     26073     26075     26072     26070     26073     26076
     26073     26076     26079     26080     26073     26076     26079     26081
     26073     26076     26079     26082     26074     26073     26076     26077
     26074     26073     26076     26078     26074     26073     26076     26079
     26075     26073     26076     26077     26075     26073     26076     26078
     26075     26073     26076     26079     26077     26076     26079     26080
     26077     26076     26079     26081     26077     26076     26079     26082
     26078     26076     26079     26080     26078     26076     26079     26081
     26078     26076     26079     26082     26083     26086     26089     26090
     26083     26086     26089     26091     26083     26086     26089     26092
     26084     26083     26086     26087     26084     26083     26086     26088
     26084     26083     26086     26089     26085     26083     26086     26087
     26085     26083     26086     26088     26085     26083     26086     26089
     26086     26089     26092     26093     26086     26089     26092     26094
     26086     26089     26092     26095     26087     26086     26089     26090
     26087     26086     26089     26091     26087     26086     26089     26092
     26088     26086     26089     26090     26088     26086     26089     26091
     26088     26086     26089     26092     26089     26092     26095     26096
     26089     26092     26095     26097     26089     26092     26095     26098
     26090     26089     26092     26093     26090     26089     26092     26094
     26090     26089     26092     26095     26091     26089     26092     26093
     26091     26089     26092     26094     26091     26089     26092     26095
     26092     26095     26098     26099     26092     26095     26098     26100
     26092     26095     26098     26101     26093     26092     26095     26096
     26093     26092     26095     26097     26093     26092     26095     26098
     26094     26092     26095     26096     26094     26092     26095     26097
     26094     26092     26095     26098     26095     26098     26101     26102
     26095     26098     26101     26103     26095     26098     26101     26104
     26096     26095     26098     26099     26096     26095     26098     26100
     26096     26095     26098     26101     26097     26095     26098     26099
     26097     26095     26098     26100     26097     26095     26098     26101
     26098     26101     26104     26105     26098     26101     26104     26106
     26098     26101     26104     26107     26099     26098     26101     26102
     26099     26098     26101     26103     26099     26098     26101     26104
     26100     26098     26101     26102     26100     26098     26101     26103
     26100     26098     26101     26104     26101     26104     26107     26108
     26101     26104     26107     26109     26101     26104     26107     26110
     26102     26101     26104     26105     26102     26101     26104     26106
     26102     26101     26104     26107     26103     26101     26104     26105
     26103     26101     26104     26106     26103     26101     26104     26107
     26104     26107     26110     26111     26104     26107     26110     26112
     26104     26107     26110     26113     26105     26104     26107     26108
     26105     26104     26107     26109     26105     26104     26107     26110
     26106     26104     26107     26108     26106     26104     26107     26109
     26106     26104     26107     26110     26107     26110     26113     26114
     26107     26110     26113     26115     26107     26110     26113     26116
     26108     26107     26110     26111     26108     26107     26110     26112
     26108     26107     26110     26113     26109     26107     26110     26111
     26109     26107     26110     26112     26109     26107     26110     26113
     26110     26113     26116     26117     26110     26113     26116     26118
     26110     26113     26116     26119     26111     26110     26113     26114
     26111     26110     26113     26115     26111     26110     26113     26116
     26112     26110     26113     26114     26112     26110     26113     26115
     26112     26110     26113     26116     26113     26116     26119     26120
     26113     26116     26119     26121     26113     26116     26119     26122
     26114     26113     26116     26117     26114     26113     26116     26118
     26114     26113     26116     26119     26115     26113     26116     26117
     26115     26113     26116     26118     26115     26113     26116     26119
     26116     26119     26122     26123     26116     26119     26122     26124
     26116     26119     26122     26125     26117     26116     26119     26120
     26117     26116     26119     26121     26117     26116     26119     26122
     26118     26116     26119     26120     26118     26116     26119     26121
     26118     26116     26119     26122     26120     26119     26122     26123
     26120     26119     26122     26124     26120     26119     26122     26125
     26121     26119     26122     26123     26121     26119     26122     26124
     26121     26119     26122     26125     26126     26127     26142     26143
     26126     26127     26142     26144     26126     26127     26142     26148
     26127     26126     26130     26131     26127     26126     26130     26132
     26127     26126     26130     26133     26127     26126     26134     26135
     26127     26126     26134     26136     26127     26126     26134     26137
     26127     26126     26138     26139     26127     26126     26138     26140
     26127     26126     26138     26141     26127     26142     26148     26145
     26128     26127     26126     26130     26128     26127     26126     26134
     26128     26127     26126     26138     26128     26127     26142     26143
     26128     26127     26142     26144     26128     26127     26142     26148
     26129     26127     26126     26130     26129     26127     26126     26134
     26129     26127     26126     26138     26129     26127     26142     26143
     26129     26127     26142     26144     26129     26127     26142     26148
     26130     26126     26127     26142     26130     26126     26134     26135
     26130     26126     26134     26136     26130     26126     26134     26137
     26130     26126     26138     26139     26130     26126     26138     26140
     26130     26126     26138     26141     26131     26130     26126     26134
     26131     26130     26126     26138     26132     26130     26126     26134
     26132     26130     26126     26138     26133     26130     26126     26134
     26133     26130     26126     26138     26134     26126     26127     26142
     26134     26126     26138     26139     26134     26126     26138     26140
     26134     26126     26138     26141     26135     26134     26126     26138
     26136     26134     26126     26138     26137     26134     26126     26138
     26138     26126     26127     26142     26142     26148     26145     26146
     26142     26148     26145     26147     26142     26148     26145     26149
     26143     26142     26148     26145     26144     26142     26148     26145
     26145     26149     26150     26151     26145     26149     26150     26152
     26145     26149     26150     26153     26146     26145     26149     26150
     26147     26145     26149     26150     26148     26145     26149     26150
     26149     26150     26153     26154     26149     26150     26153     26155
     26149     26150     26153     26161     26150     26153     26155     26156
     26150     26153     26161     26162     26150     26153     26161     26163
     26150     26153     26161     26164     26151     26150     26153     26154
     26151     26150     26153     26155     26151     26150     26153     26161
     26152     26150     26153     26154     26152     26150     26153     26155
     26152     26150     26153     26161     26153     26155     26156     26157
     26153     26155     26156     26158     26153     26161     26164     26165
     26154     26153     26155     26156     26154     26153     26161     26162
     26154     26153     26161     26163     26154     26153     26161     26164
     26155     26153     26161     26162     26155     26153     26161     26163
     26155     26153     26161     26164     26155     26156     26158     26159
     26155     26156     26158     26160     26155     26156     26158     26170
     26156     26155     26153     26161     26156     26158     26170     26171
     26156     26158     26170     26172     26156     26158     26170     26173
     26157     26156     26158     26159     26157     26156     26158     26160
     26157     26156     26158     26170     26158     26170     26173     26174
     26158     26170     26173     26175     26158     26170     26173     26176
     26159     26158     26170     26171     26159     26158     26170     26172
     26159     26158     26170     26173     26160     26158     26170     26171
     26160     26158     26170     26172     26160     26158     26170     26173
     26161     26164     26165     26166     26161     26164     26165     26167
     26162     26161     26164     26165     26163     26161     26164     26165
     26164     26165     26167     26168     26164     26165     26167     26169
     26164     26165     26167     26217     26165     26167     26217     26218
     26165     26167     26217     26219     26165     26167     26217     26220
     26166     26165     26167     26168     26166     26165     26167     26169
     26166     26165     26167     26217     26167     26217     26220     26221
     26167     26217     26220     26222     26167     26217     26220     26223
     26168     26167     26217     26218     26168     26167     26217     26219
     26168     26167     26217     26220     26169     26167     26217     26218
     26169     26167     26217     26219     26169     26167     26217     26220
     26170     26173     26176     26177     26170     26173     26176     26178
     26170     26173     26176     26179     26171     26170     26173     26174
     26171     26170     26173     26175     26171     26170     26173     26176
     26172     26170     26173     26174     26172     26170     26173     26175
     26172     26170     26173     26176     26173     26176     26179     26180
     26173     26176     26179     26181     26173     26176     26179     26182
     26174     26173     26176     26177     26174     26173     26176     26178
     26174     26173     26176     26179     26175     26173     26176     26177
     26175     26173     26176     26178     26175     26173     26176     26179
     26176     26179     26182     26183     26176     26179     26182     26184
     26176     26179     26182     26185     26177     26176     26179     26180
     26177     26176     26179     26181     26177     26176     26179     26182
     26178     26176     26179     26180     26178     26176     26179     26181
     26178     26176     26179     26182     26179     26182     26185     26186
     26179     26182     26185     26187     26179     26182     26185     26188
     26180     26179     26182     26183     26180     26179     26182     26184
     26180     26179     26182     26185     26181     26179     26182     26183
     26181     26179     26182     26184     26181     26179     26182     26185
     26182     26185     26188     26189     26182     26185     26188     26190
     26183     26182     26185     26186     26183     26182     26185     26187
     26183     26182     26185     26188     26184     26182     26185     26186
     26184     26182     26185     26187     26184     26182     26185     26188
     26185     26188     26190     26191     26185     26188     26190     26192
     26186     26185     26188     26189     26186     26185     26188     26190
     26187     26185     26188     26189     26187     26185     26188     26190
     26188     26190     26192     26193     26188     26190     26192     26194
     26188     26190     26192     26195     26189     26188     26190     26191
     26189     26188     26190     26192     26190     26192     26195     26196
     26190     26192     26195     26197     26190     26192     26195     26198
     26191     26190     26192     26193     26191     26190     26192     26194
     26191     26190     26192     26195     26192     26195     26198     26199
     26192     26195     26198     26200     26192     26195     26198     26201
     26193     26192     26195     26196     26193     26192     26195     26197
     26193     26192     26195     26198     26194     26192     26195     26196
     26194     26192     26195     26197     26194     26192     26195     26198
     26195     26198     26201     26202     26195     26198     26201     26203
     26195     26198     26201     26204     26196     26195     26198     26199
     26196     26195     26198     26200     26196     26195     26198     26201
     26197     26195     26198     26199     26197     26195     26198     26200
     26197     26195     26198     26201     26198     26201     26204     26205
     26198     26201     26204     26206     26198     26201     26204     26207
     26199     26198     26201     26202     26199     26198     26201     26203
     26199     26198     26201     26204     26200     26198     26201     26202
     26200     26198     26201     26203     26200     26198     26201     26204
     26201     26204     26207     26208     26201     26204     26207     26209
     26201     26204     26207     26210     26202     26201     26204     26205
     26202     26201     26204     26206     26202     26201     26204     26207
     26203     26201     26204     26205     26203     26201     26204     26206
     26203     26201     26204     26207     26204     26207     26210     26211
     26204     26207     26210     26212     26204     26207     26210     26213
     26205     26204     26207     26208     26205     26204     26207     26209
     26205     26204     26207     26210     26206     26204     26207     26208
     26206     26204     26207     26209     26206     26204     26207     26210
     26207     26210     26213     26214     26207     26210     26213     26215
     26207     26210     26213     26216     26208     26207     26210     26211
     26208     26207     26210     26212     26208     26207     26210     26213
     26209     26207     26210     26211     26209     26207     26210     26212
     26209     26207     26210     26213     26211     26210     26213     26214
     26211     26210     26213     26215     26211     26210     26213     26216
     26212     26210     26213     26214     26212     26210     26213     26215
     26212     26210     26213     26216     26217     26220     26223     26224
     26217     26220     26223     26225     26217     26220     26223     26226
     26218     26217     26220     26221     26218     26217     26220     26222
     26218     26217     26220     26223     26219     26217     26220     26221
     26219     26217     26220     26222     26219     26217     26220     26223
     26220     26223     26226     26227     26220     26223     26226     26228
     26220     26223     26226     26229     26221     26220     26223     26224
     26221     26220     26223     26225     26221     26220     26223     26226
     26222     26220     26223     26224     26222     26220     26223     26225
     26222     26220     26223     26226     26223     26226     26229     26230
     26223     26226     26229     26231     26223     26226     26229     26232
     26224     26223     26226     26227     26224     26223     26226     26228
     26224     26223     26226     26229     26225     26223     26226     26227
     26225     26223     26226     26228     26225     26223     26226     26229
     26226     26229     26232     26233     26226     26229     26232     26234
     26226     26229     26232     26235     26227     26226     26229     26230
     26227     26226     26229     26231     26227     26226     26229     26232
     26228     26226     26229     26230     26228     26226     26229     26231
     26228     26226     26229     26232     26229     26232     26235     26236
     26229     26232     26235     26237     26229     26232     26235     26238
     26230     26229     26232     26233     26230     26229     26232     26234
     26230     26229     26232     26235     26231     26229     26232     26233
     26231     26229     26232     26234     26231     26229     26232     26235
     26232     26235     26238     26239     26232     26235     26238     26240
     26232     26235     26238     26241     26233     26232     26235     26236
     26233     26232     26235     26237     26233     26232     26235     26238
     26234     26232     26235     26236     26234     26232     26235     26237
     26234     26232     26235     26238     26235     26238     26241     26242
     26235     26238     26241     26243     26235     26238     26241     26244
     26236     26235     26238     26239     26236     26235     26238     26240
     26236     26235     26238     26241     26237     26235     26238     26239
     26237     26235     26238     26240     26237     26235     26238     26241
     26238     26241     26244     26245     26238     26241     26244     26246
     26238     26241     26244     26247     26239     26238     26241     26242
     26239     26238     26241     26243     26239     26238     26241     26244
     26240     26238     26241     26242     26240     26238     26241     26243
     26240     26238     26241     26244     26241     26244     26247     26248
     26241     26244     26247     26249     26241     26244     26247     26250
     26242     26241     26244     26245     26242     26241     26244     26246
     26242     26241     26244     26247     26243     26241     26244     26245
     26243     26241     26244     26246     26243     26241     26244     26247
     26244     26247     26250     26251     26244     26247     26250     26252
     26244     26247     26250     26253     26245     26244     26247     26248
     26245     26244     26247     26249     26245     26244     26247     26250
     26246     26244     26247     26248     26246     26244     26247     26249
     26246     26244     26247     26250     26247     26250     26253     26254
     26247     26250     26253     26255     26247     26250     26253     26256
     26248     26247     26250     26251     26248     26247     26250     26252
     26248     26247     26250     26253     26249     26247     26250     26251
     26249     26247     26250     26252     26249     26247     26250     26253
     26250     26253     26256     26257     26250     26253     26256     26258
     26250     26253     26256     26259     26251     26250     26253     26254
     26251     26250     26253     26255     26251     26250     26253     26256
     26252     26250     26253     26254     26252     26250     26253     26255
     26252     26250     26253     26256     26254     26253     26256     26257
     26254     26253     26256     26258     26254     26253     26256     26259
     26255     26253     26256     26257     26255     26253     26256     26258
     26255     26253     26256     26259     26260     26264     26266     26267
     26260     26264     26266     26268     26260     26264     26269     26270
     26260     26264     26269     26271     26260     26264     26269     26275
     26261     26260     26264     26265     26261     26260     26264     26266
     26261     26260     26264     26269     26262     26260     26264     26265
     26262     26260     26264     26266     26262     26260     26264     26269
     26263     26260     26264     26265     26263     26260     26264     26266
     26263     26260     26264     26269     26264     26269     26275     26272
     26265     26264     26266     26267     26265     26264     26266     26268
     26265     26264     26269     26270     26265     26264     26269     26271
     26265     26264     26269     26275     26266     26264     26269     26270
     26266     26264     26269     26271     26266     26264     26269     26275
     26267     26266     26264     26269     26268     26266     26264     26269
     26269     26275     26272     26273     26269     26275     26272     26274
     26269     26275     26272     26276     26270     26269     26275     26272
     26271     26269     26275     26272     26272     26276     26277     26278
     26272     26276     26277     26279     26272     26276     26277     26280
     26273     26272     26276     26277     26274     26272     26276     26277
     26275     26272     26276     26277     26276     26277     26280     26281
     26276     26277     26280     26282     26276     26277     26280     26288
     26277     26280     26282     26283     26277     26280     26288     26289
     26277     26280     26288     26290     26277     26280     26288     26291
     26278     26277     26280     26281     26278     26277     26280     26282
     26278     26277     26280     26288     26279     26277     26280     26281
     26279     26277     26280     26282     26279     26277     26280     26288
     26280     26282     26283     26284     26280     26282     26283     26285
     26280     26288     26291     26292     26281     26280     26282     26283
     26281     26280     26288     26289     26281     26280     26288     26290
     26281     26280     26288     26291     26282     26280     26288     26289
     26282     26280     26288     26290     26282     26280     26288     26291
     26282     26283     26285     26286     26282     26283     26285     26287
     26282     26283     26285     26297     26283     26282     26280     26288
     26283     26285     26297     26298     26283     26285     26297     26299
     26283     26285     26297     26300     26284     26283     26285     26286
     26284     26283     26285     26287     26284     26283     26285     26297
     26285     26297     26300     26301     26285     26297     26300     26302
     26285     26297     26300     26303     26286     26285     26297     26298
     26286     26285     26297     26299     26286     26285     26297     26300
     26287     26285     26297     26298     26287     26285     26297     26299
     26287     26285     26297     26300     26288     26291     26292     26293
     26288     26291     26292     26294     26289     26288     26291     26292
     26290     26288     26291     26292     26291     26292     26294     26295
     26291     26292     26294     26296     26291     26292     26294     26344
     26292     26294     26344     26345     26292     26294     26344     26346
     26292     26294     26344     26347     26293     26292     26294     26295
     26293     26292     26294     26296     26293     26292     26294     26344
     26294     26344     26347     26348     26294     26344     26347     26349
     26294     26344     26347     26350     26295     26294     26344     26345
     26295     26294     26344     26346     26295     26294     26344     26347
     26296     26294     26344     26345     26296     26294     26344     26346
     26296     26294     26344     26347     26297     26300     26303     26304
     26297     26300     26303     26305     26297     26300     26303     26306
     26298     26297     26300     26301     26298     26297     26300     26302
     26298     26297     26300     26303     26299     26297     26300     26301
     26299     26297     26300     26302     26299     26297     26300     26303
     26300     26303     26306     26307     26300     26303     26306     26308
     26300     26303     26306     26309     26301     26300     26303     26304
     26301     26300     26303     26305     26301     26300     26303     26306
     26302     26300     26303     26304     26302     26300     26303     26305
     26302     26300     26303     26306     26303     26306     26309     26310
     26303     26306     26309     26311     26303     26306     26309     26312
     26304     26303     26306     26307     26304     26303     26306     26308
     26304     26303     26306     26309     26305     26303     26306     26307
     26305     26303     26306     26308     26305     26303     26306     26309
     26306     26309     26312     26313     26306     26309     26312     26314
     26306     26309     26312     26315     26307     26306     26309     26310
     26307     26306     26309     26311     26307     26306     26309     26312
     26308     26306     26309     26310     26308     26306     26309     26311
     26308     26306     26309     26312     26309     26312     26315     26316
     26309     26312     26315     26317     26310     26309     26312     26313
     26310     26309     26312     26314     26310     26309     26312     26315
     26311     26309     26312     26313     26311     26309     26312     26314
     26311     26309     26312     26315     26312     26315     26317     26318
     26312     26315     26317     26319     26313     26312     26315     26316
     26313     26312     26315     26317     26314     26312     26315     26316
     26314     26312     26315     26317     26315     26317     26319     26320
     26315     26317     26319     26321     26315     26317     26319     26322
     26316     26315     26317     26318     26316     26315     26317     26319
     26317     26319     26322     26323     26317     26319     26322     26324
     26317     26319     26322     26325     26318     26317     26319     26320
     26318     26317     26319     26321     26318     26317     26319     26322
     26319     26322     26325     26326     26319     26322     26325     26327
     26319     26322     26325     26328     26320     26319     26322     26323
     26320     26319     26322     26324     26320     26319     26322     26325
     26321     26319     26322     26323     26321     26319     26322     26324
     26321     26319     26322     26325     26322     26325     26328     26329
     26322     26325     26328     26330     26322     26325     26328     26331
     26323     26322     26325     26326     26323     26322     26325     26327
     26323     26322     26325     26328     26324     26322     26325     26326
     26324     26322     26325     26327     26324     26322     26325     26328
     26325     26328     26331     26332     26325     26328     26331     26333
     26325     26328     26331     26334     26326     26325     26328     26329
     26326     26325     26328     26330     26326     26325     26328     26331
     26327     26325     26328     26329     26327     26325     26328     26330
     26327     26325     26328     26331     26328     26331     26334     26335
     26328     26331     26334     26336     26328     26331     26334     26337
     26329     26328     26331     26332     26329     26328     26331     26333
     26329     26328     26331     26334     26330     26328     26331     26332
     26330     26328     26331     26333     26330     26328     26331     26334
     26331     26334     26337     26338     26331     26334     26337     26339
     26331     26334     26337     26340     26332     26331     26334     26335
     26332     26331     26334     26336     26332     26331     26334     26337
     26333     26331     26334     26335     26333     26331     26334     26336
     26333     26331     26334     26337     26334     26337     26340     26341
     26334     26337     26340     26342     26334     26337     26340     26343
     26335     26334     26337     26338     26335     26334     26337     26339
     26335     26334     26337     26340     26336     26334     26337     26338
     26336     26334     26337     26339     26336     26334     26337     26340
     26338     26337     26340     26341     26338     26337     26340     26342
     26338     26337     26340     26343     26339     26337     26340     26341
     26339     26337     26340     26342     26339     26337     26340     26343
     26344     26347     26350     26351     26344     26347     26350     26352
     26344     26347     26350     26353     26345     26344     26347     26348
     26345     26344     26347     26349     26345     26344     26347     26350
     26346     26344     26347     26348     26346     26344     26347     26349
     26346     26344     26347     26350     26347     26350     26353     26354
     26347     26350     26353     26355     26347     26350     26353     26356
     26348     26347     26350     26351     26348     26347     26350     26352
     26348     26347     26350     26353     26349     26347     26350     26351
     26349     26347     26350     26352     26349     26347     26350     26353
     26350     26353     26356     26357     26350     26353     26356     26358
     26350     26353     26356     26359     26351     26350     26353     26354
     26351     26350     26353     26355     26351     26350     26353     26356
     26352     26350     26353     26354     26352     26350     26353     26355
     26352     26350     26353     26356     26353     26356     26359     26360
     26353     26356     26359     26361     26353     26356     26359     26362
     26354     26353     26356     26357     26354     26353     26356     26358
     26354     26353     26356     26359     26355     26353     26356     26357
     26355     26353     26356     26358     26355     26353     26356     26359
     26356     26359     26362     26363     26356     26359     26362     26364
     26356     26359     26362     26365     26357     26356     26359     26360
     26357     26356     26359     26361     26357     26356     26359     26362
     26358     26356     26359     26360     26358     26356     26359     26361
     26358     26356     26359     26362     26359     26362     26365     26366
     26359     26362     26365     26367     26359     26362     26365     26368
     26360     26359     26362     26363     26360     26359     26362     26364
     26360     26359     26362     26365     26361     26359     26362     26363
     26361     26359     26362     26364     26361     26359     26362     26365
     26362     26365     26368     26369     26362     26365     26368     26370
     26362     26365     26368     26371     26363     26362     26365     26366
     26363     26362     26365     26367     26363     26362     26365     26368
     26364     26362     26365     26366     26364     26362     26365     26367
     26364     26362     26365     26368     26365     26368     26371     26372
     26365     26368     26371     26373     26365     26368     26371     26374
     26366     26365     26368     26369     26366     26365     26368     26370
     26366     26365     26368     26371     26367     26365     26368     26369
     26367     26365     26368     26370     26367     26365     26368     26371
     26368     26371     26374     26375     26368     26371     26374     26376
     26368     26371     26374     26377     26369     26368     26371     26372
     26369     26368     26371     26373     26369     26368     26371     26374
     26370     26368     26371     26372     26370     26368     26371     26373
     26370     26368     26371     26374     26371     26374     26377     26378
     26371     26374     26377     26379     26371     26374     26377     26380
     26372     26371     26374     26375     26372     26371     26374     26376
     26372     26371     26374     26377     26373     26371     26374     26375
     26373     26371     26374     26376     26373     26371     26374     26377
     26374     26377     26380     26381     26374     26377     26380     26382
     26374     26377     26380     26383     26375     26374     26377     26378
     26375     26374     26377     26379     26375     26374     26377     26380
     26376     26374     26377     26378     26376     26374     26377     26379
     26376     26374     26377     26380     26377     26380     26383     26384
     26377     26380     26383     26385     26377     26380     26383     26386
     26378     26377     26380     26381     26378     26377     26380     26382
     26378     26377     26380     26383     26379     26377     26380     26381
     26379     26377     26380     26382     26379     26377     26380     26383
     26381     26380     26383     26384     26381     26380     26383     26385
     26381     26380     26383     26386     26382     26380     26383     26384
     26382     26380     26383     26385     26382     26380     26383     26386
     26387     26391     26393     26394     26387     26391     26393     26395
     26387     26391     26396     26397     26387     26391     26396     26398
     26387     26391     26396     26402     26388     26387     26391     26392
     26388     26387     26391     26393     26388     26387     26391     26396
     26389     26387     26391     26392     26389     26387     26391     26393
     26389     26387     26391     26396     26390     26387     26391     26392
     26390     26387     26391     26393     26390     26387     26391     26396
     26391     26396     26402     26399     26392     26391     26393     26394
     26392     26391     26393     26395     26392     26391     26396     26397
     26392     26391     26396     26398     26392     26391     26396     26402
     26393     26391     26396     26397     26393     26391     26396     26398
     26393     26391     26396     26402     26394     26393     26391     26396
     26395     26393     26391     26396     26396     26402     26399     26400
     26396     26402     26399     26401     26396     26402     26399     26403
     26397     26396     26402     26399     26398     26396     26402     26399
     26399     26403     26404     26405     26399     26403     26404     26406
     26399     26403     26404     26407     26400     26399     26403     26404
     26401     26399     26403     26404     26402     26399     26403     26404
     26403     26404     26407     26408     26403     26404     26407     26409
     26403     26404     26407     26415     26404     26407     26409     26410
     26404     26407     26415     26416     26404     26407     26415     26417
     26404     26407     26415     26418     26405     26404     26407     26408
     26405     26404     26407     26409     26405     26404     26407     26415
     26406     26404     26407     26408     26406     26404     26407     26409
     26406     26404     26407     26415     26407     26409     26410     26411
     26407     26409     26410     26412     26407     26415     26418     26419
     26408     26407     26409     26410     26408     26407     26415     26416
     26408     26407     26415     26417     26408     26407     26415     26418
     26409     26407     26415     26416     26409     26407     26415     26417
     26409     26407     26415     26418     26409     26410     26412     26413
     26409     26410     26412     26414     26409     26410     26412     26424
     26410     26409     26407     26415     26410     26412     26424     26425
     26410     26412     26424     26426     26410     26412     26424     26427
     26411     26410     26412     26413     26411     26410     26412     26414
     26411     26410     26412     26424     26412     26424     26427     26428
     26412     26424     26427     26429     26412     26424     26427     26430
     26413     26412     26424     26425     26413     26412     26424     26426
     26413     26412     26424     26427     26414     26412     26424     26425
     26414     26412     26424     26426     26414     26412     26424     26427
     26415     26418     26419     26420     26415     26418     26419     26421
     26416     26415     26418     26419     26417     26415     26418     26419
     26418     26419     26421     26422     26418     26419     26421     26423
     26418     26419     26421     26471     26419     26421     26471     26472
     26419     26421     26471     26473     26419     26421     26471     26474
     26420     26419     26421     26422     26420     26419     26421     26423
     26420     26419     26421     26471     26421     26471     26474     26475
     26421     26471     26474     26476     26421     26471     26474     26477
     26422     26421     26471     26472     26422     26421     26471     26473
     26422     26421     26471     26474     26423     26421     26471     26472
     26423     26421     26471     26473     26423     26421     26471     26474
     26424     26427     26430     26431     26424     26427     26430     26432
     26424     26427     26430     26433     26425     26424     26427     26428
     26425     26424     26427     26429     26425     26424     26427     26430
     26426     26424     26427     26428     26426     26424     26427     26429
     26426     26424     26427     26430     26427     26430     26433     26434
     26427     26430     26433     26435     26427     26430     26433     26436
     26428     26427     26430     26431     26428     26427     26430     26432
     26428     26427     26430     26433     26429     26427     26430     26431
     26429     26427     26430     26432     26429     26427     26430     26433
     26430     26433     26436     26437     26430     26433     26436     26438
     26430     26433     26436     26439     26431     26430     26433     26434
     26431     26430     26433     26435     26431     26430     26433     26436
     26432     26430     26433     26434     26432     26430     26433     26435
     26432     26430     26433     26436     26433     26436     26439     26440
     26433     26436     26439     26441     26433     26436     26439     26442
     26434     26433     26436     26437     26434     26433     26436     26438
     26434     26433     26436     26439     26435     26433     26436     26437
     26435     26433     26436     26438     26435     26433     26436     26439
     26436     26439     26442     26443     26436     26439     26442     26444
     26437     26436     26439     26440     26437     26436     26439     26441
     26437     26436     26439     26442     26438     26436     26439     26440
     26438     26436     26439     26441     26438     26436     26439     26442
     26439     26442     26444     26445     26439     26442     26444     26446
     26440     26439     26442     26443     26440     26439     26442     26444
     26441     26439     26442     26443     26441     26439     26442     26444
     26442     26444     26446     26447     26442     26444     26446     26448
     26442     26444     26446     26449     26443     26442     26444     26445
     26443     26442     26444     26446     26444     26446     26449     26450
     26444     26446     26449     26451     26444     26446     26449     26452
     26445     26444     26446     26447     26445     26444     26446     26448
     26445     26444     26446     26449     26446     26449     26452     26453
     26446     26449     26452     26454     26446     26449     26452     26455
     26447     26446     26449     26450     26447     26446     26449     26451
     26447     26446     26449     26452     26448     26446     26449     26450
     26448     26446     26449     26451     26448     26446     26449     26452
     26449     26452     26455     26456     26449     26452     26455     26457
     26449     26452     26455     26458     26450     26449     26452     26453
     26450     26449     26452     26454     26450     26449     26452     26455
     26451     26449     26452     26453     26451     26449     26452     26454
     26451     26449     26452     26455     26452     26455     26458     26459
     26452     26455     26458     26460     26452     26455     26458     26461
     26453     26452     26455     26456     26453     26452     26455     26457
     26453     26452     26455     26458     26454     26452     26455     26456
     26454     26452     26455     26457     26454     26452     26455     26458
     26455     26458     26461     26462     26455     26458     26461     26463
     26455     26458     26461     26464     26456     26455     26458     26459
     26456     26455     26458     26460     26456     26455     26458     26461
     26457     26455     26458     26459     26457     26455     26458     26460
     26457     26455     26458     26461     26458     26461     26464     26465
     26458     26461     26464     26466     26458     26461     26464     26467
     26459     26458     26461     26462     26459     26458     26461     26463
     26459     26458     26461     26464     26460     26458     26461     26462
     26460     26458     26461     26463     26460     26458     26461     26464
     26461     26464     26467     26468     26461     26464     26467     26469
     26461     26464     26467     26470     26462     26461     26464     26465
     26462     26461     26464     26466     26462     26461     26464     26467
     26463     26461     26464     26465     26463     26461     26464     26466
     26463     26461     26464     26467     26465     26464     26467     26468
     26465     26464     26467     26469     26465     26464     26467     26470
     26466     26464     26467     26468     26466     26464     26467     26469
     26466     26464     26467     26470     26471     26474     26477     26478
     26471     26474     26477     26479     26471     26474     26477     26480
     26472     26471     26474     26475     26472     26471     26474     26476
     26472     26471     26474     26477     26473     26471     26474     26475
     26473     26471     26474     26476     26473     26471     26474     26477
     26474     26477     26480     26481     26474     26477     26480     26482
     26474     26477     26480     26483     26475     26474     26477     26478
     26475     26474     26477     26479     26475     26474     26477     26480
     26476     26474     26477     26478     26476     26474     26477     26479
     26476     26474     26477     26480     26477     26480     26483     26484
     26477     26480     26483     26485     26477     26480     26483     26486
     26478     26477     26480     26481     26478     26477     26480     26482
     26478     26477     26480     26483     26479     26477     26480     26481
     26479     26477     26480     26482     26479     26477     26480     26483
     26480     26483     26486     26487     26480     26483     26486     26488
     26480     26483     26486     26489     26481     26480     26483     26484
     26481     26480     26483     26485     26481     26480     26483     26486
     26482     26480     26483     26484     26482     26480     26483     26485
     26482     26480     26483     26486     26483     26486     26489     26490
     26483     26486     26489     26491     26483     26486     26489     26492
     26484     26483     26486     26487     26484     26483     26486     26488
     26484     26483     26486     26489     26485     26483     26486     26487
     26485     26483     26486     26488     26485     26483     26486     26489
     26486     26489     26492     26493     26486     26489     26492     26494
     26486     26489     26492     26495     26487     26486     26489     26490
     26487     26486     26489     26491     26487     26486     26489     26492
     26488     26486     26489     26490     26488     26486     26489     26491
     26488     26486     26489     26492     26489     26492     26495     26496
     26489     26492     26495     26497     26489     26492     26495     26498
     26490     26489     26492     26493     26490     26489     26492     26494
     26490     26489     26492     26495     26491     26489     26492     26493
     26491     26489     26492     26494     26491     26489     26492     26495
     26492     26495     26498     26499     26492     26495     26498     26500
     26492     26495     26498     26501     26493     26492     26495     26496
     26493     26492     26495     26497     26493     26492     26495     26498
     26494     26492     26495     26496     26494     26492     26495     26497
     26494     26492     26495     26498     26495     26498     26501     26502
     26495     26498     26501     26503     26495     26498     26501     26504
     26496     26495     26498     26499     26496     26495     26498     26500
     26496     26495     26498     26501     26497     26495     26498     26499
     26497     26495     26498     26500     26497     26495     26498     26501
     26498     26501     26504     26505     26498     26501     26504     26506
     26498     26501     26504     26507     26499     26498     26501     26502
     26499     26498     26501     26503     26499     26498     26501     26504
     26500     26498     26501     26502     26500     26498     26501     26503
     26500     26498     26501     26504     26501     26504     26507     26508
     26501     26504     26507     26509     26501     26504     26507     26510
     26502     26501     26504     26505     26502     26501     26504     26506
     26502     26501     26504     26507     26503     26501     26504     26505
     26503     26501     26504     26506     26503     26501     26504     26507
     26504     26507     26510     26511     26504     26507     26510     26512
     26504     26507     26510     26513     26505     26504     26507     26508
     26505     26504     26507     26509     26505     26504     26507     26510
     26506     26504     26507     26508     26506     26504     26507     26509
     26506     26504     26507     26510     26508     26507     26510     26511
     26508     26507     26510     26512     26508     26507     26510     26513
     26509     26507     26510     26511     26509     26507     26510     26512
     26509     26507     26510     26513     26514     26515     26530     26531
     26514     26515     26530     26532     26514     26515     26530     26536
     26515     26514     26518     26519     26515     26514     26518     26520
     26515     26514     26518     26521     26515     26514     26522     26523
     26515     26514     26522     26524     26515     26514     26522     26525
     26515     26514     26526     26527     26515     26514     26526     26528
     26515     26514     26526     26529     26515     26530     26536     26533
     26516     26515     26514     26518     26516     26515     26514     26522
     26516     26515     26514     26526     26516     26515     26530     26531
     26516     26515     26530     26532     26516     26515     26530     26536
     26517     26515     26514     26518     26517     26515     26514     26522
     26517     26515     26514     26526     26517     26515     26530     26531
     26517     26515     26530     26532     26517     26515     26530     26536
     26518     26514     26515     26530     26518     26514     26522     26523
     26518     26514     26522     26524     26518     26514     26522     26525
     26518     26514     26526     26527     26518     26514     26526     26528
     26518     26514     26526     26529     26519     26518     26514     26522
     26519     26518     26514     26526     26520     26518     26514     26522
     26520     26518     26514     26526     26521     26518     26514     26522
     26521     26518     26514     26526     26522     26514     26515     26530
     26522     26514     26526     26527     26522     26514     26526     26528
     26522     26514     26526     26529     26523     26522     26514     26526
     26524     26522     26514     26526     26525     26522     26514     26526
     26526     26514     26515     26530     26530     26536     26533     26534
     26530     26536     26533     26535     26530     26536     26533     26537
     26531     26530     26536     26533     26532     26530     26536     26533
     26533     26537     26538     26539     26533     26537     26538     26540
     26533     26537     26538     26541     26534     26533     26537     26538
     26535     26533     26537     26538     26536     26533     26537     26538
     26537     26538     26541     26542     26537     26538     26541     26543
     26537     26538     26541     26549     26538     26541     26543     26544
     26538     26541     26549     26550     26538     26541     26549     26551
     26538     26541     26549     26552     26539     26538     26541     26542
     26539     26538     26541     26543     26539     26538     26541     26549
     26540     26538     26541     26542     26540     26538     26541     26543
     26540     26538     26541     26549     26541     26543     26544     26545
     26541     26543     26544     26546     26541     26549     26552     26553
     26542     26541     26543     26544     26542     26541     26549     26550
     26542     26541     26549     26551     26542     26541     26549     26552
     26543     26541     26549     26550     26543     26541     26549     26551
     26543     26541     26549     26552     26543     26544     26546     26547
     26543     26544     26546     26548     26543     26544     26546     26558
     26544     26543     26541     26549     26544     26546     26558     26559
     26544     26546     26558     26560     26544     26546     26558     26561
     26545     26544     26546     26547     26545     26544     26546     26548
     26545     26544     26546     26558     26546     26558     26561     26562
     26546     26558     26561     26563     26546     26558     26561     26564
     26547     26546     26558     26559     26547     26546     26558     26560
     26547     26546     26558     26561     26548     26546     26558     26559
     26548     26546     26558     26560     26548     26546     26558     26561
     26549     26552     26553     26554     26549     26552     26553     26555
     26550     26549     26552     26553     26551     26549     26552     26553
     26552     26553     26555     26556     26552     26553     26555     26557
     26552     26553     26555     26605     26553     26555     26605     26606
     26553     26555     26605     26607     26553     26555     26605     26608
     26554     26553     26555     26556     26554     26553     26555     26557
     26554     26553     26555     26605     26555     26605     26608     26609
     26555     26605     26608     26610     26555     26605     26608     26611
     26556     26555     26605     26606     26556     26555     26605     26607
     26556     26555     26605     26608     26557     26555     26605     26606
     26557     26555     26605     26607     26557     26555     26605     26608
     26558     26561     26564     26565     26558     26561     26564     26566
     26558     26561     26564     26567     26559     26558     26561     26562
     26559     26558     26561     26563     26559     26558     26561     26564
     26560     26558     26561     26562     26560     26558     26561     26563
     26560     26558     26561     26564     26561     26564     26567     26568
     26561     26564     26567     26569     26561     26564     26567     26570
     26562     26561     26564     26565     26562     26561     26564     26566
     26562     26561     26564     26567     26563     26561     26564     26565
     26563     26561     26564     26566     26563     26561     26564     26567
     26564     26567     26570     26571     26564     26567     26570     26572
     26564     26567     26570     26573     26565     26564     26567     26568
     26565     26564     26567     26569     26565     26564     26567     26570
     26566     26564     26567     26568     26566     26564     26567     26569
     26566     26564     26567     26570     26567     26570     26573     26574
     26567     26570     26573     26575     26567     26570     26573     26576
     26568     26567     26570     26571     26568     26567     26570     26572
     26568     26567     26570     26573     26569     26567     26570     26571
     26569     26567     26570     26572     26569     26567     26570     26573
     26570     26573     26576     26577     26570     26573     26576     26578
     26571     26570     26573     26574     26571     26570     26573     26575
     26571     26570     26573     26576     26572     26570     26573     26574
     26572     26570     26573     26575     26572     26570     26573     26576
     26573     26576     26578     26579     26573     26576     26578     26580
     26574     26573     26576     26577     26574     26573     26576     26578
     26575     26573     26576     26577     26575     26573     26576     26578
     26576     26578     26580     26581     26576     26578     26580     26582
     26576     26578     26580     26583     26577     26576     26578     26579
     26577     26576     26578     26580     26578     26580     26583     26584
     26578     26580     26583     26585     26578     26580     26583     26586
     26579     26578     26580     26581     26579     26578     26580     26582
     26579     26578     26580     26583     26580     26583     26586     26587
     26580     26583     26586     26588     26580     26583     26586     26589
     26581     26580     26583     26584     26581     26580     26583     26585
     26581     26580     26583     26586     26582     26580     26583     26584
     26582     26580     26583     26585     26582     26580     26583     26586
     26583     26586     26589     26590     26583     26586     26589     26591
     26583     26586     26589     26592     26584     26583     26586     26587
     26584     26583     26586     26588     26584     26583     26586     26589
     26585     26583     26586     26587     26585     26583     26586     26588
     26585     26583     26586     26589     26586     26589     26592     26593
     26586     26589     26592     26594     26586     26589     26592     26595
     26587     26586     26589     26590     26587     26586     26589     26591
     26587     26586     26589     26592     26588     26586     26589     26590
     26588     26586     26589     26591     26588     26586     26589     26592
     26589     26592     26595     26596     26589     26592     26595     26597
     26589     26592     26595     26598     26590     26589     26592     26593
     26590     26589     26592     26594     26590     26589     26592     26595
     26591     26589     26592     26593     26591     26589     26592     26594
     26591     26589     26592     26595     26592     26595     26598     26599
     26592     26595     26598     26600     26592     26595     26598     26601
     26593     26592     26595     26596     26593     26592     26595     26597
     26593     26592     26595     26598     26594     26592     26595     26596
     26594     26592     26595     26597     26594     26592     26595     26598
     26595     26598     26601     26602     26595     26598     26601     26603
     26595     26598     26601     26604     26596     26595     26598     26599
     26596     26595     26598     26600     26596     26595     26598     26601
     26597     26595     26598     26599     26597     26595     26598     26600
     26597     26595     26598     26601     26599     26598     26601     26602
     26599     26598     26601     26603     26599     26598     26601     26604
     26600     26598     26601     26602     26600     26598     26601     26603
     26600     26598     26601     26604     26605     26608     26611     26612
     26605     26608     26611     26613     26605     26608     26611     26614
     26606     26605     26608     26609     26606     26605     26608     26610
     26606     26605     26608     26611     26607     26605     26608     26609
     26607     26605     26608     26610     26607     26605     26608     26611
     26608     26611     26614     26615     26608     26611     26614     26616
     26608     26611     26614     26617     26609     26608     26611     26612
     26609     26608     26611     26613     26609     26608     26611     26614
     26610     26608     26611     26612     26610     26608     26611     26613
     26610     26608     26611     26614     26611     26614     26617     26618
     26611     26614     26617     26619     26611     26614     26617     26620
     26612     26611     26614     26615     26612     26611     26614     26616
     26612     26611     26614     26617     26613     26611     26614     26615
     26613     26611     26614     26616     26613     26611     26614     26617
     26614     26617     26620     26621     26614     26617     26620     26622
     26614     26617     26620     26623     26615     26614     26617     26618
     26615     26614     26617     26619     26615     26614     26617     26620
     26616     26614     26617     26618     26616     26614     26617     26619
     26616     26614     26617     26620     26617     26620     26623     26624
     26617     26620     26623     26625     26617     26620     26623     26626
     26618     26617     26620     26621     26618     26617     26620     26622
     26618     26617     26620     26623     26619     26617     26620     26621
     26619     26617     26620     26622     26619     26617     26620     26623
     26620     26623     26626     26627     26620     26623     26626     26628
     26620     26623     26626     26629     26621     26620     26623     26624
     26621     26620     26623     26625     26621     26620     26623     26626
     26622     26620     26623     26624     26622     26620     26623     26625
     26622     26620     26623     26626     26623     26626     26629     26630
     26623     26626     26629     26631     26623     26626     26629     26632
     26624     26623     26626     26627     26624     26623     26626     26628
     26624     26623     26626     26629     26625     26623     26626     26627
     26625     26623     26626     26628     26625     26623     26626     26629
     26626     26629     26632     26633     26626     26629     26632     26634
     26626     26629     26632     26635     26627     26626     26629     26630
     26627     26626     26629     26631     26627     26626     26629     26632
     26628     26626     26629     26630     26628     26626     26629     26631
     26628     26626     26629     26632     26629     26632     26635     26636
     26629     26632     26635     26637     26629     26632     26635     26638
     26630     26629     26632     26633     26630     26629     26632     26634
     26630     26629     26632     26635     26631     26629     26632     26633
     26631     26629     26632     26634     26631     26629     26632     26635
     26632     26635     26638     26639     26632     26635     26638     26640
     26632     26635     26638     26641     26633     26632     26635     26636
     26633     26632     26635     26637     26633     26632     26635     26638
     26634     26632     26635     26636     26634     26632     26635     26637
     26634     26632     26635     26638     26635     26638     26641     26642
     26635     26638     26641     26643     26635     26638     26641     26644
     26636     26635     26638     26639     26636     26635     26638     26640
     26636     26635     26638     26641     26637     26635     26638     26639
     26637     26635     26638     26640     26637     26635     26638     26641
     26638     26641     26644     26645     26638     26641     26644     26646
     26638     26641     26644     26647     26639     26638     26641     26642
     26639     26638     26641     26643     26639     26638     26641     26644
     26640     26638     26641     26642     26640     26638     26641     26643
     26640     26638     26641     26644     26642     26641     26644     26645
     26642     26641     26644     26646     26642     26641     26644     26647
     26643     26641     26644     26645     26643     26641     26644     26646
     26643     26641     26644     26647     26648     26649     26664     26665
     26648     26649     26664     26666     26648     26649     26664     26670
     26649     26648     26652     26653     26649     26648     26652     26654
     26649     26648     26652     26655     26649     26648     26656     26657
     26649     26648     26656     26658     26649     26648     26656     26659
     26649     26648     26660     26661     26649     26648     26660     26662
     26649     26648     26660     26663     26649     26664     26670     26667
     26650     26649     26648     26652     26650     26649     26648     26656
     26650     26649     26648     26660     26650     26649     26664     26665
     26650     26649     26664     26666     26650     26649     26664     26670
     26651     26649     26648     26652     26651     26649     26648     26656
     26651     26649     26648     26660     26651     26649     26664     26665
     26651     26649     26664     26666     26651     26649     26664     26670
     26652     26648     26649     26664     26652     26648     26656     26657
     26652     26648     26656     26658     26652     26648     26656     26659
     26652     26648     26660     26661     26652     26648     26660     26662
     26652     26648     26660     26663     26653     26652     26648     26656
     26653     26652     26648     26660     26654     26652     26648     26656
     26654     26652     26648     26660     26655     26652     26648     26656
     26655     26652     26648     26660     26656     26648     26649     26664
     26656     26648     26660     26661     26656     26648     26660     26662
     26656     26648     26660     26663     26657     26656     26648     26660
     26658     26656     26648     26660     26659     26656     26648     26660
     26660     26648     26649     26664     26664     26670     26667     26668
     26664     26670     26667     26669     26664     26670     26667     26671
     26665     26664     26670     26667     26666     26664     26670     26667
     26667     26671     26672     26673     26667     26671     26672     26674
     26667     26671     26672     26675     26668     26667     26671     26672
     26669     26667     26671     26672     26670     26667     26671     26672
     26671     26672     26675     26676     26671     26672     26675     26677
     26671     26672     26675     26683     26672     26675     26677     26678
     26672     26675     26683     26684     26672     26675     26683     26685
     26672     26675     26683     26686     26673     26672     26675     26676
     26673     26672     26675     26677     26673     26672     26675     26683
     26674     26672     26675     26676     26674     26672     26675     26677
     26674     26672     26675     26683     26675     26677     26678     26679
     26675     26677     26678     26680     26675     26683     26686     26687
     26676     26675     26677     26678     26676     26675     26683     26684
     26676     26675     26683     26685     26676     26675     26683     26686
     26677     26675     26683     26684     26677     26675     26683     26685
     26677     26675     26683     26686     26677     26678     26680     26681
     26677     26678     26680     26682     26677     26678     26680     26692
     26678     26677     26675     26683     26678     26680     26692     26693
     26678     26680     26692     26694     26678     26680     26692     26695
     26679     26678     26680     26681     26679     26678     26680     26682
     26679     26678     26680     26692     26680     26692     26695     26696
     26680     26692     26695     26697     26680     26692     26695     26698
     26681     26680     26692     26693     26681     26680     26692     26694
     26681     26680     26692     26695     26682     26680     26692     26693
     26682     26680     26692     26694     26682     26680     26692     26695
     26683     26686     26687     26688     26683     26686     26687     26689
     26684     26683     26686     26687     26685     26683     26686     26687
     26686     26687     26689     26690     26686     26687     26689     26691
     26686     26687     26689     26739     26687     26689     26739     26740
     26687     26689     26739     26741     26687     26689     26739     26742
     26688     26687     26689     26690     26688     26687     26689     26691
     26688     26687     26689     26739     26689     26739     26742     26743
     26689     26739     26742     26744     26689     26739     26742     26745
     26690     26689     26739     26740     26690     26689     26739     26741
     26690     26689     26739     26742     26691     26689     26739     26740
     26691     26689     26739     26741     26691     26689     26739     26742
     26692     26695     26698     26699     26692     26695     26698     26700
     26692     26695     26698     26701     26693     26692     26695     26696
     26693     26692     26695     26697     26693     26692     26695     26698
     26694     26692     26695     26696     26694     26692     26695     26697
     26694     26692     26695     26698     26695     26698     26701     26702
     26695     26698     26701     26703     26695     26698     26701     26704
     26696     26695     26698     26699     26696     26695     26698     26700
     26696     26695     26698     26701     26697     26695     26698     26699
     26697     26695     26698     26700     26697     26695     26698     26701
     26698     26701     26704     26705     26698     26701     26704     26706
     26698     26701     26704     26707     26699     26698     26701     26702
     26699     26698     26701     26703     26699     26698     26701     26704
     26700     26698     26701     26702     26700     26698     26701     26703
     26700     26698     26701     26704     26701     26704     26707     26708
     26701     26704     26707     26709     26701     26704     26707     26710
     26702     26701     26704     26705     26702     26701     26704     26706
     26702     26701     26704     26707     26703     26701     26704     26705
     26703     26701     26704     26706     26703     26701     26704     26707
     26704     26707     26710     26711     26704     26707     26710     26712
     26705     26704     26707     26708     26705     26704     26707     26709
     26705     26704     26707     26710     26706     26704     26707     26708
     26706     26704     26707     26709     26706     26704     26707     26710
     26707     26710     26712     26713     26707     26710     26712     26714
     26708     26707     26710     26711     26708     26707     26710     26712
     26709     26707     26710     26711     26709     26707     26710     26712
     26710     26712     26714     26715     26710     26712     26714     26716
     26710     26712     26714     26717     26711     26710     26712     26713
     26711     26710     26712     26714     26712     26714     26717     26718
     26712     26714     26717     26719     26712     26714     26717     26720
     26713     26712     26714     26715     26713     26712     26714     26716
     26713     26712     26714     26717     26714     26717     26720     26721
     26714     26717     26720     26722     26714     26717     26720     26723
     26715     26714     26717     26718     26715     26714     26717     26719
     26715     26714     26717     26720     26716     26714     26717     26718
     26716     26714     26717     26719     26716     26714     26717     26720
     26717     26720     26723     26724     26717     26720     26723     26725
     26717     26720     26723     26726     26718     26717     26720     26721
     26718     26717     26720     26722     26718     26717     26720     26723
     26719     26717     26720     26721     26719     26717     26720     26722
     26719     26717     26720     26723     26720     26723     26726     26727
     26720     26723     26726     26728     26720     26723     26726     26729
     26721     26720     26723     26724     26721     26720     26723     26725
     26721     26720     26723     26726     26722     26720     26723     26724
     26722     26720     26723     26725     26722     26720     26723     26726
     26723     26726     26729     26730     26723     26726     26729     26731
     26723     26726     26729     26732     26724     26723     26726     26727
     26724     26723     26726     26728     26724     26723     26726     26729
     26725     26723     26726     26727     26725     26723     26726     26728
     26725     26723     26726     26729     26726     26729     26732     26733
     26726     26729     26732     26734     26726     26729     26732     26735
     26727     26726     26729     26730     26727     26726     26729     26731
     26727     26726     26729     26732     26728     26726     26729     26730
     26728     26726     26729     26731     26728     26726     26729     26732
     26729     26732     26735     26736     26729     26732     26735     26737
     26729     26732     26735     26738     26730     26729     26732     26733
     26730     26729     26732     26734     26730     26729     26732     26735
     26731     26729     26732     26733     26731     26729     26732     26734
     26731     26729     26732     26735     26733     26732     26735     26736
     26733     26732     26735     26737     26733     26732     26735     26738
     26734     26732     26735     26736     26734     26732     26735     26737
     26734     26732     26735     26738     26739     26742     26745     26746
     26739     26742     26745     26747     26739     26742     26745     26748
     26740     26739     26742     26743     26740     26739     26742     26744
     26740     26739     26742     26745     26741     26739     26742     26743
     26741     26739     26742     26744     26741     26739     26742     26745
     26742     26745     26748     26749     26742     26745     26748     26750
     26742     26745     26748     26751     26743     26742     26745     26746
     26743     26742     26745     26747     26743     26742     26745     26748
     26744     26742     26745     26746     26744     26742     26745     26747
     26744     26742     26745     26748     26745     26748     26751     26752
     26745     26748     26751     26753     26745     26748     26751     26754
     26746     26745     26748     26749     26746     26745     26748     26750
     26746     26745     26748     26751     26747     26745     26748     26749
     26747     26745     26748     26750     26747     26745     26748     26751
     26748     26751     26754     26755     26748     26751     26754     26756
     26748     26751     26754     26757     26749     26748     26751     26752
     26749     26748     26751     26753     26749     26748     26751     26754
     26750     26748     26751     26752     26750     26748     26751     26753
     26750     26748     26751     26754     26751     26754     26757     26758
     26751     26754     26757     26759     26751     26754     26757     26760
     26752     26751     26754     26755     26752     26751     26754     26756
     26752     26751     26754     26757     26753     26751     26754     26755
     26753     26751     26754     26756     26753     26751     26754     26757
     26754     26757     26760     26761     26754     26757     26760     26762
     26754     26757     26760     26763     26755     26754     26757     26758
     26755     26754     26757     26759     26755     26754     26757     26760
     26756     26754     26757     26758     26756     26754     26757     26759
     26756     26754     26757     26760     26757     26760     26763     26764
     26757     26760     26763     26765     26757     26760     26763     26766
     26758     26757     26760     26761     26758     26757     26760     26762
     26758     26757     26760     26763     26759     26757     26760     26761
     26759     26757     26760     26762     26759     26757     26760     26763
     26760     26763     26766     26767     26760     26763     26766     26768
     26760     26763     26766     26769     26761     26760     26763     26764
     26761     26760     26763     26765     26761     26760     26763     26766
     26762     26760     26763     26764     26762     26760     26763     26765
     26762     26760     26763     26766     26763     26766     26769     26770
     26763     26766     26769     26771     26763     26766     26769     26772
     26764     26763     26766     26767     26764     26763     26766     26768
     26764     26763     26766     26769     26765     26763     26766     26767
     26765     26763     26766     26768     26765     26763     26766     26769
     26766     26769     26772     26773     26766     26769     26772     26774
     26766     26769     26772     26775     26767     26766     26769     26770
     26767     26766     26769     26771     26767     26766     26769     26772
     26768     26766     26769     26770     26768     26766     26769     26771
     26768     26766     26769     26772     26769     26772     26775     26776
     26769     26772     26775     26777     26769     26772     26775     26778
     26770     26769     26772     26773     26770     26769     26772     26774
     26770     26769     26772     26775     26771     26769     26772     26773
     26771     26769     26772     26774     26771     26769     26772     26775
     26772     26775     26778     26779     26772     26775     26778     26780
     26772     26775     26778     26781     26773     26772     26775     26776
     26773     26772     26775     26777     26773     26772     26775     26778
     26774     26772     26775     26776     26774     26772     26775     26777
     26774     26772     26775     26778     26776     26775     26778     26779
     26776     26775     26778     26780     26776     26775     26778     26781
     26777     26775     26778     26779     26777     26775     26778     26780
     26777     26775     26778     26781     26782     26783     26798     26799
     26782     26783     26798     26800     26782     26783     26798     26804
     26783     26782     26786     26787     26783     26782     26786     26788
     26783     26782     26786     26789     26783     26782     26790     26791
     26783     26782     26790     26792     26783     26782     26790     26793
     26783     26782     26794     26795     26783     26782     26794     26796
     26783     26782     26794     26797     26783     26798     26804     26801
     26784     26783     26782     26786     26784     26783     26782     26790
     26784     26783     26782     26794     26784     26783     26798     26799
     26784     26783     26798     26800     26784     26783     26798     26804
     26785     26783     26782     26786     26785     26783     26782     26790
     26785     26783     26782     26794     26785     26783     26798     26799
     26785     26783     26798     26800     26785     26783     26798     26804
     26786     26782     26783     26798     26786     26782     26790     26791
     26786     26782     26790     26792     26786     26782     26790     26793
     26786     26782     26794     26795     26786     26782     26794     26796
     26786     26782     26794     26797     26787     26786     26782     26790
     26787     26786     26782     26794     26788     26786     26782     26790
     26788     26786     26782     26794     26789     26786     26782     26790
     26789     26786     26782     26794     26790     26782     26783     26798
     26790     26782     26794     26795     26790     26782     26794     26796
     26790     26782     26794     26797     26791     26790     26782     26794
     26792     26790     26782     26794     26793     26790     26782     26794
     26794     26782     26783     26798     26798     26804     26801     26802
     26798     26804     26801     26803     26798     26804     26801     26805
     26799     26798     26804     26801     26800     26798     26804     26801
     26801     26805     26806     26807     26801     26805     26806     26808
     26801     26805     26806     26809     26802     26801     26805     26806
     26803     26801     26805     26806     26804     26801     26805     26806
     26805     26806     26809     26810     26805     26806     26809     26811
     26805     26806     26809     26817     26806     26809     26811     26812
     26806     26809     26817     26818     26806     26809     26817     26819
     26806     26809     26817     26820     26807     26806     26809     26810
     26807     26806     26809     26811     26807     26806     26809     26817
     26808     26806     26809     26810     26808     26806     26809     26811
     26808     26806     26809     26817     26809     26811     26812     26813
     26809     26811     26812     26814     26809     26817     26820     26821
     26810     26809     26811     26812     26810     26809     26817     26818
     26810     26809     26817     26819     26810     26809     26817     26820
     26811     26809     26817     26818     26811     26809     26817     26819
     26811     26809     26817     26820     26811     26812     26814     26815
     26811     26812     26814     26816     26811     26812     26814     26826
     26812     26811     26809     26817     26812     26814     26826     26827
     26812     26814     26826     26828     26812     26814     26826     26829
     26813     26812     26814     26815     26813     26812     26814     26816
     26813     26812     26814     26826     26814     26826     26829     26830
     26814     26826     26829     26831     26814     26826     26829     26832
     26815     26814     26826     26827     26815     26814     26826     26828
     26815     26814     26826     26829     26816     26814     26826     26827
     26816     26814     26826     26828     26816     26814     26826     26829
     26817     26820     26821     26822     26817     26820     26821     26823
     26818     26817     26820     26821     26819     26817     26820     26821
     26820     26821     26823     26824     26820     26821     26823     26825
     26820     26821     26823     26873     26821     26823     26873     26874
     26821     26823     26873     26875     26821     26823     26873     26876
     26822     26821     26823     26824     26822     26821     26823     26825
     26822     26821     26823     26873     26823     26873     26876     26877
     26823     26873     26876     26878     26823     26873     26876     26879
     26824     26823     26873     26874     26824     26823     26873     26875
     26824     26823     26873     26876     26825     26823     26873     26874
     26825     26823     26873     26875     26825     26823     26873     26876
     26826     26829     26832     26833     26826     26829     26832     26834
     26826     26829     26832     26835     26827     26826     26829     26830
     26827     26826     26829     26831     26827     26826     26829     26832
     26828     26826     26829     26830     26828     26826     26829     26831
     26828     26826     26829     26832     26829     26832     26835     26836
     26829     26832     26835     26837     26829     26832     26835     26838
     26830     26829     26832     26833     26830     26829     26832     26834
     26830     26829     26832     26835     26831     26829     26832     26833
     26831     26829     26832     26834     26831     26829     26832     26835
     26832     26835     26838     26839     26832     26835     26838     26840
     26832     26835     26838     26841     26833     26832     26835     26836
     26833     26832     26835     26837     26833     26832     26835     26838
     26834     26832     26835     26836     26834     26832     26835     26837
     26834     26832     26835     26838     26835     26838     26841     26842
     26835     26838     26841     26843     26835     26838     26841     26844
     26836     26835     26838     26839     26836     26835     26838     26840
     26836     26835     26838     26841     26837     26835     26838     26839
     26837     26835     26838     26840     26837     26835     26838     26841
     26838     26841     26844     26845     26838     26841     26844     26846
     26839     26838     26841     26842     26839     26838     26841     26843
     26839     26838     26841     26844     26840     26838     26841     26842
     26840     26838     26841     26843     26840     26838     26841     26844
     26841     26844     26846     26847     26841     26844     26846     26848
     26842     26841     26844     26845     26842     26841     26844     26846
     26843     26841     26844     26845     26843     26841     26844     26846
     26844     26846     26848     26849     26844     26846     26848     26850
     26844     26846     26848     26851     26845     26844     26846     26847
     26845     26844     26846     26848     26846     26848     26851     26852
     26846     26848     26851     26853     26846     26848     26851     26854
     26847     26846     26848     26849     26847     26846     26848     26850
     26847     26846     26848     26851     26848     26851     26854     26855
     26848     26851     26854     26856     26848     26851     26854     26857
     26849     26848     26851     26852     26849     26848     26851     26853
     26849     26848     26851     26854     26850     26848     26851     26852
     26850     26848     26851     26853     26850     26848     26851     26854
     26851     26854     26857     26858     26851     26854     26857     26859
     26851     26854     26857     26860     26852     26851     26854     26855
     26852     26851     26854     26856     26852     26851     26854     26857
     26853     26851     26854     26855     26853     26851     26854     26856
     26853     26851     26854     26857     26854     26857     26860     26861
     26854     26857     26860     26862     26854     26857     26860     26863
     26855     26854     26857     26858     26855     26854     26857     26859
     26855     26854     26857     26860     26856     26854     26857     26858
     26856     26854     26857     26859     26856     26854     26857     26860
     26857     26860     26863     26864     26857     26860     26863     26865
     26857     26860     26863     26866     26858     26857     26860     26861
     26858     26857     26860     26862     26858     26857     26860     26863
     26859     26857     26860     26861     26859     26857     26860     26862
     26859     26857     26860     26863     26860     26863     26866     26867
     26860     26863     26866     26868     26860     26863     26866     26869
     26861     26860     26863     26864     26861     26860     26863     26865
     26861     26860     26863     26866     26862     26860     26863     26864
     26862     26860     26863     26865     26862     26860     26863     26866
     26863     26866     26869     26870     26863     26866     26869     26871
     26863     26866     26869     26872     26864     26863     26866     26867
     26864     26863     26866     26868     26864     26863     26866     26869
     26865     26863     26866     26867     26865     26863     26866     26868
     26865     26863     26866     26869     26867     26866     26869     26870
     26867     26866     26869     26871     26867     26866     26869     26872
     26868     26866     26869     26870     26868     26866     26869     26871
     26868     26866     26869     26872     26873     26876     26879     26880
     26873     26876     26879     26881     26873     26876     26879     26882
     26874     26873     26876     26877     26874     26873     26876     26878
     26874     26873     26876     26879     26875     26873     26876     26877
     26875     26873     26876     26878     26875     26873     26876     26879
     26876     26879     26882     26883     26876     26879     26882     26884
     26876     26879     26882     26885     26877     26876     26879     26880
     26877     26876     26879     26881     26877     26876     26879     26882
     26878     26876     26879     26880     26878     26876     26879     26881
     26878     26876     26879     26882     26879     26882     26885     26886
     26879     26882     26885     26887     26879     26882     26885     26888
     26880     26879     26882     26883     26880     26879     26882     26884
     26880     26879     26882     26885     26881     26879     26882     26883
     26881     26879     26882     26884     26881     26879     26882     26885
     26882     26885     26888     26889     26882     26885     26888     26890
     26882     26885     26888     26891     26883     26882     26885     26886
     26883     26882     26885     26887     26883     26882     26885     26888
     26884     26882     26885     26886     26884     26882     26885     26887
     26884     26882     26885     26888     26885     26888     26891     26892
     26885     26888     26891     26893     26885     26888     26891     26894
     26886     26885     26888     26889     26886     26885     26888     26890
     26886     26885     26888     26891     26887     26885     26888     26889
     26887     26885     26888     26890     26887     26885     26888     26891
     26888     26891     26894     26895     26888     26891     26894     26896
     26888     26891     26894     26897     26889     26888     26891     26892
     26889     26888     26891     26893     26889     26888     26891     26894
     26890     26888     26891     26892     26890     26888     26891     26893
     26890     26888     26891     26894     26891     26894     26897     26898
     26891     26894     26897     26899     26891     26894     26897     26900
     26892     26891     26894     26895     26892     26891     26894     26896
     26892     26891     26894     26897     26893     26891     26894     26895
     26893     26891     26894     26896     26893     26891     26894     26897
     26894     26897     26900     26901     26894     26897     26900     26902
     26894     26897     26900     26903     26895     26894     26897     26898
     26895     26894     26897     26899     26895     26894     26897     26900
     26896     26894     26897     26898     26896     26894     26897     26899
     26896     26894     26897     26900     26897     26900     26903     26904
     26897     26900     26903     26905     26897     26900     26903     26906
     26898     26897     26900     26901     26898     26897     26900     26902
     26898     26897     26900     26903     26899     26897     26900     26901
     26899     26897     26900     26902     26899     26897     26900     26903
     26900     26903     26906     26907     26900     26903     26906     26908
     26900     26903     26906     26909     26901     26900     26903     26904
     26901     26900     26903     26905     26901     26900     26903     26906
     26902     26900     26903     26904     26902     26900     26903     26905
     26902     26900     26903     26906     26903     26906     26909     26910
     26903     26906     26909     26911     26903     26906     26909     26912
     26904     26903     26906     26907     26904     26903     26906     26908
     26904     26903     26906     26909     26905     26903     26906     26907
     26905     26903     26906     26908     26905     26903     26906     26909
     26906     26909     26912     26913     26906     26909     26912     26914
     26906     26909     26912     26915     26907     26906     26909     26910
     26907     26906     26909     26911     26907     26906     26909     26912
     26908     26906     26909     26910     26908     26906     26909     26911
     26908     26906     26909     26912     26910     26909     26912     26913
     26910     26909     26912     26914     26910     26909     26912     26915
     26911     26909     26912     26913     26911     26909     26912     26914
     26911     26909     26912     26915     26916     26917     26932     26933
     26916     26917     26932     26934     26916     26917     26932     26938
     26917     26916     26920     26921     26917     26916     26920     26922
     26917     26916     26920     26923     26917     26916     26924     26925
     26917     26916     26924     26926     26917     26916     26924     26927
     26917     26916     26928     26929     26917     26916     26928     26930
     26917     26916     26928     26931     26917     26932     26938     26935
     26918     26917     26916     26920     26918     26917     26916     26924
     26918     26917     26916     26928     26918     26917     26932     26933
     26918     26917     26932     26934     26918     26917     26932     26938
     26919     26917     26916     26920     26919     26917     26916     26924
     26919     26917     26916     26928     26919     26917     26932     26933
     26919     26917     26932     26934     26919     26917     26932     26938
     26920     26916     26917     26932     26920     26916     26924     26925
     26920     26916     26924     26926     26920     26916     26924     26927
     26920     26916     26928     26929     26920     26916     26928     26930
     26920     26916     26928     26931     26921     26920     26916     26924
     26921     26920     26916     26928     26922     26920     26916     26924
     26922     26920     26916     26928     26923     26920     26916     26924
     26923     26920     26916     26928     26924     26916     26917     26932
     26924     26916     26928     26929     26924     26916     26928     26930
     26924     26916     26928     26931     26925     26924     26916     26928
     26926     26924     26916     26928     26927     26924     26916     26928
     26928     26916     26917     26932     26932     26938     26935     26936
     26932     26938     26935     26937     26932     26938     26935     26939
     26933     26932     26938     26935     26934     26932     26938     26935
     26935     26939     26940     26941     26935     26939     26940     26942
     26935     26939     26940     26943     26936     26935     26939     26940
     26937     26935     26939     26940     26938     26935     26939     26940
     26939     26940     26943     26944     26939     26940     26943     26945
     26939     26940     26943     26951     26940     26943     26945     26946
     26940     26943     26951     26952     26940     26943     26951     26953
     26940     26943     26951     26954     26941     26940     26943     26944
     26941     26940     26943     26945     26941     26940     26943     26951
     26942     26940     26943     26944     26942     26940     26943     26945
     26942     26940     26943     26951     26943     26945     26946     26947
     26943     26945     26946     26948     26943     26951     26954     26955
     26944     26943     26945     26946     26944     26943     26951     26952
     26944     26943     26951     26953     26944     26943     26951     26954
     26945     26943     26951     26952     26945     26943     26951     26953
     26945     26943     26951     26954     26945     26946     26948     26949
     26945     26946     26948     26950     26945     26946     26948     26960
     26946     26945     26943     26951     26946     26948     26960     26961
     26946     26948     26960     26962     26946     26948     26960     26963
     26947     26946     26948     26949     26947     26946     26948     26950
     26947     26946     26948     26960     26948     26960     26963     26964
     26948     26960     26963     26965     26948     26960     26963     26966
     26949     26948     26960     26961     26949     26948     26960     26962
     26949     26948     26960     26963     26950     26948     26960     26961
     26950     26948     26960     26962     26950     26948     26960     26963
     26951     26954     26955     26956     26951     26954     26955     26957
     26952     26951     26954     26955     26953     26951     26954     26955
     26954     26955     26957     26958     26954     26955     26957     26959
     26954     26955     26957     27007     26955     26957     27007     27008
     26955     26957     27007     27009     26955     26957     27007     27010
     26956     26955     26957     26958     26956     26955     26957     26959
     26956     26955     26957     27007     26957     27007     27010     27011
     26957     27007     27010     27012     26957     27007     27010     27013
     26958     26957     27007     27008     26958     26957     27007     27009
     26958     26957     27007     27010     26959     26957     27007     27008
     26959     26957     27007     27009     26959     26957     27007     27010
     26960     26963     26966     26967     26960     26963     26966     26968
     26960     26963     26966     26969     26961     26960     26963     26964
     26961     26960     26963     26965     26961     26960     26963     26966
     26962     26960     26963     26964     26962     26960     26963     26965
     26962     26960     26963     26966     26963     26966     26969     26970
     26963     26966     26969     26971     26963     26966     26969     26972
     26964     26963     26966     26967     26964     26963     26966     26968
     26964     26963     26966     26969     26965     26963     26966     26967
     26965     26963     26966     26968     26965     26963     26966     26969
     26966     26969     26972     26973     26966     26969     26972     26974
     26966     26969     26972     26975     26967     26966     26969     26970
     26967     26966     26969     26971     26967     26966     26969     26972
     26968     26966     26969     26970     26968     26966     26969     26971
     26968     26966     26969     26972     26969     26972     26975     26976
     26969     26972     26975     26977     26969     26972     26975     26978
     26970     26969     26972     26973     26970     26969     26972     26974
     26970     26969     26972     26975     26971     26969     26972     26973
     26971     26969     26972     26974     26971     26969     26972     26975
     26972     26975     26978     26979     26972     26975     26978     26980
     26973     26972     26975     26976     26973     26972     26975     26977
     26973     26972     26975     26978     26974     26972     26975     26976
     26974     26972     26975     26977     26974     26972     26975     26978
     26975     26978     26980     26981     26975     26978     26980     26982
     26976     26975     26978     26979     26976     26975     26978     26980
     26977     26975     26978     26979     26977     26975     26978     26980
     26978     26980     26982     26983     26978     26980     26982     26984
     26978     26980     26982     26985     26979     26978     26980     26981
     26979     26978     26980     26982     26980     26982     26985     26986
     26980     26982     26985     26987     26980     26982     26985     26988
     26981     26980     26982     26983     26981     26980     26982     26984
     26981     26980     26982     26985     26982     26985     26988     26989
     26982     26985     26988     26990     26982     26985     26988     26991
     26983     26982     26985     26986     26983     26982     26985     26987
     26983     26982     26985     26988     26984     26982     26985     26986
     26984     26982     26985     26987     26984     26982     26985     26988
     26985     26988     26991     26992     26985     26988     26991     26993
     26985     26988     26991     26994     26986     26985     26988     26989
     26986     26985     26988     26990     26986     26985     26988     26991
     26987     26985     26988     26989     26987     26985     26988     26990
     26987     26985     26988     26991     26988     26991     26994     26995
     26988     26991     26994     26996     26988     26991     26994     26997
     26989     26988     26991     26992     26989     26988     26991     26993
     26989     26988     26991     26994     26990     26988     26991     26992
     26990     26988     26991     26993     26990     26988     26991     26994
     26991     26994     26997     26998     26991     26994     26997     26999
     26991     26994     26997     27000     26992     26991     26994     26995
     26992     26991     26994     26996     26992     26991     26994     26997
     26993     26991     26994     26995     26993     26991     26994     26996
     26993     26991     26994     26997     26994     26997     27000     27001
     26994     26997     27000     27002     26994     26997     27000     27003
     26995     26994     26997     26998     26995     26994     26997     26999
     26995     26994     26997     27000     26996     26994     26997     26998
     26996     26994     26997     26999     26996     26994     26997     27000
     26997     27000     27003     27004     26997     27000     27003     27005
     26997     27000     27003     27006     26998     26997     27000     27001
     26998     26997     27000     27002     26998     26997     27000     27003
     26999     26997     27000     27001     26999     26997     27000     27002
     26999     26997     27000     27003     27001     27000     27003     27004
     27001     27000     27003     27005     27001     27000     27003     27006
     27002     27000     27003     27004     27002     27000     27003     27005
     27002     27000     27003     27006     27007     27010     27013     27014
     27007     27010     27013     27015     27007     27010     27013     27016
     27008     27007     27010     27011     27008     27007     27010     27012
     27008     27007     27010     27013     27009     27007     27010     27011
     27009     27007     27010     27012     27009     27007     27010     27013
     27010     27013     27016     27017     27010     27013     27016     27018
     27010     27013     27016     27019     27011     27010     27013     27014
     27011     27010     27013     27015     27011     27010     27013     27016
     27012     27010     27013     27014     27012     27010     27013     27015
     27012     27010     27013     27016     27013     27016     27019     27020
     27013     27016     27019     27021     27013     27016     27019     27022
     27014     27013     27016     27017     27014     27013     27016     27018
     27014     27013     27016     27019     27015     27013     27016     27017
     27015     27013     27016     27018     27015     27013     27016     27019
     27016     27019     27022     27023     27016     27019     27022     27024
     27016     27019     27022     27025     27017     27016     27019     27020
     27017     27016     27019     27021     27017     27016     27019     27022
     27018     27016     27019     27020     27018     27016     27019     27021
     27018     27016     27019     27022     27019     27022     27025     27026
     27019     27022     27025     27027     27019     27022     27025     27028
     27020     27019     27022     27023     27020     27019     27022     27024
     27020     27019     27022     27025     27021     27019     27022     27023
     27021     27019     27022     27024     27021     27019     27022     27025
     27022     27025     27028     27029     27022     27025     27028     27030
     27022     27025     27028     27031     27023     27022     27025     27026
     27023     27022     27025     27027     27023     27022     27025     27028
     27024     27022     27025     27026     27024     27022     27025     27027
     27024     27022     27025     27028     27025     27028     27031     27032
     27025     27028     27031     27033     27025     27028     27031     27034
     27026     27025     27028     27029     27026     27025     27028     27030
     27026     27025     27028     27031     27027     27025     27028     27029
     27027     27025     27028     27030     27027     27025     27028     27031
     27028     27031     27034     27035     27028     27031     27034     27036
     27028     27031     27034     27037     27029     27028     27031     27032
     27029     27028     27031     27033     27029     27028     27031     27034
     27030     27028     27031     27032     27030     27028     27031     27033
     27030     27028     27031     27034     27031     27034     27037     27038
     27031     27034     27037     27039     27031     27034     27037     27040
     27032     27031     27034     27035     27032     27031     27034     27036
     27032     27031     27034     27037     27033     27031     27034     27035
     27033     27031     27034     27036     27033     27031     27034     27037
     27034     27037     27040     27041     27034     27037     27040     27042
     27034     27037     27040     27043     27035     27034     27037     27038
     27035     27034     27037     27039     27035     27034     27037     27040
     27036     27034     27037     27038     27036     27034     27037     27039
     27036     27034     27037     27040     27037     27040     27043     27044
     27037     27040     27043     27045     27037     27040     27043     27046
     27038     27037     27040     27041     27038     27037     27040     27042
     27038     27037     27040     27043     27039     27037     27040     27041
     27039     27037     27040     27042     27039     27037     27040     27043
     27040     27043     27046     27047     27040     27043     27046     27048
     27040     27043     27046     27049     27041     27040     27043     27044
     27041     27040     27043     27045     27041     27040     27043     27046
     27042     27040     27043     27044     27042     27040     27043     27045
     27042     27040     27043     27046     27044     27043     27046     27047
     27044     27043     27046     27048     27044     27043     27046     27049
     27045     27043     27046     27047     27045     27043     27046     27048
     27045     27043     27046     27049     27050     27054     27056     27057
     27050     27054     27056     27058     27050     27054     27059     27060
     27050     27054     27059     27061     27050     27054     27059     27065
     27051     27050     27054     27055     27051     27050     27054     27056
     27051     27050     27054     27059     27052     27050     27054     27055
     27052     27050     27054     27056     27052     27050     27054     27059
     27053     27050     27054     27055     27053     27050     27054     27056
     27053     27050     27054     27059     27054     27059     27065     27062
     27055     27054     27056     27057     27055     27054     27056     27058
     27055     27054     27059     27060     27055     27054     27059     27061
     27055     27054     27059     27065     27056     27054     27059     27060
     27056     27054     27059     27061     27056     27054     27059     27065
     27057     27056     27054     27059     27058     27056     27054     27059
     27059     27065     27062     27063     27059     27065     27062     27064
     27059     27065     27062     27066     27060     27059     27065     27062
     27061     27059     27065     27062     27062     27066     27067     27068
     27062     27066     27067     27069     27062     27066     27067     27070
     27063     27062     27066     27067     27064     27062     27066     27067
     27065     27062     27066     27067     27066     27067     27070     27071
     27066     27067     27070     27072     27066     27067     27070     27078
     27067     27070     27072     27073     27067     27070     27078     27079
     27067     27070     27078     27080     27067     27070     27078     27081
     27068     27067     27070     27071     27068     27067     27070     27072
     27068     27067     27070     27078     27069     27067     27070     27071
     27069     27067     27070     27072     27069     27067     27070     27078
     27070     27072     27073     27074     27070     27072     27073     27075
     27070     27078     27081     27082     27071     27070     27072     27073
     27071     27070     27078     27079     27071     27070     27078     27080
     27071     27070     27078     27081     27072     27070     27078     27079
     27072     27070     27078     27080     27072     27070     27078     27081
     27072     27073     27075     27076     27072     27073     27075     27077
     27072     27073     27075     27087     27073     27072     27070     27078
     27073     27075     27087     27088     27073     27075     27087     27089
     27073     27075     27087     27090     27074     27073     27075     27076
     27074     27073     27075     27077     27074     27073     27075     27087
     27075     27087     27090     27091     27075     27087     27090     27092
     27075     27087     27090     27093     27076     27075     27087     27088
     27076     27075     27087     27089     27076     27075     27087     27090
     27077     27075     27087     27088     27077     27075     27087     27089
     27077     27075     27087     27090     27078     27081     27082     27083
     27078     27081     27082     27084     27079     27078     27081     27082
     27080     27078     27081     27082     27081     27082     27084     27085
     27081     27082     27084     27086     27081     27082     27084     27134
     27082     27084     27134     27135     27082     27084     27134     27136
     27082     27084     27134     27137     27083     27082     27084     27085
     27083     27082     27084     27086     27083     27082     27084     27134
     27084     27134     27137     27138     27084     27134     27137     27139
     27084     27134     27137     27140     27085     27084     27134     27135
     27085     27084     27134     27136     27085     27084     27134     27137
     27086     27084     27134     27135     27086     27084     27134     27136
     27086     27084     27134     27137     27087     27090     27093     27094
     27087     27090     27093     27095     27087     27090     27093     27096
     27088     27087     27090     27091     27088     27087     27090     27092
     27088     27087     27090     27093     27089     27087     27090     27091
     27089     27087     27090     27092     27089     27087     27090     27093
     27090     27093     27096     27097     27090     27093     27096     27098
     27090     27093     27096     27099     27091     27090     27093     27094
     27091     27090     27093     27095     27091     27090     27093     27096
     27092     27090     27093     27094     27092     27090     27093     27095
     27092     27090     27093     27096     27093     27096     27099     27100
     27093     27096     27099     27101     27093     27096     27099     27102
     27094     27093     27096     27097     27094     27093     27096     27098
     27094     27093     27096     27099     27095     27093     27096     27097
     27095     27093     27096     27098     27095     27093     27096     27099
     27096     27099     27102     27103     27096     27099     27102     27104
     27096     27099     27102     27105     27097     27096     27099     27100
     27097     27096     27099     27101     27097     27096     27099     27102
     27098     27096     27099     27100     27098     27096     27099     27101
     27098     27096     27099     27102     27099     27102     27105     27106
     27099     27102     27105     27107     27100     27099     27102     27103
     27100     27099     27102     27104     27100     27099     27102     27105
     27101     27099     27102     27103     27101     27099     27102     27104
     27101     27099     27102     27105     27102     27105     27107     27108
     27102     27105     27107     27109     27103     27102     27105     27106
     27103     27102     27105     27107     27104     27102     27105     27106
     27104     27102     27105     27107     27105     27107     27109     27110
     27105     27107     27109     27111     27105     27107     27109     27112
     27106     27105     27107     27108     27106     27105     27107     27109
     27107     27109     27112     27113     27107     27109     27112     27114
     27107     27109     27112     27115     27108     27107     27109     27110
     27108     27107     27109     27111     27108     27107     27109     27112
     27109     27112     27115     27116     27109     27112     27115     27117
     27109     27112     27115     27118     27110     27109     27112     27113
     27110     27109     27112     27114     27110     27109     27112     27115
     27111     27109     27112     27113     27111     27109     27112     27114
     27111     27109     27112     27115     27112     27115     27118     27119
     27112     27115     27118     27120     27112     27115     27118     27121
     27113     27112     27115     27116     27113     27112     27115     27117
     27113     27112     27115     27118     27114     27112     27115     27116
     27114     27112     27115     27117     27114     27112     27115     27118
     27115     27118     27121     27122     27115     27118     27121     27123
     27115     27118     27121     27124     27116     27115     27118     27119
     27116     27115     27118     27120     27116     27115     27118     27121
     27117     27115     27118     27119     27117     27115     27118     27120
     27117     27115     27118     27121     27118     27121     27124     27125
     27118     27121     27124     27126     27118     27121     27124     27127
     27119     27118     27121     27122     27119     27118     27121     27123
     27119     27118     27121     27124     27120     27118     27121     27122
     27120     27118     27121     27123     27120     27118     27121     27124
     27121     27124     27127     27128     27121     27124     27127     27129
     27121     27124     27127     27130     27122     27121     27124     27125
     27122     27121     27124     27126     27122     27121     27124     27127
     27123     27121     27124     27125     27123     27121     27124     27126
     27123     27121     27124     27127     27124     27127     27130     27131
     27124     27127     27130     27132     27124     27127     27130     27133
     27125     27124     27127     27128     27125     27124     27127     27129
     27125     27124     27127     27130     27126     27124     27127     27128
     27126     27124     27127     27129     27126     27124     27127     27130
     27128     27127     27130     27131     27128     27127     27130     27132
     27128     27127     27130     27133     27129     27127     27130     27131
     27129     27127     27130     27132     27129     27127     27130     27133
     27134     27137     27140     27141     27134     27137     27140     27142
     27134     27137     27140     27143     27135     27134     27137     27138
     27135     27134     27137     27139     27135     27134     27137     27140
     27136     27134     27137     27138     27136     27134     27137     27139
     27136     27134     27137     27140     27137     27140     27143     27144
     27137     27140     27143     27145     27137     27140     27143     27146
     27138     27137     27140     27141     27138     27137     27140     27142
     27138     27137     27140     27143     27139     27137     27140     27141
     27139     27137     27140     27142     27139     27137     27140     27143
     27140     27143     27146     27147     27140     27143     27146     27148
     27140     27143     27146     27149     27141     27140     27143     27144
     27141     27140     27143     27145     27141     27140     27143     27146
     27142     27140     27143     27144     27142     27140     27143     27145
     27142     27140     27143     27146     27143     27146     27149     27150
     27143     27146     27149     27151     27143     27146     27149     27152
     27144     27143     27146     27147     27144     27143     27146     27148
     27144     27143     27146     27149     27145     27143     27146     27147
     27145     27143     27146     27148     27145     27143     27146     27149
     27146     27149     27152     27153     27146     27149     27152     27154
     27146     27149     27152     27155     27147     27146     27149     27150
     27147     27146     27149     27151     27147     27146     27149     27152
     27148     27146     27149     27150     27148     27146     27149     27151
     27148     27146     27149     27152     27149     27152     27155     27156
     27149     27152     27155     27157     27149     27152     27155     27158
     27150     27149     27152     27153     27150     27149     27152     27154
     27150     27149     27152     27155     27151     27149     27152     27153
     27151     27149     27152     27154     27151     27149     27152     27155
     27152     27155     27158     27159     27152     27155     27158     27160
     27152     27155     27158     27161     27153     27152     27155     27156
     27153     27152     27155     27157     27153     27152     27155     27158
     27154     27152     27155     27156     27154     27152     27155     27157
     27154     27152     27155     27158     27155     27158     27161     27162
     27155     27158     27161     27163     27155     27158     27161     27164
     27156     27155     27158     27159     27156     27155     27158     27160
     27156     27155     27158     27161     27157     27155     27158     27159
     27157     27155     27158     27160     27157     27155     27158     27161
     27158     27161     27164     27165     27158     27161     27164     27166
     27158     27161     27164     27167     27159     27158     27161     27162
     27159     27158     27161     27163     27159     27158     27161     27164
     27160     27158     27161     27162     27160     27158     27161     27163
     27160     27158     27161     27164     27161     27164     27167     27168
     27161     27164     27167     27169     27161     27164     27167     27170
     27162     27161     27164     27165     27162     27161     27164     27166
     27162     27161     27164     27167     27163     27161     27164     27165
     27163     27161     27164     27166     27163     27161     27164     27167
     27164     27167     27170     27171     27164     27167     27170     27172
     27164     27167     27170     27173     27165     27164     27167     27168
     27165     27164     27167     27169     27165     27164     27167     27170
     27166     27164     27167     27168     27166     27164     27167     27169
     27166     27164     27167     27170     27167     27170     27173     27174
     27167     27170     27173     27175     27167     27170     27173     27176
     27168     27167     27170     27171     27168     27167     27170     27172
     27168     27167     27170     27173     27169     27167     27170     27171
     27169     27167     27170     27172     27169     27167     27170     27173
     27171     27170     27173     27174     27171     27170     27173     27175
     27171     27170     27173     27176     27172     27170     27173     27174
     27172     27170     27173     27175     27172     27170     27173     27176
     27177     27178     27193     27194     27177     27178     27193     27195
     27177     27178     27193     27199     27178     27177     27181     27182
     27178     27177     27181     27183     27178     27177     27181     27184
     27178     27177     27185     27186     27178     27177     27185     27187
     27178     27177     27185     27188     27178     27177     27189     27190
     27178     27177     27189     27191     27178     27177     27189     27192
     27178     27193     27199     27196     27179     27178     27177     27181
     27179     27178     27177     27185     27179     27178     27177     27189
     27179     27178     27193     27194     27179     27178     27193     27195
     27179     27178     27193     27199     27180     27178     27177     27181
     27180     27178     27177     27185     27180     27178     27177     27189
     27180     27178     27193     27194     27180     27178     27193     27195
     27180     27178     27193     27199     27181     27177     27178     27193
     27181     27177     27185     27186     27181     27177     27185     27187
     27181     27177     27185     27188     27181     27177     27189     27190
     27181     27177     27189     27191     27181     27177     27189     27192
     27182     27181     27177     27185     27182     27181     27177     27189
     27183     27181     27177     27185     27183     27181     27177     27189
     27184     27181     27177     27185     27184     27181     27177     27189
     27185     27177     27178     27193     27185     27177     27189     27190
     27185     27177     27189     27191     27185     27177     27189     27192
     27186     27185     27177     27189     27187     27185     27177     27189
     27188     27185     27177     27189     27189     27177     27178     27193
     27193     27199     27196     27197     27193     27199     27196     27198
     27193     27199     27196     27200     27194     27193     27199     27196
     27195     27193     27199     27196     27196     27200     27201     27202
     27196     27200     27201     27203     27196     27200     27201     27204
     27197     27196     27200     27201     27198     27196     27200     27201
     27199     27196     27200     27201     27200     27201     27204     27205
     27200     27201     27204     27206     27200     27201     27204     27212
     27201     27204     27206     27207     27201     27204     27212     27213
     27201     27204     27212     27214     27201     27204     27212     27215
     27202     27201     27204     27205     27202     27201     27204     27206
     27202     27201     27204     27212     27203     27201     27204     27205
     27203     27201     27204     27206     27203     27201     27204     27212
     27204     27206     27207     27208     27204     27206     27207     27209
     27204     27212     27215     27216     27205     27204     27206     27207
     27205     27204     27212     27213     27205     27204     27212     27214
     27205     27204     27212     27215     27206     27204     27212     27213
     27206     27204     27212     27214     27206     27204     27212     27215
     27206     27207     27209     27210     27206     27207     27209     27211
     27206     27207     27209     27221     27207     27206     27204     27212
     27207     27209     27221     27222     27207     27209     27221     27223
     27207     27209     27221     27224     27208     27207     27209     27210
     27208     27207     27209     27211     27208     27207     27209     27221
     27209     27221     27224     27225     27209     27221     27224     27226
     27209     27221     27224     27227     27210     27209     27221     27222
     27210     27209     27221     27223     27210     27209     27221     27224
     27211     27209     27221     27222     27211     27209     27221     27223
     27211     27209     27221     27224     27212     27215     27216     27217
     27212     27215     27216     27218     27213     27212     27215     27216
     27214     27212     27215     27216     27215     27216     27218     27219
     27215     27216     27218     27220     27215     27216     27218     27268
     27216     27218     27268     27269     27216     27218     27268     27270
     27216     27218     27268     27271     27217     27216     27218     27219
     27217     27216     27218     27220     27217     27216     27218     27268
     27218     27268     27271     27272     27218     27268     27271     27273
     27218     27268     27271     27274     27219     27218     27268     27269
     27219     27218     27268     27270     27219     27218     27268     27271
     27220     27218     27268     27269     27220     27218     27268     27270
     27220     27218     27268     27271     27221     27224     27227     27228
     27221     27224     27227     27229     27221     27224     27227     27230
     27222     27221     27224     27225     27222     27221     27224     27226
     27222     27221     27224     27227     27223     27221     27224     27225
     27223     27221     27224     27226     27223     27221     27224     27227
     27224     27227     27230     27231     27224     27227     27230     27232
     27224     27227     27230     27233     27225     27224     27227     27228
     27225     27224     27227     27229     27225     27224     27227     27230
     27226     27224     27227     27228     27226     27224     27227     27229
     27226     27224     27227     27230     27227     27230     27233     27234
     27227     27230     27233     27235     27227     27230     27233     27236
     27228     27227     27230     27231     27228     27227     27230     27232
     27228     27227     27230     27233     27229     27227     27230     27231
     27229     27227     27230     27232     27229     27227     27230     27233
     27230     27233     27236     27237     27230     27233     27236     27238
     27230     27233     27236     27239     27231     27230     27233     27234
     27231     27230     27233     27235     27231     27230     27233     27236
     27232     27230     27233     27234     27232     27230     27233     27235
     27232     27230     27233     27236     27233     27236     27239     27240
     27233     27236     27239     27241     27234     27233     27236     27237
     27234     27233     27236     27238     27234     27233     27236     27239
     27235     27233     27236     27237     27235     27233     27236     27238
     27235     27233     27236     27239     27236     27239     27241     27242
     27236     27239     27241     27243     27237     27236     27239     27240
     27237     27236     27239     27241     27238     27236     27239     27240
     27238     27236     27239     27241     27239     27241     27243     27244
     27239     27241     27243     27245     27239     27241     27243     27246
     27240     27239     27241     27242     27240     27239     27241     27243
     27241     27243     27246     27247     27241     27243     27246     27248
     27241     27243     27246     27249     27242     27241     27243     27244
     27242     27241     27243     27245     27242     27241     27243     27246
     27243     27246     27249     27250     27243     27246     27249     27251
     27243     27246     27249     27252     27244     27243     27246     27247
     27244     27243     27246     27248     27244     27243     27246     27249
     27245     27243     27246     27247     27245     27243     27246     27248
     27245     27243     27246     27249     27246     27249     27252     27253
     27246     27249     27252     27254     27246     27249     27252     27255
     27247     27246     27249     27250     27247     27246     27249     27251
     27247     27246     27249     27252     27248     27246     27249     27250
     27248     27246     27249     27251     27248     27246     27249     27252
     27249     27252     27255     27256     27249     27252     27255     27257
     27249     27252     27255     27258     27250     27249     27252     27253
     27250     27249     27252     27254     27250     27249     27252     27255
     27251     27249     27252     27253     27251     27249     27252     27254
     27251     27249     27252     27255     27252     27255     27258     27259
     27252     27255     27258     27260     27252     27255     27258     27261
     27253     27252     27255     27256     27253     27252     27255     27257
     27253     27252     27255     27258     27254     27252     27255     27256
     27254     27252     27255     27257     27254     27252     27255     27258
     27255     27258     27261     27262     27255     27258     27261     27263
     27255     27258     27261     27264     27256     27255     27258     27259
     27256     27255     27258     27260     27256     27255     27258     27261
     27257     27255     27258     27259     27257     27255     27258     27260
     27257     27255     27258     27261     27258     27261     27264     27265
     27258     27261     27264     27266     27258     27261     27264     27267
     27259     27258     27261     27262     27259     27258     27261     27263
     27259     27258     27261     27264     27260     27258     27261     27262
     27260     27258     27261     27263     27260     27258     27261     27264
     27262     27261     27264     27265     27262     27261     27264     27266
     27262     27261     27264     27267     27263     27261     27264     27265
     27263     27261     27264     27266     27263     27261     27264     27267
     27268     27271     27274     27275     27268     27271     27274     27276
     27268     27271     27274     27277     27269     27268     27271     27272
     27269     27268     27271     27273     27269     27268     27271     27274
     27270     27268     27271     27272     27270     27268     27271     27273
     27270     27268     27271     27274     27271     27274     27277     27278
     27271     27274     27277     27279     27271     27274     27277     27280
     27272     27271     27274     27275     27272     27271     27274     27276
     27272     27271     27274     27277     27273     27271     27274     27275
     27273     27271     27274     27276     27273     27271     27274     27277
     27274     27277     27280     27281     27274     27277     27280     27282
     27274     27277     27280     27283     27275     27274     27277     27278
     27275     27274     27277     27279     27275     27274     27277     27280
     27276     27274     27277     27278     27276     27274     27277     27279
     27276     27274     27277     27280     27277     27280     27283     27284
     27277     27280     27283     27285     27277     27280     27283     27286
     27278     27277     27280     27281     27278     27277     27280     27282
     27278     27277     27280     27283     27279     27277     27280     27281
     27279     27277     27280     27282     27279     27277     27280     27283
     27280     27283     27286     27287     27280     27283     27286     27288
     27280     27283     27286     27289     27281     27280     27283     27284
     27281     27280     27283     27285     27281     27280     27283     27286
     27282     27280     27283     27284     27282     27280     27283     27285
     27282     27280     27283     27286     27283     27286     27289     27290
     27283     27286     27289     27291     27283     27286     27289     27292
     27284     27283     27286     27287     27284     27283     27286     27288
     27284     27283     27286     27289     27285     27283     27286     27287
     27285     27283     27286     27288     27285     27283     27286     27289
     27286     27289     27292     27293     27286     27289     27292     27294
     27286     27289     27292     27295     27287     27286     27289     27290
     27287     27286     27289     27291     27287     27286     27289     27292
     27288     27286     27289     27290     27288     27286     27289     27291
     27288     27286     27289     27292     27289     27292     27295     27296
     27289     27292     27295     27297     27289     27292     27295     27298
     27290     27289     27292     27293     27290     27289     27292     27294
     27290     27289     27292     27295     27291     27289     27292     27293
     27291     27289     27292     27294     27291     27289     27292     27295
     27292     27295     27298     27299     27292     27295     27298     27300
     27292     27295     27298     27301     27293     27292     27295     27296
     27293     27292     27295     27297     27293     27292     27295     27298
     27294     27292     27295     27296     27294     27292     27295     27297
     27294     27292     27295     27298     27295     27298     27301     27302
     27295     27298     27301     27303     27295     27298     27301     27304
     27296     27295     27298     27299     27296     27295     27298     27300
     27296     27295     27298     27301     27297     27295     27298     27299
     27297     27295     27298     27300     27297     27295     27298     27301
     27298     27301     27304     27305     27298     27301     27304     27306
     27298     27301     27304     27307     27299     27298     27301     27302
     27299     27298     27301     27303     27299     27298     27301     27304
     27300     27298     27301     27302     27300     27298     27301     27303
     27300     27298     27301     27304     27301     27304     27307     27308
     27301     27304     27307     27309     27301     27304     27307     27310
     27302     27301     27304     27305     27302     27301     27304     27306
     27302     27301     27304     27307     27303     27301     27304     27305
     27303     27301     27304     27306     27303     27301     27304     27307
     27305     27304     27307     27308     27305     27304     27307     27309
     27305     27304     27307     27310     27306     27304     27307     27308
     27306     27304     27307     27309     27306     27304     27307     27310
     27311     27312     27327     27328     27311     27312     27327     27329
     27311     27312     27327     27333     27312     27311     27315     27316
     27312     27311     27315     27317     27312     27311     27315     27318
     27312     27311     27319     27320     27312     27311     27319     27321
     27312     27311     27319     27322     27312     27311     27323     27324
     27312     27311     27323     27325     27312     27311     27323     27326
     27312     27327     27333     27330     27313     27312     27311     27315
     27313     27312     27311     27319     27313     27312     27311     27323
     27313     27312     27327     27328     27313     27312     27327     27329
     27313     27312     27327     27333     27314     27312     27311     27315
     27314     27312     27311     27319     27314     27312     27311     27323
     27314     27312     27327     27328     27314     27312     27327     27329
     27314     27312     27327     27333     27315     27311     27312     27327
     27315     27311     27319     27320     27315     27311     27319     27321
     27315     27311     27319     27322     27315     27311     27323     27324
     27315     27311     27323     27325     27315     27311     27323     27326
     27316     27315     27311     27319     27316     27315     27311     27323
     27317     27315     27311     27319     27317     27315     27311     27323
     27318     27315     27311     27319     27318     27315     27311     27323
     27319     27311     27312     27327     27319     27311     27323     27324
     27319     27311     27323     27325     27319     27311     27323     27326
     27320     27319     27311     27323     27321     27319     27311     27323
     27322     27319     27311     27323     27323     27311     27312     27327
     27327     27333     27330     27331     27327     27333     27330     27332
     27327     27333     27330     27334     27328     27327     27333     27330
     27329     27327     27333     27330     27330     27334     27335     27336
     27330     27334     27335     27337     27330     27334     27335     27338
     27331     27330     27334     27335     27332     27330     27334     27335
     27333     27330     27334     27335     27334     27335     27338     27339
     27334     27335     27338     27340     27334     27335     27338     27346
     27335     27338     27340     27341     27335     27338     27346     27347
     27335     27338     27346     27348     27335     27338     27346     27349
     27336     27335     27338     27339     27336     27335     27338     27340
     27336     27335     27338     27346     27337     27335     27338     27339
     27337     27335     27338     27340     27337     27335     27338     27346
     27338     27340     27341     27342     27338     27340     27341     27343
     27338     27346     27349     27350     27339     27338     27340     27341
     27339     27338     27346     27347     27339     27338     27346     27348
     27339     27338     27346     27349     27340     27338     27346     27347
     27340     27338     27346     27348     27340     27338     27346     27349
     27340     27341     27343     27344     27340     27341     27343     27345
     27340     27341     27343     27355     27341     27340     27338     27346
     27341     27343     27355     27356     27341     27343     27355     27357
     27341     27343     27355     27358     27342     27341     27343     27344
     27342     27341     27343     27345     27342     27341     27343     27355
     27343     27355     27358     27359     27343     27355     27358     27360
     27343     27355     27358     27361     27344     27343     27355     27356
     27344     27343     27355     27357     27344     27343     27355     27358
     27345     27343     27355     27356     27345     27343     27355     27357
     27345     27343     27355     27358     27346     27349     27350     27351
     27346     27349     27350     27352     27347     27346     27349     27350
     27348     27346     27349     27350     27349     27350     27352     27353
     27349     27350     27352     27354     27349     27350     27352     27402
     27350     27352     27402     27403     27350     27352     27402     27404
     27350     27352     27402     27405     27351     27350     27352     27353
     27351     27350     27352     27354     27351     27350     27352     27402
     27352     27402     27405     27406     27352     27402     27405     27407
     27352     27402     27405     27408     27353     27352     27402     27403
     27353     27352     27402     27404     27353     27352     27402     27405
     27354     27352     27402     27403     27354     27352     27402     27404
     27354     27352     27402     27405     27355     27358     27361     27362
     27355     27358     27361     27363     27355     27358     27361     27364
     27356     27355     27358     27359     27356     27355     27358     27360
     27356     27355     27358     27361     27357     27355     27358     27359
     27357     27355     27358     27360     27357     27355     27358     27361
     27358     27361     27364     27365     27358     27361     27364     27366
     27358     27361     27364     27367     27359     27358     27361     27362
     27359     27358     27361     27363     27359     27358     27361     27364
     27360     27358     27361     27362     27360     27358     27361     27363
     27360     27358     27361     27364     27361     27364     27367     27368
     27361     27364     27367     27369     27361     27364     27367     27370
     27362     27361     27364     27365     27362     27361     27364     27366
     27362     27361     27364     27367     27363     27361     27364     27365
     27363     27361     27364     27366     27363     27361     27364     27367
     27364     27367     27370     27371     27364     27367     27370     27372
     27364     27367     27370     27373     27365     27364     27367     27368
     27365     27364     27367     27369     27365     27364     27367     27370
     27366     27364     27367     27368     27366     27364     27367     27369
     27366     27364     27367     27370     27367     27370     27373     27374
     27367     27370     27373     27375     27368     27367     27370     27371
     27368     27367     27370     27372     27368     27367     27370     27373
     27369     27367     27370     27371     27369     27367     27370     27372
     27369     27367     27370     27373     27370     27373     27375     27376
     27370     27373     27375     27377     27371     27370     27373     27374
     27371     27370     27373     27375     27372     27370     27373     27374
     27372     27370     27373     27375     27373     27375     27377     27378
     27373     27375     27377     27379     27373     27375     27377     27380
     27374     27373     27375     27376     27374     27373     27375     27377
     27375     27377     27380     27381     27375     27377     27380     27382
     27375     27377     27380     27383     27376     27375     27377     27378
     27376     27375     27377     27379     27376     27375     27377     27380
     27377     27380     27383     27384     27377     27380     27383     27385
     27377     27380     27383     27386     27378     27377     27380     27381
     27378     27377     27380     27382     27378     27377     27380     27383
     27379     27377     27380     27381     27379     27377     27380     27382
     27379     27377     27380     27383     27380     27383     27386     27387
     27380     27383     27386     27388     27380     27383     27386     27389
     27381     27380     27383     27384     27381     27380     27383     27385
     27381     27380     27383     27386     27382     27380     27383     27384
     27382     27380     27383     27385     27382     27380     27383     27386
     27383     27386     27389     27390     27383     27386     27389     27391
     27383     27386     27389     27392     27384     27383     27386     27387
     27384     27383     27386     27388     27384     27383     27386     27389
     27385     27383     27386     27387     27385     27383     27386     27388
     27385     27383     27386     27389     27386     27389     27392     27393
     27386     27389     27392     27394     27386     27389     27392     27395
     27387     27386     27389     27390     27387     27386     27389     27391
     27387     27386     27389     27392     27388     27386     27389     27390
     27388     27386     27389     27391     27388     27386     27389     27392
     27389     27392     27395     27396     27389     27392     27395     27397
     27389     27392     27395     27398     27390     27389     27392     27393
     27390     27389     27392     27394     27390     27389     27392     27395
     27391     27389     27392     27393     27391     27389     27392     27394
     27391     27389     27392     27395     27392     27395     27398     27399
     27392     27395     27398     27400     27392     27395     27398     27401
     27393     27392     27395     27396     27393     27392     27395     27397
     27393     27392     27395     27398     27394     27392     27395     27396
     27394     27392     27395     27397     27394     27392     27395     27398
     27396     27395     27398     27399     27396     27395     27398     27400
     27396     27395     27398     27401     27397     27395     27398     27399
     27397     27395     27398     27400     27397     27395     27398     27401
     27402     27405     27408     27409     27402     27405     27408     27410
     27402     27405     27408     27411     27403     27402     27405     27406
     27403     27402     27405     27407     27403     27402     27405     27408
     27404     27402     27405     27406     27404     27402     27405     27407
     27404     27402     27405     27408     27405     27408     27411     27412
     27405     27408     27411     27413     27405     27408     27411     27414
     27406     27405     27408     27409     27406     27405     27408     27410
     27406     27405     27408     27411     27407     27405     27408     27409
     27407     27405     27408     27410     27407     27405     27408     27411
     27408     27411     27414     27415     27408     27411     27414     27416
     27408     27411     27414     27417     27409     27408     27411     27412
     27409     27408     27411     27413     27409     27408     27411     27414
     27410     27408     27411     27412     27410     27408     27411     27413
     27410     27408     27411     27414     27411     27414     27417     27418
     27411     27414     27417     27419     27411     27414     27417     27420
     27412     27411     27414     27415     27412     27411     27414     27416
     27412     27411     27414     27417     27413     27411     27414     27415
     27413     27411     27414     27416     27413     27411     27414     27417
     27414     27417     27420     27421     27414     27417     27420     27422
     27414     27417     27420     27423     27415     27414     27417     27418
     27415     27414     27417     27419     27415     27414     27417     27420
     27416     27414     27417     27418     27416     27414     27417     27419
     27416     27414     27417     27420     27417     27420     27423     27424
     27417     27420     27423     27425     27417     27420     27423     27426
     27418     27417     27420     27421     27418     27417     27420     27422
     27418     27417     27420     27423     27419     27417     27420     27421
     27419     27417     27420     27422     27419     27417     27420     27423
     27420     27423     27426     27427     27420     27423     27426     27428
     27420     27423     27426     27429     27421     27420     27423     27424
     27421     27420     27423     27425     27421     27420     27423     27426
     27422     27420     27423     27424     27422     27420     27423     27425
     27422     27420     27423     27426     27423     27426     27429     27430
     27423     27426     27429     27431     27423     27426     27429     27432
     27424     27423     27426     27427     27424     27423     27426     27428
     27424     27423     27426     27429     27425     27423     27426     27427
     27425     27423     27426     27428     27425     27423     27426     27429
     27426     27429     27432     27433     27426     27429     27432     27434
     27426     27429     27432     27435     27427     27426     27429     27430
     27427     27426     27429     27431     27427     27426     27429     27432
     27428     27426     27429     27430     27428     27426     27429     27431
     27428     27426     27429     27432     27429     27432     27435     27436
     27429     27432     27435     27437     27429     27432     27435     27438
     27430     27429     27432     27433     27430     27429     27432     27434
     27430     27429     27432     27435     27431     27429     27432     27433
     27431     27429     27432     27434     27431     27429     27432     27435
     27432     27435     27438     27439     27432     27435     27438     27440
     27432     27435     27438     27441     27433     27432     27435     27436
     27433     27432     27435     27437     27433     27432     27435     27438
     27434     27432     27435     27436     27434     27432     27435     27437
     27434     27432     27435     27438     27435     27438     27441     27442
     27435     27438     27441     27443     27435     27438     27441     27444
     27436     27435     27438     27439     27436     27435     27438     27440
     27436     27435     27438     27441     27437     27435     27438     27439
     27437     27435     27438     27440     27437     27435     27438     27441
     27439     27438     27441     27442     27439     27438     27441     27443
     27439     27438     27441     27444     27440     27438     27441     27442
     27440     27438     27441     27443     27440     27438     27441     27444
     27445     27446     27461     27462     27445     27446     27461     27463
     27445     27446     27461     27467     27446     27445     27449     27450
     27446     27445     27449     27451     27446     27445     27449     27452
     27446     27445     27453     27454     27446     27445     27453     27455
     27446     27445     27453     27456     27446     27445     27457     27458
     27446     27445     27457     27459     27446     27445     27457     27460
     27446     27461     27467     27464     27447     27446     27445     27449
     27447     27446     27445     27453     27447     27446     27445     27457
     27447     27446     27461     27462     27447     27446     27461     27463
     27447     27446     27461     27467     27448     27446     27445     27449
     27448     27446     27445     27453     27448     27446     27445     27457
     27448     27446     27461     27462     27448     27446     27461     27463
     27448     27446     27461     27467     27449     27445     27446     27461
     27449     27445     27453     27454     27449     27445     27453     27455
     27449     27445     27453     27456     27449     27445     27457     27458
     27449     27445     27457     27459     27449     27445     27457     27460
     27450     27449     27445     27453     27450     27449     27445     27457
     27451     27449     27445     27453     27451     27449     27445     27457
     27452     27449     27445     27453     27452     27449     27445     27457
     27453     27445     27446     27461     27453     27445     27457     27458
     27453     27445     27457     27459     27453     27445     27457     27460
     27454     27453     27445     27457     27455     27453     27445     27457
     27456     27453     27445     27457     27457     27445     27446     27461
     27461     27467     27464     27465     27461     27467     27464     27466
     27461     27467     27464     27468     27462     27461     27467     27464
     27463     27461     27467     27464     27464     27468     27469     27470
     27464     27468     27469     27471     27464     27468     27469     27472
     27465     27464     27468     27469     27466     27464     27468     27469
     27467     27464     27468     27469     27468     27469     27472     27473
     27468     27469     27472     27474     27468     27469     27472     27480
     27469     27472     27474     27475     27469     27472     27480     27481
     27469     27472     27480     27482     27469     27472     27480     27483
     27470     27469     27472     27473     27470     27469     27472     27474
     27470     27469     27472     27480     27471     27469     27472     27473
     27471     27469     27472     27474     27471     27469     27472     27480
     27472     27474     27475     27476     27472     27474     27475     27477
     27472     27480     27483     27484     27473     27472     27474     27475
     27473     27472     27480     27481     27473     27472     27480     27482
     27473     27472     27480     27483     27474     27472     27480     27481
     27474     27472     27480     27482     27474     27472     27480     27483
     27474     27475     27477     27478     27474     27475     27477     27479
     27474     27475     27477     27489     27475     27474     27472     27480
     27475     27477     27489     27490     27475     27477     27489     27491
     27475     27477     27489     27492     27476     27475     27477     27478
     27476     27475     27477     27479     27476     27475     27477     27489
     27477     27489     27492     27493     27477     27489     27492     27494
     27477     27489     27492     27495     27478     27477     27489     27490
     27478     27477     27489     27491     27478     27477     27489     27492
     27479     27477     27489     27490     27479     27477     27489     27491
     27479     27477     27489     27492     27480     27483     27484     27485
     27480     27483     27484     27486     27481     27480     27483     27484
     27482     27480     27483     27484     27483     27484     27486     27487
     27483     27484     27486     27488     27483     27484     27486     27536
     27484     27486     27536     27537     27484     27486     27536     27538
     27484     27486     27536     27539     27485     27484     27486     27487
     27485     27484     27486     27488     27485     27484     27486     27536
     27486     27536     27539     27540     27486     27536     27539     27541
     27486     27536     27539     27542     27487     27486     27536     27537
     27487     27486     27536     27538     27487     27486     27536     27539
     27488     27486     27536     27537     27488     27486     27536     27538
     27488     27486     27536     27539     27489     27492     27495     27496
     27489     27492     27495     27497     27489     27492     27495     27498
     27490     27489     27492     27493     27490     27489     27492     27494
     27490     27489     27492     27495     27491     27489     27492     27493
     27491     27489     27492     27494     27491     27489     27492     27495
     27492     27495     27498     27499     27492     27495     27498     27500
     27492     27495     27498     27501     27493     27492     27495     27496
     27493     27492     27495     27497     27493     27492     27495     27498
     27494     27492     27495     27496     27494     27492     27495     27497
     27494     27492     27495     27498     27495     27498     27501     27502
     27495     27498     27501     27503     27495     27498     27501     27504
     27496     27495     27498     27499     27496     27495     27498     27500
     27496     27495     27498     27501     27497     27495     27498     27499
     27497     27495     27498     27500     27497     27495     27498     27501
     27498     27501     27504     27505     27498     27501     27504     27506
     27498     27501     27504     27507     27499     27498     27501     27502
     27499     27498     27501     27503     27499     27498     27501     27504
     27500     27498     27501     27502     27500     27498     27501     27503
     27500     27498     27501     27504     27501     27504     27507     27508
     27501     27504     27507     27509     27502     27501     27504     27505
     27502     27501     27504     27506     27502     27501     27504     27507
     27503     27501     27504     27505     27503     27501     27504     27506
     27503     27501     27504     27507     27504     27507     27509     27510
     27504     27507     27509     27511     27505     27504     27507     27508
     27505     27504     27507     27509     27506     27504     27507     27508
     27506     27504     27507     27509     27507     27509     27511     27512
     27507     27509     27511     27513     27507     27509     27511     27514
     27508     27507     27509     27510     27508     27507     27509     27511
     27509     27511     27514     27515     27509     27511     27514     27516
     27509     27511     27514     27517     27510     27509     27511     27512
     27510     27509     27511     27513     27510     27509     27511     27514
     27511     27514     27517     27518     27511     27514     27517     27519
     27511     27514     27517     27520     27512     27511     27514     27515
     27512     27511     27514     27516     27512     27511     27514     27517
     27513     27511     27514     27515     27513     27511     27514     27516
     27513     27511     27514     27517     27514     27517     27520     27521
     27514     27517     27520     27522     27514     27517     27520     27523
     27515     27514     27517     27518     27515     27514     27517     27519
     27515     27514     27517     27520     27516     27514     27517     27518
     27516     27514     27517     27519     27516     27514     27517     27520
     27517     27520     27523     27524     27517     27520     27523     27525
     27517     27520     27523     27526     27518     27517     27520     27521
     27518     27517     27520     27522     27518     27517     27520     27523
     27519     27517     27520     27521     27519     27517     27520     27522
     27519     27517     27520     27523     27520     27523     27526     27527
     27520     27523     27526     27528     27520     27523     27526     27529
     27521     27520     27523     27524     27521     27520     27523     27525
     27521     27520     27523     27526     27522     27520     27523     27524
     27522     27520     27523     27525     27522     27520     27523     27526
     27523     27526     27529     27530     27523     27526     27529     27531
     27523     27526     27529     27532     27524     27523     27526     27527
     27524     27523     27526     27528     27524     27523     27526     27529
     27525     27523     27526     27527     27525     27523     27526     27528
     27525     27523     27526     27529     27526     27529     27532     27533
     27526     27529     27532     27534     27526     27529     27532     27535
     27527     27526     27529     27530     27527     27526     27529     27531
     27527     27526     27529     27532     27528     27526     27529     27530
     27528     27526     27529     27531     27528     27526     27529     27532
     27530     27529     27532     27533     27530     27529     27532     27534
     27530     27529     27532     27535     27531     27529     27532     27533
     27531     27529     27532     27534     27531     27529     27532     27535
     27536     27539     27542     27543     27536     27539     27542     27544
     27536     27539     27542     27545     27537     27536     27539     27540
     27537     27536     27539     27541     27537     27536     27539     27542
     27538     27536     27539     27540     27538     27536     27539     27541
     27538     27536     27539     27542     27539     27542     27545     27546
     27539     27542     27545     27547     27539     27542     27545     27548
     27540     27539     27542     27543     27540     27539     27542     27544
     27540     27539     27542     27545     27541     27539     27542     27543
     27541     27539     27542     27544     27541     27539     27542     27545
     27542     27545     27548     27549     27542     27545     27548     27550
     27542     27545     27548     27551     27543     27542     27545     27546
     27543     27542     27545     27547     27543     27542     27545     27548
     27544     27542     27545     27546     27544     27542     27545     27547
     27544     27542     27545     27548     27545     27548     27551     27552
     27545     27548     27551     27553     27545     27548     27551     27554
     27546     27545     27548     27549     27546     27545     27548     27550
     27546     27545     27548     27551     27547     27545     27548     27549
     27547     27545     27548     27550     27547     27545     27548     27551
     27548     27551     27554     27555     27548     27551     27554     27556
     27548     27551     27554     27557     27549     27548     27551     27552
     27549     27548     27551     27553     27549     27548     27551     27554
     27550     27548     27551     27552     27550     27548     27551     27553
     27550     27548     27551     27554     27551     27554     27557     27558
     27551     27554     27557     27559     27551     27554     27557     27560
     27552     27551     27554     27555     27552     27551     27554     27556
     27552     27551     27554     27557     27553     27551     27554     27555
     27553     27551     27554     27556     27553     27551     27554     27557
     27554     27557     27560     27561     27554     27557     27560     27562
     27554     27557     27560     27563     27555     27554     27557     27558
     27555     27554     27557     27559     27555     27554     27557     27560
     27556     27554     27557     27558     27556     27554     27557     27559
     27556     27554     27557     27560     27557     27560     27563     27564
     27557     27560     27563     27565     27557     27560     27563     27566
     27558     27557     27560     27561     27558     27557     27560     27562
     27558     27557     27560     27563     27559     27557     27560     27561
     27559     27557     27560     27562     27559     27557     27560     27563
     27560     27563     27566     27567     27560     27563     27566     27568
     27560     27563     27566     27569     27561     27560     27563     27564
     27561     27560     27563     27565     27561     27560     27563     27566
     27562     27560     27563     27564     27562     27560     27563     27565
     27562     27560     27563     27566     27563     27566     27569     27570
     27563     27566     27569     27571     27563     27566     27569     27572
     27564     27563     27566     27567     27564     27563     27566     27568
     27564     27563     27566     27569     27565     27563     27566     27567
     27565     27563     27566     27568     27565     27563     27566     27569
     27566     27569     27572     27573     27566     27569     27572     27574
     27566     27569     27572     27575     27567     27566     27569     27570
     27567     27566     27569     27571     27567     27566     27569     27572
     27568     27566     27569     27570     27568     27566     27569     27571
     27568     27566     27569     27572     27569     27572     27575     27576
     27569     27572     27575     27577     27569     27572     27575     27578
     27570     27569     27572     27573     27570     27569     27572     27574
     27570     27569     27572     27575     27571     27569     27572     27573
     27571     27569     27572     27574     27571     27569     27572     27575
     27573     27572     27575     27576     27573     27572     27575     27577
     27573     27572     27575     27578     27574     27572     27575     27576
     27574     27572     27575     27577     27574     27572     27575     27578
     27579     27580     27595     27596     27579     27580     27595     27597
     27579     27580     27595     27601     27580     27579     27583     27584
     27580     27579     27583     27585     27580     27579     27583     27586
     27580     27579     27587     27588     27580     27579     27587     27589
     27580     27579     27587     27590     27580     27579     27591     27592
     27580     27579     27591     27593     27580     27579     27591     27594
     27580     27595     27601     27598     27581     27580     27579     27583
     27581     27580     27579     27587     27581     27580     27579     27591
     27581     27580     27595     27596     27581     27580     27595     27597
     27581     27580     27595     27601     27582     27580     27579     27583
     27582     27580     27579     27587     27582     27580     27579     27591
     27582     27580     27595     27596     27582     27580     27595     27597
     27582     27580     27595     27601     27583     27579     27580     27595
     27583     27579     27587     27588     27583     27579     27587     27589
     27583     27579     27587     27590     27583     27579     27591     27592
     27583     27579     27591     27593     27583     27579     27591     27594
     27584     27583     27579     27587     27584     27583     27579     27591
     27585     27583     27579     27587     27585     27583     27579     27591
     27586     27583     27579     27587     27586     27583     27579     27591
     27587     27579     27580     27595     27587     27579     27591     27592
     27587     27579     27591     27593     27587     27579     27591     27594
     27588     27587     27579     27591     27589     27587     27579     27591
     27590     27587     27579     27591     27591     27579     27580     27595
     27595     27601     27598     27599     27595     27601     27598     27600
     27595     27601     27598     27602     27596     27595     27601     27598
     27597     27595     27601     27598     27598     27602     27603     27604
     27598     27602     27603     27605     27598     27602     27603     27606
     27599     27598     27602     27603     27600     27598     27602     27603
     27601     27598     27602     27603     27602     27603     27606     27607
     27602     27603     27606     27608     27602     27603     27606     27614
     27603     27606     27608     27609     27603     27606     27614     27615
     27603     27606     27614     27616     27603     27606     27614     27617
     27604     27603     27606     27607     27604     27603     27606     27608
     27604     27603     27606     27614     27605     27603     27606     27607
     27605     27603     27606     27608     27605     27603     27606     27614
     27606     27608     27609     27610     27606     27608     27609     27611
     27606     27614     27617     27618     27607     27606     27608     27609
     27607     27606     27614     27615     27607     27606     27614     27616
     27607     27606     27614     27617     27608     27606     27614     27615
     27608     27606     27614     27616     27608     27606     27614     27617
     27608     27609     27611     27612     27608     27609     27611     27613
     27608     27609     27611     27623     27609     27608     27606     27614
     27609     27611     27623     27624     27609     27611     27623     27625
     27609     27611     27623     27626     27610     27609     27611     27612
     27610     27609     27611     27613     27610     27609     27611     27623
     27611     27623     27626     27627     27611     27623     27626     27628
     27611     27623     27626     27629     27612     27611     27623     27624
     27612     27611     27623     27625     27612     27611     27623     27626
     27613     27611     27623     27624     27613     27611     27623     27625
     27613     27611     27623     27626     27614     27617     27618     27619
     27614     27617     27618     27620     27615     27614     27617     27618
     27616     27614     27617     27618     27617     27618     27620     27621
     27617     27618     27620     27622     27617     27618     27620     27670
     27618     27620     27670     27671     27618     27620     27670     27672
     27618     27620     27670     27673     27619     27618     27620     27621
     27619     27618     27620     27622     27619     27618     27620     27670
     27620     27670     27673     27674     27620     27670     27673     27675
     27620     27670     27673     27676     27621     27620     27670     27671
     27621     27620     27670     27672     27621     27620     27670     27673
     27622     27620     27670     27671     27622     27620     27670     27672
     27622     27620     27670     27673     27623     27626     27629     27630
     27623     27626     27629     27631     27623     27626     27629     27632
     27624     27623     27626     27627     27624     27623     27626     27628
     27624     27623     27626     27629     27625     27623     27626     27627
     27625     27623     27626     27628     27625     27623     27626     27629
     27626     27629     27632     27633     27626     27629     27632     27634
     27626     27629     27632     27635     27627     27626     27629     27630
     27627     27626     27629     27631     27627     27626     27629     27632
     27628     27626     27629     27630     27628     27626     27629     27631
     27628     27626     27629     27632     27629     27632     27635     27636
     27629     27632     27635     27637     27629     27632     27635     27638
     27630     27629     27632     27633     27630     27629     27632     27634
     27630     27629     27632     27635     27631     27629     27632     27633
     27631     27629     27632     27634     27631     27629     27632     27635
     27632     27635     27638     27639     27632     27635     27638     27640
     27632     27635     27638     27641     27633     27632     27635     27636
     27633     27632     27635     27637     27633     27632     27635     27638
     27634     27632     27635     27636     27634     27632     27635     27637
     27634     27632     27635     27638     27635     27638     27641     27642
     27635     27638     27641     27643     27636     27635     27638     27639
     27636     27635     27638     27640     27636     27635     27638     27641
     27637     27635     27638     27639     27637     27635     27638     27640
     27637     27635     27638     27641     27638     27641     27643     27644
     27638     27641     27643     27645     27639     27638     27641     27642
     27639     27638     27641     27643     27640     27638     27641     27642
     27640     27638     27641     27643     27641     27643     27645     27646
     27641     27643     27645     27647     27641     27643     27645     27648
     27642     27641     27643     27644     27642     27641     27643     27645
     27643     27645     27648     27649     27643     27645     27648     27650
     27643     27645     27648     27651     27644     27643     27645     27646
     27644     27643     27645     27647     27644     27643     27645     27648
     27645     27648     27651     27652     27645     27648     27651     27653
     27645     27648     27651     27654     27646     27645     27648     27649
     27646     27645     27648     27650     27646     27645     27648     27651
     27647     27645     27648     27649     27647     27645     27648     27650
     27647     27645     27648     27651     27648     27651     27654     27655
     27648     27651     27654     27656     27648     27651     27654     27657
     27649     27648     27651     27652     27649     27648     27651     27653
     27649     27648     27651     27654     27650     27648     27651     27652
     27650     27648     27651     27653     27650     27648     27651     27654
     27651     27654     27657     27658     27651     27654     27657     27659
     27651     27654     27657     27660     27652     27651     27654     27655
     27652     27651     27654     27656     27652     27651     27654     27657
     27653     27651     27654     27655     27653     27651     27654     27656
     27653     27651     27654     27657     27654     27657     27660     27661
     27654     27657     27660     27662     27654     27657     27660     27663
     27655     27654     27657     27658     27655     27654     27657     27659
     27655     27654     27657     27660     27656     27654     27657     27658
     27656     27654     27657     27659     27656     27654     27657     27660
     27657     27660     27663     27664     27657     27660     27663     27665
     27657     27660     27663     27666     27658     27657     27660     27661
     27658     27657     27660     27662     27658     27657     27660     27663
     27659     27657     27660     27661     27659     27657     27660     27662
     27659     27657     27660     27663     27660     27663     27666     27667
     27660     27663     27666     27668     27660     27663     27666     27669
     27661     27660     27663     27664     27661     27660     27663     27665
     27661     27660     27663     27666     27662     27660     27663     27664
     27662     27660     27663     27665     27662     27660     27663     27666
     27664     27663     27666     27667     27664     27663     27666     27668
     27664     27663     27666     27669     27665     27663     27666     27667
     27665     27663     27666     27668     27665     27663     27666     27669
     27670     27673     27676     27677     27670     27673     27676     27678
     27670     27673     27676     27679     27671     27670     27673     27674
     27671     27670     27673     27675     27671     27670     27673     27676
     27672     27670     27673     27674     27672     27670     27673     27675
     27672     27670     27673     27676     27673     27676     27679     27680
     27673     27676     27679     27681     27673     27676     27679     27682
     27674     27673     27676     27677     27674     27673     27676     27678
     27674     27673     27676     27679     27675     27673     27676     27677
     27675     27673     27676     27678     27675     27673     27676     27679
     27676     27679     27682     27683     27676     27679     27682     27684
     27676     27679     27682     27685     27677     27676     27679     27680
     27677     27676     27679     27681     27677     27676     27679     27682
     27678     27676     27679     27680     27678     27676     27679     27681
     27678     27676     27679     27682     27679     27682     27685     27686
     27679     27682     27685     27687     27679     27682     27685     27688
     27680     27679     27682     27683     27680     27679     27682     27684
     27680     27679     27682     27685     27681     27679     27682     27683
     27681     27679     27682     27684     27681     27679     27682     27685
     27682     27685     27688     27689     27682     27685     27688     27690
     27682     27685     27688     27691     27683     27682     27685     27686
     27683     27682     27685     27687     27683     27682     27685     27688
     27684     27682     27685     27686     27684     27682     27685     27687
     27684     27682     27685     27688     27685     27688     27691     27692
     27685     27688     27691     27693     27685     27688     27691     27694
     27686     27685     27688     27689     27686     27685     27688     27690
     27686     27685     27688     27691     27687     27685     27688     27689
     27687     27685     27688     27690     27687     27685     27688     27691
     27688     27691     27694     27695     27688     27691     27694     27696
     27688     27691     27694     27697     27689     27688     27691     27692
     27689     27688     27691     27693     27689     27688     27691     27694
     27690     27688     27691     27692     27690     27688     27691     27693
     27690     27688     27691     27694     27691     27694     27697     27698
     27691     27694     27697     27699     27691     27694     27697     27700
     27692     27691     27694     27695     27692     27691     27694     27696
     27692     27691     27694     27697     27693     27691     27694     27695
     27693     27691     27694     27696     27693     27691     27694     27697
     27694     27697     27700     27701     27694     27697     27700     27702
     27694     27697     27700     27703     27695     27694     27697     27698
     27695     27694     27697     27699     27695     27694     27697     27700
     27696     27694     27697     27698     27696     27694     27697     27699
     27696     27694     27697     27700     27697     27700     27703     27704
     27697     27700     27703     27705     27697     27700     27703     27706
     27698     27697     27700     27701     27698     27697     27700     27702
     27698     27697     27700     27703     27699     27697     27700     27701
     27699     27697     27700     27702     27699     27697     27700     27703
     27700     27703     27706     27707     27700     27703     27706     27708
     27700     27703     27706     27709     27701     27700     27703     27704
     27701     27700     27703     27705     27701     27700     27703     27706
     27702     27700     27703     27704     27702     27700     27703     27705
     27702     27700     27703     27706     27703     27706     27709     27710
     27703     27706     27709     27711     27703     27706     27709     27712
     27704     27703     27706     27707     27704     27703     27706     27708
     27704     27703     27706     27709     27705     27703     27706     27707
     27705     27703     27706     27708     27705     27703     27706     27709
     27707     27706     27709     27710     27707     27706     27709     27711
     27707     27706     27709     27712     27708     27706     27709     27710
     27708     27706     27709     27711     27708     27706     27709     27712
     27713     27717     27719     27720     27713     27717     27719     27721
     27713     27717     27722     27723     27713     27717     27722     27724
     27713     27717     27722     27728     27714     27713     27717     27718
     27714     27713     27717     27719     27714     27713     27717     27722
     27715     27713     27717     27718     27715     27713     27717     27719
     27715     27713     27717     27722     27716     27713     27717     27718
     27716     27713     27717     27719     27716     27713     27717     27722
     27717     27722     27728     27725     27718     27717     27719     27720
     27718     27717     27719     27721     27718     27717     27722     27723
     27718     27717     27722     27724     27718     27717     27722     27728
     27719     27717     27722     27723     27719     27717     27722     27724
     27719     27717     27722     27728     27720     27719     27717     27722
     27721     27719     27717     27722     27722     27728     27725     27726
     27722     27728     27725     27727     27722     27728     27725     27729
     27723     27722     27728     27725     27724     27722     27728     27725
     27725     27729     27730     27731     27725     27729     27730     27732
     27725     27729     27730     27733     27726     27725     27729     27730
     27727     27725     27729     27730     27728     27725     27729     27730
     27729     27730     27733     27734     27729     27730     27733     27735
     27729     27730     27733     27741     27730     27733     27735     27736
     27730     27733     27741     27742     27730     27733     27741     27743
     27730     27733     27741     27744     27731     27730     27733     27734
     27731     27730     27733     27735     27731     27730     27733     27741
     27732     27730     27733     27734     27732     27730     27733     27735
     27732     27730     27733     27741     27733     27735     27736     27737
     27733     27735     27736     27738     27733     27741     27744     27745
     27734     27733     27735     27736     27734     27733     27741     27742
     27734     27733     27741     27743     27734     27733     27741     27744
     27735     27733     27741     27742     27735     27733     27741     27743
     27735     27733     27741     27744     27735     27736     27738     27739
     27735     27736     27738     27740     27735     27736     27738     27750
     27736     27735     27733     27741     27736     27738     27750     27751
     27736     27738     27750     27752     27736     27738     27750     27753
     27737     27736     27738     27739     27737     27736     27738     27740
     27737     27736     27738     27750     27738     27750     27753     27754
     27738     27750     27753     27755     27738     27750     27753     27756
     27739     27738     27750     27751     27739     27738     27750     27752
     27739     27738     27750     27753     27740     27738     27750     27751
     27740     27738     27750     27752     27740     27738     27750     27753
     27741     27744     27745     27746     27741     27744     27745     27747
     27742     27741     27744     27745     27743     27741     27744     27745
     27744     27745     27747     27748     27744     27745     27747     27749
     27744     27745     27747     27797     27745     27747     27797     27798
     27745     27747     27797     27799     27745     27747     27797     27800
     27746     27745     27747     27748     27746     27745     27747     27749
     27746     27745     27747     27797     27747     27797     27800     27801
     27747     27797     27800     27802     27747     27797     27800     27803
     27748     27747     27797     27798     27748     27747     27797     27799
     27748     27747     27797     27800     27749     27747     27797     27798
     27749     27747     27797     27799     27749     27747     27797     27800
     27750     27753     27756     27757     27750     27753     27756     27758
     27750     27753     27756     27759     27751     27750     27753     27754
     27751     27750     27753     27755     27751     27750     27753     27756
     27752     27750     27753     27754     27752     27750     27753     27755
     27752     27750     27753     27756     27753     27756     27759     27760
     27753     27756     27759     27761     27753     27756     27759     27762
     27754     27753     27756     27757     27754     27753     27756     27758
     27754     27753     27756     27759     27755     27753     27756     27757
     27755     27753     27756     27758     27755     27753     27756     27759
     27756     27759     27762     27763     27756     27759     27762     27764
     27756     27759     27762     27765     27757     27756     27759     27760
     27757     27756     27759     27761     27757     27756     27759     27762
     27758     27756     27759     27760     27758     27756     27759     27761
     27758     27756     27759     27762     27759     27762     27765     27766
     27759     27762     27765     27767     27759     27762     27765     27768
     27760     27759     27762     27763     27760     27759     27762     27764
     27760     27759     27762     27765     27761     27759     27762     27763
     27761     27759     27762     27764     27761     27759     27762     27765
     27762     27765     27768     27769     27762     27765     27768     27770
     27763     27762     27765     27766     27763     27762     27765     27767
     27763     27762     27765     27768     27764     27762     27765     27766
     27764     27762     27765     27767     27764     27762     27765     27768
     27765     27768     27770     27771     27765     27768     27770     27772
     27766     27765     27768     27769     27766     27765     27768     27770
     27767     27765     27768     27769     27767     27765     27768     27770
     27768     27770     27772     27773     27768     27770     27772     27774
     27768     27770     27772     27775     27769     27768     27770     27771
     27769     27768     27770     27772     27770     27772     27775     27776
     27770     27772     27775     27777     27770     27772     27775     27778
     27771     27770     27772     27773     27771     27770     27772     27774
     27771     27770     27772     27775     27772     27775     27778     27779
     27772     27775     27778     27780     27772     27775     27778     27781
     27773     27772     27775     27776     27773     27772     27775     27777
     27773     27772     27775     27778     27774     27772     27775     27776
     27774     27772     27775     27777     27774     27772     27775     27778
     27775     27778     27781     27782     27775     27778     27781     27783
     27775     27778     27781     27784     27776     27775     27778     27779
     27776     27775     27778     27780     27776     27775     27778     27781
     27777     27775     27778     27779     27777     27775     27778     27780
     27777     27775     27778     27781     27778     27781     27784     27785
     27778     27781     27784     27786     27778     27781     27784     27787
     27779     27778     27781     27782     27779     27778     27781     27783
     27779     27778     27781     27784     27780     27778     27781     27782
     27780     27778     27781     27783     27780     27778     27781     27784
     27781     27784     27787     27788     27781     27784     27787     27789
     27781     27784     27787     27790     27782     27781     27784     27785
     27782     27781     27784     27786     27782     27781     27784     27787
     27783     27781     27784     27785     27783     27781     27784     27786
     27783     27781     27784     27787     27784     27787     27790     27791
     27784     27787     27790     27792     27784     27787     27790     27793
     27785     27784     27787     27788     27785     27784     27787     27789
     27785     27784     27787     27790     27786     27784     27787     27788
     27786     27784     27787     27789     27786     27784     27787     27790
     27787     27790     27793     27794     27787     27790     27793     27795
     27787     27790     27793     27796     27788     27787     27790     27791
     27788     27787     27790     27792     27788     27787     27790     27793
     27789     27787     27790     27791     27789     27787     27790     27792
     27789     27787     27790     27793     27791     27790     27793     27794
     27791     27790     27793     27795     27791     27790     27793     27796
     27792     27790     27793     27794     27792     27790     27793     27795
     27792     27790     27793     27796     27797     27800     27803     27804
     27797     27800     27803     27805     27797     27800     27803     27806
     27798     27797     27800     27801     27798     27797     27800     27802
     27798     27797     27800     27803     27799     27797     27800     27801
     27799     27797     27800     27802     27799     27797     27800     27803
     27800     27803     27806     27807     27800     27803     27806     27808
     27800     27803     27806     27809     27801     27800     27803     27804
     27801     27800     27803     27805     27801     27800     27803     27806
     27802     27800     27803     27804     27802     27800     27803     27805
     27802     27800     27803     27806     27803     27806     27809     27810
     27803     27806     27809     27811     27803     27806     27809     27812
     27804     27803     27806     27807     27804     27803     27806     27808
     27804     27803     27806     27809     27805     27803     27806     27807
     27805     27803     27806     27808     27805     27803     27806     27809
     27806     27809     27812     27813     27806     27809     27812     27814
     27806     27809     27812     27815     27807     27806     27809     27810
     27807     27806     27809     27811     27807     27806     27809     27812
     27808     27806     27809     27810     27808     27806     27809     27811
     27808     27806     27809     27812     27809     27812     27815     27816
     27809     27812     27815     27817     27809     27812     27815     27818
     27810     27809     27812     27813     27810     27809     27812     27814
     27810     27809     27812     27815     27811     27809     27812     27813
     27811     27809     27812     27814     27811     27809     27812     27815
     27812     27815     27818     27819     27812     27815     27818     27820
     27812     27815     27818     27821     27813     27812     27815     27816
     27813     27812     27815     27817     27813     27812     27815     27818
     27814     27812     27815     27816     27814     27812     27815     27817
     27814     27812     27815     27818     27815     27818     27821     27822
     27815     27818     27821     27823     27815     27818     27821     27824
     27816     27815     27818     27819     27816     27815     27818     27820
     27816     27815     27818     27821     27817     27815     27818     27819
     27817     27815     27818     27820     27817     27815     27818     27821
     27818     27821     27824     27825     27818     27821     27824     27826
     27818     27821     27824     27827     27819     27818     27821     27822
     27819     27818     27821     27823     27819     27818     27821     27824
     27820     27818     27821     27822     27820     27818     27821     27823
     27820     27818     27821     27824     27821     27824     27827     27828
     27821     27824     27827     27829     27821     27824     27827     27830
     27822     27821     27824     27825     27822     27821     27824     27826
     27822     27821     27824     27827     27823     27821     27824     27825
     27823     27821     27824     27826     27823     27821     27824     27827
     27824     27827     27830     27831     27824     27827     27830     27832
     27824     27827     27830     27833     27825     27824     27827     27828
     27825     27824     27827     27829     27825     27824     27827     27830
     27826     27824     27827     27828     27826     27824     27827     27829
     27826     27824     27827     27830     27827     27830     27833     27834
     27827     27830     27833     27835     27827     27830     27833     27836
     27828     27827     27830     27831     27828     27827     27830     27832
     27828     27827     27830     27833     27829     27827     27830     27831
     27829     27827     27830     27832     27829     27827     27830     27833
     27830     27833     27836     27837     27830     27833     27836     27838
     27830     27833     27836     27839     27831     27830     27833     27834
     27831     27830     27833     27835     27831     27830     27833     27836
     27832     27830     27833     27834     27832     27830     27833     27835
     27832     27830     27833     27836     27834     27833     27836     27837
     27834     27833     27836     27838     27834     27833     27836     27839
     27835     27833     27836     27837     27835     27833     27836     27838
     27835     27833     27836     27839     27840     27841     27856     27857
     27840     27841     27856     27858     27840     27841     27856     27862
     27841     27840     27844     27845     27841     27840     27844     27846
     27841     27840     27844     27847     27841     27840     27848     27849
     27841     27840     27848     27850     27841     27840     27848     27851
     27841     27840     27852     27853     27841     27840     27852     27854
     27841     27840     27852     27855     27841     27856     27862     27859
     27842     27841     27840     27844     27842     27841     27840     27848
     27842     27841     27840     27852     27842     27841     27856     27857
     27842     27841     27856     27858     27842     27841     27856     27862
     27843     27841     27840     27844     27843     27841     27840     27848
     27843     27841     27840     27852     27843     27841     27856     27857
     27843     27841     27856     27858     27843     27841     27856     27862
     27844     27840     27841     27856     27844     27840     27848     27849
     27844     27840     27848     27850     27844     27840     27848     27851
     27844     27840     27852     27853     27844     27840     27852     27854
     27844     27840     27852     27855     27845     27844     27840     27848
     27845     27844     27840     27852     27846     27844     27840     27848
     27846     27844     27840     27852     27847     27844     27840     27848
     27847     27844     27840     27852     27848     27840     27841     27856
     27848     27840     27852     27853     27848     27840     27852     27854
     27848     27840     27852     27855     27849     27848     27840     27852
     27850     27848     27840     27852     27851     27848     27840     27852
     27852     27840     27841     27856     27856     27862     27859     27860
     27856     27862     27859     27861     27856     27862     27859     27863
     27857     27856     27862     27859     27858     27856     27862     27859
     27859     27863     27864     27865     27859     27863     27864     27866
     27859     27863     27864     27867     27860     27859     27863     27864
     27861     27859     27863     27864     27862     27859     27863     27864
     27863     27864     27867     27868     27863     27864     27867     27869
     27863     27864     27867     27875     27864     27867     27869     27870
     27864     27867     27875     27876     27864     27867     27875     27877
     27864     27867     27875     27878     27865     27864     27867     27868
     27865     27864     27867     27869     27865     27864     27867     27875
     27866     27864     27867     27868     27866     27864     27867     27869
     27866     27864     27867     27875     27867     27869     27870     27871
     27867     27869     27870     27872     27867     27875     27878     27879
     27868     27867     27869     27870     27868     27867     27875     27876
     27868     27867     27875     27877     27868     27867     27875     27878
     27869     27867     27875     27876     27869     27867     27875     27877
     27869     27867     27875     27878     27869     27870     27872     27873
     27869     27870     27872     27874     27869     27870     27872     27884
     27870     27869     27867     27875     27870     27872     27884     27885
     27870     27872     27884     27886     27870     27872     27884     27887
     27871     27870     27872     27873     27871     27870     27872     27874
     27871     27870     27872     27884     27872     27884     27887     27888
     27872     27884     27887     27889     27872     27884     27887     27890
     27873     27872     27884     27885     27873     27872     27884     27886
     27873     27872     27884     27887     27874     27872     27884     27885
     27874     27872     27884     27886     27874     27872     27884     27887
     27875     27878     27879     27880     27875     27878     27879     27881
     27876     27875     27878     27879     27877     27875     27878     27879
     27878     27879     27881     27882     27878     27879     27881     27883
     27878     27879     27881     27931     27879     27881     27931     27932
     27879     27881     27931     27933     27879     27881     27931     27934
     27880     27879     27881     27882     27880     27879     27881     27883
     27880     27879     27881     27931     27881     27931     27934     27935
     27881     27931     27934     27936     27881     27931     27934     27937
     27882     27881     27931     27932     27882     27881     27931     27933
     27882     27881     27931     27934     27883     27881     27931     27932
     27883     27881     27931     27933     27883     27881     27931     27934
     27884     27887     27890     27891     27884     27887     27890     27892
     27884     27887     27890     27893     27885     27884     27887     27888
     27885     27884     27887     27889     27885     27884     27887     27890
     27886     27884     27887     27888     27886     27884     27887     27889
     27886     27884     27887     27890     27887     27890     27893     27894
     27887     27890     27893     27895     27887     27890     27893     27896
     27888     27887     27890     27891     27888     27887     27890     27892
     27888     27887     27890     27893     27889     27887     27890     27891
     27889     27887     27890     27892     27889     27887     27890     27893
     27890     27893     27896     27897     27890     27893     27896     27898
     27890     27893     27896     27899     27891     27890     27893     27894
     27891     27890     27893     27895     27891     27890     27893     27896
     27892     27890     27893     27894     27892     27890     27893     27895
     27892     27890     27893     27896     27893     27896     27899     27900
     27893     27896     27899     27901     27893     27896     27899     27902
     27894     27893     27896     27897     27894     27893     27896     27898
     27894     27893     27896     27899     27895     27893     27896     27897
     27895     27893     27896     27898     27895     27893     27896     27899
     27896     27899     27902     27903     27896     27899     27902     27904
     27897     27896     27899     27900     27897     27896     27899     27901
     27897     27896     27899     27902     27898     27896     27899     27900
     27898     27896     27899     27901     27898     27896     27899     27902
     27899     27902     27904     27905     27899     27902     27904     27906
     27900     27899     27902     27903     27900     27899     27902     27904
     27901     27899     27902     27903     27901     27899     27902     27904
     27902     27904     27906     27907     27902     27904     27906     27908
     27902     27904     27906     27909     27903     27902     27904     27905
     27903     27902     27904     27906     27904     27906     27909     27910
     27904     27906     27909     27911     27904     27906     27909     27912
     27905     27904     27906     27907     27905     27904     27906     27908
     27905     27904     27906     27909     27906     27909     27912     27913
     27906     27909     27912     27914     27906     27909     27912     27915
     27907     27906     27909     27910     27907     27906     27909     27911
     27907     27906     27909     27912     27908     27906     27909     27910
     27908     27906     27909     27911     27908     27906     27909     27912
     27909     27912     27915     27916     27909     27912     27915     27917
     27909     27912     27915     27918     27910     27909     27912     27913
     27910     27909     27912     27914     27910     27909     27912     27915
     27911     27909     27912     27913     27911     27909     27912     27914
     27911     27909     27912     27915     27912     27915     27918     27919
     27912     27915     27918     27920     27912     27915     27918     27921
     27913     27912     27915     27916     27913     27912     27915     27917
     27913     27912     27915     27918     27914     27912     27915     27916
     27914     27912     27915     27917     27914     27912     27915     27918
     27915     27918     27921     27922     27915     27918     27921     27923
     27915     27918     27921     27924     27916     27915     27918     27919
     27916     27915     27918     27920     27916     27915     27918     27921
     27917     27915     27918     27919     27917     27915     27918     27920
     27917     27915     27918     27921     27918     27921     27924     27925
     27918     27921     27924     27926     27918     27921     27924     27927
     27919     27918     27921     27922     27919     27918     27921     27923
     27919     27918     27921     27924     27920     27918     27921     27922
     27920     27918     27921     27923     27920     27918     27921     27924
     27921     27924     27927     27928     27921     27924     27927     27929
     27921     27924     27927     27930     27922     27921     27924     27925
     27922     27921     27924     27926     27922     27921     27924     27927
     27923     27921     27924     27925     27923     27921     27924     27926
     27923     27921     27924     27927     27925     27924     27927     27928
     27925     27924     27927     27929     27925     27924     27927     27930
     27926     27924     27927     27928     27926     27924     27927     27929
     27926     27924     27927     27930     27931     27934     27937     27938
     27931     27934     27937     27939     27931     27934     27937     27940
     27932     27931     27934     27935     27932     27931     27934     27936
     27932     27931     27934     27937     27933     27931     27934     27935
     27933     27931     27934     27936     27933     27931     27934     27937
     27934     27937     27940     27941     27934     27937     27940     27942
     27934     27937     27940     27943     27935     27934     27937     27938
     27935     27934     27937     27939     27935     27934     27937     27940
     27936     27934     27937     27938     27936     27934     27937     27939
     27936     27934     27937     27940     27937     27940     27943     27944
     27937     27940     27943     27945     27937     27940     27943     27946
     27938     27937     27940     27941     27938     27937     27940     27942
     27938     27937     27940     27943     27939     27937     27940     27941
     27939     27937     27940     27942     27939     27937     27940     27943
     27940     27943     27946     27947     27940     27943     27946     27948
     27940     27943     27946     27949     27941     27940     27943     27944
     27941     27940     27943     27945     27941     27940     27943     27946
     27942     27940     27943     27944     27942     27940     27943     27945
     27942     27940     27943     27946     27943     27946     27949     27950
     27943     27946     27949     27951     27943     27946     27949     27952
     27944     27943     27946     27947     27944     27943     27946     27948
     27944     27943     27946     27949     27945     27943     27946     27947
     27945     27943     27946     27948     27945     27943     27946     27949
     27946     27949     27952     27953     27946     27949     27952     27954
     27946     27949     27952     27955     27947     27946     27949     27950
     27947     27946     27949     27951     27947     27946     27949     27952
     27948     27946     27949     27950     27948     27946     27949     27951
     27948     27946     27949     27952     27949     27952     27955     27956
     27949     27952     27955     27957     27949     27952     27955     27958
     27950     27949     27952     27953     27950     27949     27952     27954
     27950     27949     27952     27955     27951     27949     27952     27953
     27951     27949     27952     27954     27951     27949     27952     27955
     27952     27955     27958     27959     27952     27955     27958     27960
     27952     27955     27958     27961     27953     27952     27955     27956
     27953     27952     27955     27957     27953     27952     27955     27958
     27954     27952     27955     27956     27954     27952     27955     27957
     27954     27952     27955     27958     27955     27958     27961     27962
     27955     27958     27961     27963     27955     27958     27961     27964
     27956     27955     27958     27959     27956     27955     27958     27960
     27956     27955     27958     27961     27957     27955     27958     27959
     27957     27955     27958     27960     27957     27955     27958     27961
     27958     27961     27964     27965     27958     27961     27964     27966
     27958     27961     27964     27967     27959     27958     27961     27962
     27959     27958     27961     27963     27959     27958     27961     27964
     27960     27958     27961     27962     27960     27958     27961     27963
     27960     27958     27961     27964     27961     27964     27967     27968
     27961     27964     27967     27969     27961     27964     27967     27970
     27962     27961     27964     27965     27962     27961     27964     27966
     27962     27961     27964     27967     27963     27961     27964     27965
     27963     27961     27964     27966     27963     27961     27964     27967
     27964     27967     27970     27971     27964     27967     27970     27972
     27964     27967     27970     27973     27965     27964     27967     27968
     27965     27964     27967     27969     27965     27964     27967     27970
     27966     27964     27967     27968     27966     27964     27967     27969
     27966     27964     27967     27970     27968     27967     27970     27971
     27968     27967     27970     27972     27968     27967     27970     27973
     27969     27967     27970     27971     27969     27967     27970     27972
     27969     27967     27970     27973     27974     27978     27980     27981
     27974     27978     27980     27982     27974     27978     27983     27984
     27974     27978     27983     27985     27974     27978     27983     27989
     27975     27974     27978     27979     27975     27974     27978     27980
     27975     27974     27978     27983     27976     27974     27978     27979
     27976     27974     27978     27980     27976     27974     27978     27983
     27977     27974     27978     27979     27977     27974     27978     27980
     27977     27974     27978     27983     27978     27983     27989     27986
     27979     27978     27980     27981     27979     27978     27980     27982
     27979     27978     27983     27984     27979     27978     27983     27985
     27979     27978     27983     27989     27980     27978     27983     27984
     27980     27978     27983     27985     27980     27978     27983     27989
     27981     27980     27978     27983     27982     27980     27978     27983
     27983     27989     27986     27987     27983     27989     27986     27988
     27983     27989     27986     27990     27984     27983     27989     27986
     27985     27983     27989     27986     27986     27990     27991     27992
     27986     27990     27991     27993     27986     27990     27991     27994
     27987     27986     27990     27991     27988     27986     27990     27991
     27989     27986     27990     27991     27990     27991     27994     27995
     27990     27991     27994     27996     27990     27991     27994     28002
     27991     27994     27996     27997     27991     27994     28002     28003
     27991     27994     28002     28004     27991     27994     28002     28005
     27992     27991     27994     27995     27992     27991     27994     27996
     27992     27991     27994     28002     27993     27991     27994     27995
     27993     27991     27994     27996     27993     27991     27994     28002
     27994     27996     27997     27998     27994     27996     27997     27999
     27994     28002     28005     28006     27995     27994     27996     27997
     27995     27994     28002     28003     27995     27994     28002     28004
     27995     27994     28002     28005     27996     27994     28002     28003
     27996     27994     28002     28004     27996     27994     28002     28005
     27996     27997     27999     28000     27996     27997     27999     28001
     27996     27997     27999     28011     27997     27996     27994     28002
     27997     27999     28011     28012     27997     27999     28011     28013
     27997     27999     28011     28014     27998     27997     27999     28000
     27998     27997     27999     28001     27998     27997     27999     28011
     27999     28011     28014     28015     27999     28011     28014     28016
     27999     28011     28014     28017     28000     27999     28011     28012
     28000     27999     28011     28013     28000     27999     28011     28014
     28001     27999     28011     28012     28001     27999     28011     28013
     28001     27999     28011     28014     28002     28005     28006     28007
     28002     28005     28006     28008     28003     28002     28005     28006
     28004     28002     28005     28006     28005     28006     28008     28009
     28005     28006     28008     28010     28005     28006     28008     28058
     28006     28008     28058     28059     28006     28008     28058     28060
     28006     28008     28058     28061     28007     28006     28008     28009
     28007     28006     28008     28010     28007     28006     28008     28058
     28008     28058     28061     28062     28008     28058     28061     28063
     28008     28058     28061     28064     28009     28008     28058     28059
     28009     28008     28058     28060     28009     28008     28058     28061
     28010     28008     28058     28059     28010     28008     28058     28060
     28010     28008     28058     28061     28011     28014     28017     28018
     28011     28014     28017     28019     28011     28014     28017     28020
     28012     28011     28014     28015     28012     28011     28014     28016
     28012     28011     28014     28017     28013     28011     28014     28015
     28013     28011     28014     28016     28013     28011     28014     28017
     28014     28017     28020     28021     28014     28017     28020     28022
     28014     28017     28020     28023     28015     28014     28017     28018
     28015     28014     28017     28019     28015     28014     28017     28020
     28016     28014     28017     28018     28016     28014     28017     28019
     28016     28014     28017     28020     28017     28020     28023     28024
     28017     28020     28023     28025     28017     28020     28023     28026
     28018     28017     28020     28021     28018     28017     28020     28022
     28018     28017     28020     28023     28019     28017     28020     28021
     28019     28017     28020     28022     28019     28017     28020     28023
     28020     28023     28026     28027     28020     28023     28026     28028
     28020     28023     28026     28029     28021     28020     28023     28024
     28021     28020     28023     28025     28021     28020     28023     28026
     28022     28020     28023     28024     28022     28020     28023     28025
     28022     28020     28023     28026     28023     28026     28029     28030
     28023     28026     28029     28031     28024     28023     28026     28027
     28024     28023     28026     28028     28024     28023     28026     28029
     28025     28023     28026     28027     28025     28023     28026     28028
     28025     28023     28026     28029     28026     28029     28031     28032
     28026     28029     28031     28033     28027     28026     28029     28030
     28027     28026     28029     28031     28028     28026     28029     28030
     28028     28026     28029     28031     28029     28031     28033     28034
     28029     28031     28033     28035     28029     28031     28033     28036
     28030     28029     28031     28032     28030     28029     28031     28033
     28031     28033     28036     28037     28031     28033     28036     28038
     28031     28033     28036     28039     28032     28031     28033     28034
     28032     28031     28033     28035     28032     28031     28033     28036
     28033     28036     28039     28040     28033     28036     28039     28041
     28033     28036     28039     28042     28034     28033     28036     28037
     28034     28033     28036     28038     28034     28033     28036     28039
     28035     28033     28036     28037     28035     28033     28036     28038
     28035     28033     28036     28039     28036     28039     28042     28043
     28036     28039     28042     28044     28036     28039     28042     28045
     28037     28036     28039     28040     28037     28036     28039     28041
     28037     28036     28039     28042     28038     28036     28039     28040
     28038     28036     28039     28041     28038     28036     28039     28042
     28039     28042     28045     28046     28039     28042     28045     28047
     28039     28042     28045     28048     28040     28039     28042     28043
     28040     28039     28042     28044     28040     28039     28042     28045
     28041     28039     28042     28043     28041     28039     28042     28044
     28041     28039     28042     28045     28042     28045     28048     28049
     28042     28045     28048     28050     28042     28045     28048     28051
     28043     28042     28045     28046     28043     28042     28045     28047
     28043     28042     28045     28048     28044     28042     28045     28046
     28044     28042     28045     28047     28044     28042     28045     28048
     28045     28048     28051     28052     28045     28048     28051     28053
     28045     28048     28051     28054     28046     28045     28048     28049
     28046     28045     28048     28050     28046     28045     28048     28051
     28047     28045     28048     28049     28047     28045     28048     28050
     28047     28045     28048     28051     28048     28051     28054     28055
     28048     28051     28054     28056     28048     28051     28054     28057
     28049     28048     28051     28052     28049     28048     28051     28053
     28049     28048     28051     28054     28050     28048     28051     28052
     28050     28048     28051     28053     28050     28048     28051     28054
     28052     28051     28054     28055     28052     28051     28054     28056
     28052     28051     28054     28057     28053     28051     28054     28055
     28053     28051     28054     28056     28053     28051     28054     28057
     28058     28061     28064     28065     28058     28061     28064     28066
     28058     28061     28064     28067     28059     28058     28061     28062
     28059     28058     28061     28063     28059     28058     28061     28064
     28060     28058     28061     28062     28060     28058     28061     28063
     28060     28058     28061     28064     28061     28064     28067     28068
     28061     28064     28067     28069     28061     28064     28067     28070
     28062     28061     28064     28065     28062     28061     28064     28066
     28062     28061     28064     28067     28063     28061     28064     28065
     28063     28061     28064     28066     28063     28061     28064     28067
     28064     28067     28070     28071     28064     28067     28070     28072
     28064     28067     28070     28073     28065     28064     28067     28068
     28065     28064     28067     28069     28065     28064     28067     28070
     28066     28064     28067     28068     28066     28064     28067     28069
     28066     28064     28067     28070     28067     28070     28073     28074
     28067     28070     28073     28075     28067     28070     28073     28076
     28068     28067     28070     28071     28068     28067     28070     28072
     28068     28067     28070     28073     28069     28067     28070     28071
     28069     28067     28070     28072     28069     28067     28070     28073
     28070     28073     28076     28077     28070     28073     28076     28078
     28070     28073     28076     28079     28071     28070     28073     28074
     28071     28070     28073     28075     28071     28070     28073     28076
     28072     28070     28073     28074     28072     28070     28073     28075
     28072     28070     28073     28076     28073     28076     28079     28080
     28073     28076     28079     28081     28073     28076     28079     28082
     28074     28073     28076     28077     28074     28073     28076     28078
     28074     28073     28076     28079     28075     28073     28076     28077
     28075     28073     28076     28078     28075     28073     28076     28079
     28076     28079     28082     28083     28076     28079     28082     28084
     28076     28079     28082     28085     28077     28076     28079     28080
     28077     28076     28079     28081     28077     28076     28079     28082
     28078     28076     28079     28080     28078     28076     28079     28081
     28078     28076     28079     28082     28079     28082     28085     28086
     28079     28082     28085     28087     28079     28082     28085     28088
     28080     28079     28082     28083     28080     28079     28082     28084
     28080     28079     28082     28085     28081     28079     28082     28083
     28081     28079     28082     28084     28081     28079     28082     28085
     28082     28085     28088     28089     28082     28085     28088     28090
     28082     28085     28088     28091     28083     28082     28085     28086
     28083     28082     28085     28087     28083     28082     28085     28088
     28084     28082     28085     28086     28084     28082     28085     28087
     28084     28082     28085     28088     28085     28088     28091     28092
     28085     28088     28091     28093     28085     28088     28091     28094
     28086     28085     28088     28089     28086     28085     28088     28090
     28086     28085     28088     28091     28087     28085     28088     28089
     28087     28085     28088     28090     28087     28085     28088     28091
     28088     28091     28094     28095     28088     28091     28094     28096
     28088     28091     28094     28097     28089     28088     28091     28092
     28089     28088     28091     28093     28089     28088     28091     28094
     28090     28088     28091     28092     28090     28088     28091     28093
     28090     28088     28091     28094     28091     28094     28097     28098
     28091     28094     28097     28099     28091     28094     28097     28100
     28092     28091     28094     28095     28092     28091     28094     28096
     28092     28091     28094     28097     28093     28091     28094     28095
     28093     28091     28094     28096     28093     28091     28094     28097
     28095     28094     28097     28098     28095     28094     28097     28099
     28095     28094     28097     28100     28096     28094     28097     28098
     28096     28094     28097     28099     28096     28094     28097     28100
     28101     28102     28117     28118     28101     28102     28117     28119
     28101     28102     28117     28123     28102     28101     28105     28106
     28102     28101     28105     28107     28102     28101     28105     28108
     28102     28101     28109     28110     28102     28101     28109     28111
     28102     28101     28109     28112     28102     28101     28113     28114
     28102     28101     28113     28115     28102     28101     28113     28116
     28102     28117     28123     28120     28103     28102     28101     28105
     28103     28102     28101     28109     28103     28102     28101     28113
     28103     28102     28117     28118     28103     28102     28117     28119
     28103     28102     28117     28123     28104     28102     28101     28105
     28104     28102     28101     28109     28104     28102     28101     28113
     28104     28102     28117     28118     28104     28102     28117     28119
     28104     28102     28117     28123     28105     28101     28102     28117
     28105     28101     28109     28110     28105     28101     28109     28111
     28105     28101     28109     28112     28105     28101     28113     28114
     28105     28101     28113     28115     28105     28101     28113     28116
     28106     28105     28101     28109     28106     28105     28101     28113
     28107     28105     28101     28109     28107     28105     28101     28113
     28108     28105     28101     28109     28108     28105     28101     28113
     28109     28101     28102     28117     28109     28101     28113     28114
     28109     28101     28113     28115     28109     28101     28113     28116
     28110     28109     28101     28113     28111     28109     28101     28113
     28112     28109     28101     28113     28113     28101     28102     28117
     28117     28123     28120     28121     28117     28123     28120     28122
     28117     28123     28120     28124     28118     28117     28123     28120
     28119     28117     28123     28120     28120     28124     28125     28126
     28120     28124     28125     28127     28120     28124     28125     28128
     28121     28120     28124     28125     28122     28120     28124     28125
     28123     28120     28124     28125     28124     28125     28128     28129
     28124     28125     28128     28130     28124     28125     28128     28136
     28125     28128     28130     28131     28125     28128     28136     28137
     28125     28128     28136     28138     28125     28128     28136     28139
     28126     28125     28128     28129     28126     28125     28128     28130
     28126     28125     28128     28136     28127     28125     28128     28129
     28127     28125     28128     28130     28127     28125     28128     28136
     28128     28130     28131     28132     28128     28130     28131     28133
     28128     28136     28139     28140     28129     28128     28130     28131
     28129     28128     28136     28137     28129     28128     28136     28138
     28129     28128     28136     28139     28130     28128     28136     28137
     28130     28128     28136     28138     28130     28128     28136     28139
     28130     28131     28133     28134     28130     28131     28133     28135
     28130     28131     28133     28145     28131     28130     28128     28136
     28131     28133     28145     28146     28131     28133     28145     28147
     28131     28133     28145     28148     28132     28131     28133     28134
     28132     28131     28133     28135     28132     28131     28133     28145
     28133     28145     28148     28149     28133     28145     28148     28150
     28133     28145     28148     28151     28134     28133     28145     28146
     28134     28133     28145     28147     28134     28133     28145     28148
     28135     28133     28145     28146     28135     28133     28145     28147
     28135     28133     28145     28148     28136     28139     28140     28141
     28136     28139     28140     28142     28137     28136     28139     28140
     28138     28136     28139     28140     28139     28140     28142     28143
     28139     28140     28142     28144     28139     28140     28142     28192
     28140     28142     28192     28193     28140     28142     28192     28194
     28140     28142     28192     28195     28141     28140     28142     28143
     28141     28140     28142     28144     28141     28140     28142     28192
     28142     28192     28195     28196     28142     28192     28195     28197
     28142     28192     28195     28198     28143     28142     28192     28193
     28143     28142     28192     28194     28143     28142     28192     28195
     28144     28142     28192     28193     28144     28142     28192     28194
     28144     28142     28192     28195     28145     28148     28151     28152
     28145     28148     28151     28153     28145     28148     28151     28154
     28146     28145     28148     28149     28146     28145     28148     28150
     28146     28145     28148     28151     28147     28145     28148     28149
     28147     28145     28148     28150     28147     28145     28148     28151
     28148     28151     28154     28155     28148     28151     28154     28156
     28148     28151     28154     28157     28149     28148     28151     28152
     28149     28148     28151     28153     28149     28148     28151     28154
     28150     28148     28151     28152     28150     28148     28151     28153
     28150     28148     28151     28154     28151     28154     28157     28158
     28151     28154     28157     28159     28151     28154     28157     28160
     28152     28151     28154     28155     28152     28151     28154     28156
     28152     28151     28154     28157     28153     28151     28154     28155
     28153     28151     28154     28156     28153     28151     28154     28157
     28154     28157     28160     28161     28154     28157     28160     28162
     28154     28157     28160     28163     28155     28154     28157     28158
     28155     28154     28157     28159     28155     28154     28157     28160
     28156     28154     28157     28158     28156     28154     28157     28159
     28156     28154     28157     28160     28157     28160     28163     28164
     28157     28160     28163     28165     28158     28157     28160     28161
     28158     28157     28160     28162     28158     28157     28160     28163
     28159     28157     28160     28161     28159     28157     28160     28162
     28159     28157     28160     28163     28160     28163     28165     28166
     28160     28163     28165     28167     28161     28160     28163     28164
     28161     28160     28163     28165     28162     28160     28163     28164
     28162     28160     28163     28165     28163     28165     28167     28168
     28163     28165     28167     28169     28163     28165     28167     28170
     28164     28163     28165     28166     28164     28163     28165     28167
     28165     28167     28170     28171     28165     28167     28170     28172
     28165     28167     28170     28173     28166     28165     28167     28168
     28166     28165     28167     28169     28166     28165     28167     28170
     28167     28170     28173     28174     28167     28170     28173     28175
     28167     28170     28173     28176     28168     28167     28170     28171
     28168     28167     28170     28172     28168     28167     28170     28173
     28169     28167     28170     28171     28169     28167     28170     28172
     28169     28167     28170     28173     28170     28173     28176     28177
     28170     28173     28176     28178     28170     28173     28176     28179
     28171     28170     28173     28174     28171     28170     28173     28175
     28171     28170     28173     28176     28172     28170     28173     28174
     28172     28170     28173     28175     28172     28170     28173     28176
     28173     28176     28179     28180     28173     28176     28179     28181
     28173     28176     28179     28182     28174     28173     28176     28177
     28174     28173     28176     28178     28174     28173     28176     28179
     28175     28173     28176     28177     28175     28173     28176     28178
     28175     28173     28176     28179     28176     28179     28182     28183
     28176     28179     28182     28184     28176     28179     28182     28185
     28177     28176     28179     28180     28177     28176     28179     28181
     28177     28176     28179     28182     28178     28176     28179     28180
     28178     28176     28179     28181     28178     28176     28179     28182
     28179     28182     28185     28186     28179     28182     28185     28187
     28179     28182     28185     28188     28180     28179     28182     28183
     28180     28179     28182     28184     28180     28179     28182     28185
     28181     28179     28182     28183     28181     28179     28182     28184
     28181     28179     28182     28185     28182     28185     28188     28189
     28182     28185     28188     28190     28182     28185     28188     28191
     28183     28182     28185     28186     28183     28182     28185     28187
     28183     28182     28185     28188     28184     28182     28185     28186
     28184     28182     28185     28187     28184     28182     28185     28188
     28186     28185     28188     28189     28186     28185     28188     28190
     28186     28185     28188     28191     28187     28185     28188     28189
     28187     28185     28188     28190     28187     28185     28188     28191
     28192     28195     28198     28199     28192     28195     28198     28200
     28192     28195     28198     28201     28193     28192     28195     28196
     28193     28192     28195     28197     28193     28192     28195     28198
     28194     28192     28195     28196     28194     28192     28195     28197
     28194     28192     28195     28198     28195     28198     28201     28202
     28195     28198     28201     28203     28195     28198     28201     28204
     28196     28195     28198     28199     28196     28195     28198     28200
     28196     28195     28198     28201     28197     28195     28198     28199
     28197     28195     28198     28200     28197     28195     28198     28201
     28198     28201     28204     28205     28198     28201     28204     28206
     28198     28201     28204     28207     28199     28198     28201     28202
     28199     28198     28201     28203     28199     28198     28201     28204
     28200     28198     28201     28202     28200     28198     28201     28203
     28200     28198     28201     28204     28201     28204     28207     28208
     28201     28204     28207     28209     28201     28204     28207     28210
     28202     28201     28204     28205     28202     28201     28204     28206
     28202     28201     28204     28207     28203     28201     28204     28205
     28203     28201     28204     28206     28203     28201     28204     28207
     28204     28207     28210     28211     28204     28207     28210     28212
     28204     28207     28210     28213     28205     28204     28207     28208
     28205     28204     28207     28209     28205     28204     28207     28210
     28206     28204     28207     28208     28206     28204     28207     28209
     28206     28204     28207     28210     28207     28210     28213     28214
     28207     28210     28213     28215     28207     28210     28213     28216
     28208     28207     28210     28211     28208     28207     28210     28212
     28208     28207     28210     28213     28209     28207     28210     28211
     28209     28207     28210     28212     28209     28207     28210     28213
     28210     28213     28216     28217     28210     28213     28216     28218
     28210     28213     28216     28219     28211     28210     28213     28214
     28211     28210     28213     28215     28211     28210     28213     28216
     28212     28210     28213     28214     28212     28210     28213     28215
     28212     28210     28213     28216     28213     28216     28219     28220
     28213     28216     28219     28221     28213     28216     28219     28222
     28214     28213     28216     28217     28214     28213     28216     28218
     28214     28213     28216     28219     28215     28213     28216     28217
     28215     28213     28216     28218     28215     28213     28216     28219
     28216     28219     28222     28223     28216     28219     28222     28224
     28216     28219     28222     28225     28217     28216     28219     28220
     28217     28216     28219     28221     28217     28216     28219     28222
     28218     28216     28219     28220     28218     28216     28219     28221
     28218     28216     28219     28222     28219     28222     28225     28226
     28219     28222     28225     28227     28219     28222     28225     28228
     28220     28219     28222     28223     28220     28219     28222     28224
     28220     28219     28222     28225     28221     28219     28222     28223
     28221     28219     28222     28224     28221     28219     28222     28225
     28222     28225     28228     28229     28222     28225     28228     28230
     28222     28225     28228     28231     28223     28222     28225     28226
     28223     28222     28225     28227     28223     28222     28225     28228
     28224     28222     28225     28226     28224     28222     28225     28227
     28224     28222     28225     28228     28225     28228     28231     28232
     28225     28228     28231     28233     28225     28228     28231     28234
     28226     28225     28228     28229     28226     28225     28228     28230
     28226     28225     28228     28231     28227     28225     28228     28229
     28227     28225     28228     28230     28227     28225     28228     28231
     28229     28228     28231     28232     28229     28228     28231     28233
     28229     28228     28231     28234     28230     28228     28231     28232
     28230     28228     28231     28233     28230     28228     28231     28234
     28235     28236     28251     28252     28235     28236     28251     28253
     28235     28236     28251     28257     28236     28235     28239     28240
     28236     28235     28239     28241     28236     28235     28239     28242
     28236     28235     28243     28244     28236     28235     28243     28245
     28236     28235     28243     28246     28236     28235     28247     28248
     28236     28235     28247     28249     28236     28235     28247     28250
     28236     28251     28257     28254     28237     28236     28235     28239
     28237     28236     28235     28243     28237     28236     28235     28247
     28237     28236     28251     28252     28237     28236     28251     28253
     28237     28236     28251     28257     28238     28236     28235     28239
     28238     28236     28235     28243     28238     28236     28235     28247
     28238     28236     28251     28252     28238     28236     28251     28253
     28238     28236     28251     28257     28239     28235     28236     28251
     28239     28235     28243     28244     28239     28235     28243     28245
     28239     28235     28243     28246     28239     28235     28247     28248
     28239     28235     28247     28249     28239     28235     28247     28250
     28240     28239     28235     28243     28240     28239     28235     28247
     28241     28239     28235     28243     28241     28239     28235     28247
     28242     28239     28235     28243     28242     28239     28235     28247
     28243     28235     28236     28251     28243     28235     28247     28248
     28243     28235     28247     28249     28243     28235     28247     28250
     28244     28243     28235     28247     28245     28243     28235     28247
     28246     28243     28235     28247     28247     28235     28236     28251
     28251     28257     28254     28255     28251     28257     28254     28256
     28251     28257     28254     28258     28252     28251     28257     28254
     28253     28251     28257     28254     28254     28258     28259     28260
     28254     28258     28259     28261     28254     28258     28259     28262
     28255     28254     28258     28259     28256     28254     28258     28259
     28257     28254     28258     28259     28258     28259     28262     28263
     28258     28259     28262     28264     28258     28259     28262     28270
     28259     28262     28264     28265     28259     28262     28270     28271
     28259     28262     28270     28272     28259     28262     28270     28273
     28260     28259     28262     28263     28260     28259     28262     28264
     28260     28259     28262     28270     28261     28259     28262     28263
     28261     28259     28262     28264     28261     28259     28262     28270
     28262     28264     28265     28266     28262     28264     28265     28267
     28262     28270     28273     28274     28263     28262     28264     28265
     28263     28262     28270     28271     28263     28262     28270     28272
     28263     28262     28270     28273     28264     28262     28270     28271
     28264     28262     28270     28272     28264     28262     28270     28273
     28264     28265     28267     28268     28264     28265     28267     28269
     28264     28265     28267     28279     28265     28264     28262     28270
     28265     28267     28279     28280     28265     28267     28279     28281
     28265     28267     28279     28282     28266     28265     28267     28268
     28266     28265     28267     28269     28266     28265     28267     28279
     28267     28279     28282     28283     28267     28279     28282     28284
     28267     28279     28282     28285     28268     28267     28279     28280
     28268     28267     28279     28281     28268     28267     28279     28282
     28269     28267     28279     28280     28269     28267     28279     28281
     28269     28267     28279     28282     28270     28273     28274     28275
     28270     28273     28274     28276     28271     28270     28273     28274
     28272     28270     28273     28274     28273     28274     28276     28277
     28273     28274     28276     28278     28273     28274     28276     28326
     28274     28276     28326     28327     28274     28276     28326     28328
     28274     28276     28326     28329     28275     28274     28276     28277
     28275     28274     28276     28278     28275     28274     28276     28326
     28276     28326     28329     28330     28276     28326     28329     28331
     28276     28326     28329     28332     28277     28276     28326     28327
     28277     28276     28326     28328     28277     28276     28326     28329
     28278     28276     28326     28327     28278     28276     28326     28328
     28278     28276     28326     28329     28279     28282     28285     28286
     28279     28282     28285     28287     28279     28282     28285     28288
     28280     28279     28282     28283     28280     28279     28282     28284
     28280     28279     28282     28285     28281     28279     28282     28283
     28281     28279     28282     28284     28281     28279     28282     28285
     28282     28285     28288     28289     28282     28285     28288     28290
     28282     28285     28288     28291     28283     28282     28285     28286
     28283     28282     28285     28287     28283     28282     28285     28288
     28284     28282     28285     28286     28284     28282     28285     28287
     28284     28282     28285     28288     28285     28288     28291     28292
     28285     28288     28291     28293     28285     28288     28291     28294
     28286     28285     28288     28289     28286     28285     28288     28290
     28286     28285     28288     28291     28287     28285     28288     28289
     28287     28285     28288     28290     28287     28285     28288     28291
     28288     28291     28294     28295     28288     28291     28294     28296
     28288     28291     28294     28297     28289     28288     28291     28292
     28289     28288     28291     28293     28289     28288     28291     28294
     28290     28288     28291     28292     28290     28288     28291     28293
     28290     28288     28291     28294     28291     28294     28297     28298
     28291     28294     28297     28299     28292     28291     28294     28295
     28292     28291     28294     28296     28292     28291     28294     28297
     28293     28291     28294     28295     28293     28291     28294     28296
     28293     28291     28294     28297     28294     28297     28299     28300
     28294     28297     28299     28301     28295     28294     28297     28298
     28295     28294     28297     28299     28296     28294     28297     28298
     28296     28294     28297     28299     28297     28299     28301     28302
     28297     28299     28301     28303     28297     28299     28301     28304
     28298     28297     28299     28300     28298     28297     28299     28301
     28299     28301     28304     28305     28299     28301     28304     28306
     28299     28301     28304     28307     28300     28299     28301     28302
     28300     28299     28301     28303     28300     28299     28301     28304
     28301     28304     28307     28308     28301     28304     28307     28309
     28301     28304     28307     28310     28302     28301     28304     28305
     28302     28301     28304     28306     28302     28301     28304     28307
     28303     28301     28304     28305     28303     28301     28304     28306
     28303     28301     28304     28307     28304     28307     28310     28311
     28304     28307     28310     28312     28304     28307     28310     28313
     28305     28304     28307     28308     28305     28304     28307     28309
     28305     28304     28307     28310     28306     28304     28307     28308
     28306     28304     28307     28309     28306     28304     28307     28310
     28307     28310     28313     28314     28307     28310     28313     28315
     28307     28310     28313     28316     28308     28307     28310     28311
     28308     28307     28310     28312     28308     28307     28310     28313
     28309     28307     28310     28311     28309     28307     28310     28312
     28309     28307     28310     28313     28310     28313     28316     28317
     28310     28313     28316     28318     28310     28313     28316     28319
     28311     28310     28313     28314     28311     28310     28313     28315
     28311     28310     28313     28316     28312     28310     28313     28314
     28312     28310     28313     28315     28312     28310     28313     28316
     28313     28316     28319     28320     28313     28316     28319     28321
     28313     28316     28319     28322     28314     28313     28316     28317
     28314     28313     28316     28318     28314     28313     28316     28319
     28315     28313     28316     28317     28315     28313     28316     28318
     28315     28313     28316     28319     28316     28319     28322     28323
     28316     28319     28322     28324     28316     28319     28322     28325
     28317     28316     28319     28320     28317     28316     28319     28321
     28317     28316     28319     28322     28318     28316     28319     28320
     28318     28316     28319     28321     28318     28316     28319     28322
     28320     28319     28322     28323     28320     28319     28322     28324
     28320     28319     28322     28325     28321     28319     28322     28323
     28321     28319     28322     28324     28321     28319     28322     28325
     28326     28329     28332     28333     28326     28329     28332     28334
     28326     28329     28332     28335     28327     28326     28329     28330
     28327     28326     28329     28331     28327     28326     28329     28332
     28328     28326     28329     28330     28328     28326     28329     28331
     28328     28326     28329     28332     28329     28332     28335     28336
     28329     28332     28335     28337     28329     28332     28335     28338
     28330     28329     28332     28333     28330     28329     28332     28334
     28330     28329     28332     28335     28331     28329     28332     28333
     28331     28329     28332     28334     28331     28329     28332     28335
     28332     28335     28338     28339     28332     28335     28338     28340
     28332     28335     28338     28341     28333     28332     28335     28336
     28333     28332     28335     28337     28333     28332     28335     28338
     28334     28332     28335     28336     28334     28332     28335     28337
     28334     28332     28335     28338     28335     28338     28341     28342
     28335     28338     28341     28343     28335     28338     28341     28344
     28336     28335     28338     28339     28336     28335     28338     28340
     28336     28335     28338     28341     28337     28335     28338     28339
     28337     28335     28338     28340     28337     28335     28338     28341
     28338     28341     28344     28345     28338     28341     28344     28346
     28338     28341     28344     28347     28339     28338     28341     28342
     28339     28338     28341     28343     28339     28338     28341     28344
     28340     28338     28341     28342     28340     28338     28341     28343
     28340     28338     28341     28344     28341     28344     28347     28348
     28341     28344     28347     28349     28341     28344     28347     28350
     28342     28341     28344     28345     28342     28341     28344     28346
     28342     28341     28344     28347     28343     28341     28344     28345
     28343     28341     28344     28346     28343     28341     28344     28347
     28344     28347     28350     28351     28344     28347     28350     28352
     28344     28347     28350     28353     28345     28344     28347     28348
     28345     28344     28347     28349     28345     28344     28347     28350
     28346     28344     28347     28348     28346     28344     28347     28349
     28346     28344     28347     28350     28347     28350     28353     28354
     28347     28350     28353     28355     28347     28350     28353     28356
     28348     28347     28350     28351     28348     28347     28350     28352
     28348     28347     28350     28353     28349     28347     28350     28351
     28349     28347     28350     28352     28349     28347     28350     28353
     28350     28353     28356     28357     28350     28353     28356     28358
     28350     28353     28356     28359     28351     28350     28353     28354
     28351     28350     28353     28355     28351     28350     28353     28356
     28352     28350     28353     28354     28352     28350     28353     28355
     28352     28350     28353     28356     28353     28356     28359     28360
     28353     28356     28359     28361     28353     28356     28359     28362
     28354     28353     28356     28357     28354     28353     28356     28358
     28354     28353     28356     28359     28355     28353     28356     28357
     28355     28353     28356     28358     28355     28353     28356     28359
     28356     28359     28362     28363     28356     28359     28362     28364
     28356     28359     28362     28365     28357     28356     28359     28360
     28357     28356     28359     28361     28357     28356     28359     28362
     28358     28356     28359     28360     28358     28356     28359     28361
     28358     28356     28359     28362     28359     28362     28365     28366
     28359     28362     28365     28367     28359     28362     28365     28368
     28360     28359     28362     28363     28360     28359     28362     28364
     28360     28359     28362     28365     28361     28359     28362     28363
     28361     28359     28362     28364     28361     28359     28362     28365
     28363     28362     28365     28366     28363     28362     28365     28367
     28363     28362     28365     28368     28364     28362     28365     28366
     28364     28362     28365     28367     28364     28362     28365     28368
     28369     28370     28385     28386     28369     28370     28385     28387
     28369     28370     28385     28391     28370     28369     28373     28374
     28370     28369     28373     28375     28370     28369     28373     28376
     28370     28369     28377     28378     28370     28369     28377     28379
     28370     28369     28377     28380     28370     28369     28381     28382
     28370     28369     28381     28383     28370     28369     28381     28384
     28370     28385     28391     28388     28371     28370     28369     28373
     28371     28370     28369     28377     28371     28370     28369     28381
     28371     28370     28385     28386     28371     28370     28385     28387
     28371     28370     28385     28391     28372     28370     28369     28373
     28372     28370     28369     28377     28372     28370     28369     28381
     28372     28370     28385     28386     28372     28370     28385     28387
     28372     28370     28385     28391     28373     28369     28370     28385
     28373     28369     28377     28378     28373     28369     28377     28379
     28373     28369     28377     28380     28373     28369     28381     28382
     28373     28369     28381     28383     28373     28369     28381     28384
     28374     28373     28369     28377     28374     28373     28369     28381
     28375     28373     28369     28377     28375     28373     28369     28381
     28376     28373     28369     28377     28376     28373     28369     28381
     28377     28369     28370     28385     28377     28369     28381     28382
     28377     28369     28381     28383     28377     28369     28381     28384
     28378     28377     28369     28381     28379     28377     28369     28381
     28380     28377     28369     28381     28381     28369     28370     28385
     28385     28391     28388     28389     28385     28391     28388     28390
     28385     28391     28388     28392     28386     28385     28391     28388
     28387     28385     28391     28388     28388     28392     28393     28394
     28388     28392     28393     28395     28388     28392     28393     28396
     28389     28388     28392     28393     28390     28388     28392     28393
     28391     28388     28392     28393     28392     28393     28396     28397
     28392     28393     28396     28398     28392     28393     28396     28404
     28393     28396     28398     28399     28393     28396     28404     28405
     28393     28396     28404     28406     28393     28396     28404     28407
     28394     28393     28396     28397     28394     28393     28396     28398
     28394     28393     28396     28404     28395     28393     28396     28397
     28395     28393     28396     28398     28395     28393     28396     28404
     28396     28398     28399     28400     28396     28398     28399     28401
     28396     28404     28407     28408     28397     28396     28398     28399
     28397     28396     28404     28405     28397     28396     28404     28406
     28397     28396     28404     28407     28398     28396     28404     28405
     28398     28396     28404     28406     28398     28396     28404     28407
     28398     28399     28401     28402     28398     28399     28401     28403
     28398     28399     28401     28413     28399     28398     28396     28404
     28399     28401     28413     28414     28399     28401     28413     28415
     28399     28401     28413     28416     28400     28399     28401     28402
     28400     28399     28401     28403     28400     28399     28401     28413
     28401     28413     28416     28417     28401     28413     28416     28418
     28401     28413     28416     28419     28402     28401     28413     28414
     28402     28401     28413     28415     28402     28401     28413     28416
     28403     28401     28413     28414     28403     28401     28413     28415
     28403     28401     28413     28416     28404     28407     28408     28409
     28404     28407     28408     28410     28405     28404     28407     28408
     28406     28404     28407     28408     28407     28408     28410     28411
     28407     28408     28410     28412     28407     28408     28410     28460
     28408     28410     28460     28461     28408     28410     28460     28462
     28408     28410     28460     28463     28409     28408     28410     28411
     28409     28408     28410     28412     28409     28408     28410     28460
     28410     28460     28463     28464     28410     28460     28463     28465
     28410     28460     28463     28466     28411     28410     28460     28461
     28411     28410     28460     28462     28411     28410     28460     28463
     28412     28410     28460     28461     28412     28410     28460     28462
     28412     28410     28460     28463     28413     28416     28419     28420
     28413     28416     28419     28421     28413     28416     28419     28422
     28414     28413     28416     28417     28414     28413     28416     28418
     28414     28413     28416     28419     28415     28413     28416     28417
     28415     28413     28416     28418     28415     28413     28416     28419
     28416     28419     28422     28423     28416     28419     28422     28424
     28416     28419     28422     28425     28417     28416     28419     28420
     28417     28416     28419     28421     28417     28416     28419     28422
     28418     28416     28419     28420     28418     28416     28419     28421
     28418     28416     28419     28422     28419     28422     28425     28426
     28419     28422     28425     28427     28419     28422     28425     28428
     28420     28419     28422     28423     28420     28419     28422     28424
     28420     28419     28422     28425     28421     28419     28422     28423
     28421     28419     28422     28424     28421     28419     28422     28425
     28422     28425     28428     28429     28422     28425     28428     28430
     28422     28425     28428     28431     28423     28422     28425     28426
     28423     28422     28425     28427     28423     28422     28425     28428
     28424     28422     28425     28426     28424     28422     28425     28427
     28424     28422     28425     28428     28425     28428     28431     28432
     28425     28428     28431     28433     28426     28425     28428     28429
     28426     28425     28428     28430     28426     28425     28428     28431
     28427     28425     28428     28429     28427     28425     28428     28430
     28427     28425     28428     28431     28428     28431     28433     28434
     28428     28431     28433     28435     28429     28428     28431     28432
     28429     28428     28431     28433     28430     28428     28431     28432
     28430     28428     28431     28433     28431     28433     28435     28436
     28431     28433     28435     28437     28431     28433     28435     28438
     28432     28431     28433     28434     28432     28431     28433     28435
     28433     28435     28438     28439     28433     28435     28438     28440
     28433     28435     28438     28441     28434     28433     28435     28436
     28434     28433     28435     28437     28434     28433     28435     28438
     28435     28438     28441     28442     28435     28438     28441     28443
     28435     28438     28441     28444     28436     28435     28438     28439
     28436     28435     28438     28440     28436     28435     28438     28441
     28437     28435     28438     28439     28437     28435     28438     28440
     28437     28435     28438     28441     28438     28441     28444     28445
     28438     28441     28444     28446     28438     28441     28444     28447
     28439     28438     28441     28442     28439     28438     28441     28443
     28439     28438     28441     28444     28440     28438     28441     28442
     28440     28438     28441     28443     28440     28438     28441     28444
     28441     28444     28447     28448     28441     28444     28447     28449
     28441     28444     28447     28450     28442     28441     28444     28445
     28442     28441     28444     28446     28442     28441     28444     28447
     28443     28441     28444     28445     28443     28441     28444     28446
     28443     28441     28444     28447     28444     28447     28450     28451
     28444     28447     28450     28452     28444     28447     28450     28453
     28445     28444     28447     28448     28445     28444     28447     28449
     28445     28444     28447     28450     28446     28444     28447     28448
     28446     28444     28447     28449     28446     28444     28447     28450
     28447     28450     28453     28454     28447     28450     28453     28455
     28447     28450     28453     28456     28448     28447     28450     28451
     28448     28447     28450     28452     28448     28447     28450     28453
     28449     28447     28450     28451     28449     28447     28450     28452
     28449     28447     28450     28453     28450     28453     28456     28457
     28450     28453     28456     28458     28450     28453     28456     28459
     28451     28450     28453     28454     28451     28450     28453     28455
     28451     28450     28453     28456     28452     28450     28453     28454
     28452     28450     28453     28455     28452     28450     28453     28456
     28454     28453     28456     28457     28454     28453     28456     28458
     28454     28453     28456     28459     28455     28453     28456     28457
     28455     28453     28456     28458     28455     28453     28456     28459
     28460     28463     28466     28467     28460     28463     28466     28468
     28460     28463     28466     28469     28461     28460     28463     28464
     28461     28460     28463     28465     28461     28460     28463     28466
     28462     28460     28463     28464     28462     28460     28463     28465
     28462     28460     28463     28466     28463     28466     28469     28470
     28463     28466     28469     28471     28463     28466     28469     28472
     28464     28463     28466     28467     28464     28463     28466     28468
     28464     28463     28466     28469     28465     28463     28466     28467
     28465     28463     28466     28468     28465     28463     28466     28469
     28466     28469     28472     28473     28466     28469     28472     28474
     28466     28469     28472     28475     28467     28466     28469     28470
     28467     28466     28469     28471     28467     28466     28469     28472
     28468     28466     28469     28470     28468     28466     28469     28471
     28468     28466     28469     28472     28469     28472     28475     28476
     28469     28472     28475     28477     28469     28472     28475     28478
     28470     28469     28472     28473     28470     28469     28472     28474
     28470     28469     28472     28475     28471     28469     28472     28473
     28471     28469     28472     28474     28471     28469     28472     28475
     28472     28475     28478     28479     28472     28475     28478     28480
     28472     28475     28478     28481     28473     28472     28475     28476
     28473     28472     28475     28477     28473     28472     28475     28478
     28474     28472     28475     28476     28474     28472     28475     28477
     28474     28472     28475     28478     28475     28478     28481     28482
     28475     28478     28481     28483     28475     28478     28481     28484
     28476     28475     28478     28479     28476     28475     28478     28480
     28476     28475     28478     28481     28477     28475     28478     28479
     28477     28475     28478     28480     28477     28475     28478     28481
     28478     28481     28484     28485     28478     28481     28484     28486
     28478     28481     28484     28487     28479     28478     28481     28482
     28479     28478     28481     28483     28479     28478     28481     28484
     28480     28478     28481     28482     28480     28478     28481     28483
     28480     28478     28481     28484     28481     28484     28487     28488
     28481     28484     28487     28489     28481     28484     28487     28490
     28482     28481     28484     28485     28482     28481     28484     28486
     28482     28481     28484     28487     28483     28481     28484     28485
     28483     28481     28484     28486     28483     28481     28484     28487
     28484     28487     28490     28491     28484     28487     28490     28492
     28484     28487     28490     28493     28485     28484     28487     28488
     28485     28484     28487     28489     28485     28484     28487     28490
     28486     28484     28487     28488     28486     28484     28487     28489
     28486     28484     28487     28490     28487     28490     28493     28494
     28487     28490     28493     28495     28487     28490     28493     28496
     28488     28487     28490     28491     28488     28487     28490     28492
     28488     28487     28490     28493     28489     28487     28490     28491
     28489     28487     28490     28492     28489     28487     28490     28493
     28490     28493     28496     28497     28490     28493     28496     28498
     28490     28493     28496     28499     28491     28490     28493     28494
     28491     28490     28493     28495     28491     28490     28493     28496
     28492     28490     28493     28494     28492     28490     28493     28495
     28492     28490     28493     28496     28493     28496     28499     28500
     28493     28496     28499     28501     28493     28496     28499     28502
     28494     28493     28496     28497     28494     28493     28496     28498
     28494     28493     28496     28499     28495     28493     28496     28497
     28495     28493     28496     28498     28495     28493     28496     28499
     28497     28496     28499     28500     28497     28496     28499     28501
     28497     28496     28499     28502     28498     28496     28499     28500
     28498     28496     28499     28501     28498     28496     28499     28502
     28503     28504     28519     28520     28503     28504     28519     28521
     28503     28504     28519     28525     28504     28503     28507     28508
     28504     28503     28507     28509     28504     28503     28507     28510
     28504     28503     28511     28512     28504     28503     28511     28513
     28504     28503     28511     28514     28504     28503     28515     28516
     28504     28503     28515     28517     28504     28503     28515     28518
     28504     28519     28525     28522     28505     28504     28503     28507
     28505     28504     28503     28511     28505     28504     28503     28515
     28505     28504     28519     28520     28505     28504     28519     28521
     28505     28504     28519     28525     28506     28504     28503     28507
     28506     28504     28503     28511     28506     28504     28503     28515
     28506     28504     28519     28520     28506     28504     28519     28521
     28506     28504     28519     28525     28507     28503     28504     28519
     28507     28503     28511     28512     28507     28503     28511     28513
     28507     28503     28511     28514     28507     28503     28515     28516
     28507     28503     28515     28517     28507     28503     28515     28518
     28508     28507     28503     28511     28508     28507     28503     28515
     28509     28507     28503     28511     28509     28507     28503     28515
     28510     28507     28503     28511     28510     28507     28503     28515
     28511     28503     28504     28519     28511     28503     28515     28516
     28511     28503     28515     28517     28511     28503     28515     28518
     28512     28511     28503     28515     28513     28511     28503     28515
     28514     28511     28503     28515     28515     28503     28504     28519
     28519     28525     28522     28523     28519     28525     28522     28524
     28519     28525     28522     28526     28520     28519     28525     28522
     28521     28519     28525     28522     28522     28526     28527     28528
     28522     28526     28527     28529     28522     28526     28527     28530
     28523     28522     28526     28527     28524     28522     28526     28527
     28525     28522     28526     28527     28526     28527     28530     28531
     28526     28527     28530     28532     28526     28527     28530     28538
     28527     28530     28532     28533     28527     28530     28538     28539
     28527     28530     28538     28540     28527     28530     28538     28541
     28528     28527     28530     28531     28528     28527     28530     28532
     28528     28527     28530     28538     28529     28527     28530     28531
     28529     28527     28530     28532     28529     28527     28530     28538
     28530     28532     28533     28534     28530     28532     28533     28535
     28530     28538     28541     28542     28531     28530     28532     28533
     28531     28530     28538     28539     28531     28530     28538     28540
     28531     28530     28538     28541     28532     28530     28538     28539
     28532     28530     28538     28540     28532     28530     28538     28541
     28532     28533     28535     28536     28532     28533     28535     28537
     28532     28533     28535     28547     28533     28532     28530     28538
     28533     28535     28547     28548     28533     28535     28547     28549
     28533     28535     28547     28550     28534     28533     28535     28536
     28534     28533     28535     28537     28534     28533     28535     28547
     28535     28547     28550     28551     28535     28547     28550     28552
     28535     28547     28550     28553     28536     28535     28547     28548
     28536     28535     28547     28549     28536     28535     28547     28550
     28537     28535     28547     28548     28537     28535     28547     28549
     28537     28535     28547     28550     28538     28541     28542     28543
     28538     28541     28542     28544     28539     28538     28541     28542
     28540     28538     28541     28542     28541     28542     28544     28545
     28541     28542     28544     28546     28541     28542     28544     28594
     28542     28544     28594     28595     28542     28544     28594     28596
     28542     28544     28594     28597     28543     28542     28544     28545
     28543     28542     28544     28546     28543     28542     28544     28594
     28544     28594     28597     28598     28544     28594     28597     28599
     28544     28594     28597     28600     28545     28544     28594     28595
     28545     28544     28594     28596     28545     28544     28594     28597
     28546     28544     28594     28595     28546     28544     28594     28596
     28546     28544     28594     28597     28547     28550     28553     28554
     28547     28550     28553     28555     28547     28550     28553     28556
     28548     28547     28550     28551     28548     28547     28550     28552
     28548     28547     28550     28553     28549     28547     28550     28551
     28549     28547     28550     28552     28549     28547     28550     28553
     28550     28553     28556     28557     28550     28553     28556     28558
     28550     28553     28556     28559     28551     28550     28553     28554
     28551     28550     28553     28555     28551     28550     28553     28556
     28552     28550     28553     28554     28552     28550     28553     28555
     28552     28550     28553     28556     28553     28556     28559     28560
     28553     28556     28559     28561     28553     28556     28559     28562
     28554     28553     28556     28557     28554     28553     28556     28558
     28554     28553     28556     28559     28555     28553     28556     28557
     28555     28553     28556     28558     28555     28553     28556     28559
     28556     28559     28562     28563     28556     28559     28562     28564
     28556     28559     28562     28565     28557     28556     28559     28560
     28557     28556     28559     28561     28557     28556     28559     28562
     28558     28556     28559     28560     28558     28556     28559     28561
     28558     28556     28559     28562     28559     28562     28565     28566
     28559     28562     28565     28567     28560     28559     28562     28563
     28560     28559     28562     28564     28560     28559     28562     28565
     28561     28559     28562     28563     28561     28559     28562     28564
     28561     28559     28562     28565     28562     28565     28567     28568
     28562     28565     28567     28569     28563     28562     28565     28566
     28563     28562     28565     28567     28564     28562     28565     28566
     28564     28562     28565     28567     28565     28567     28569     28570
     28565     28567     28569     28571     28565     28567     28569     28572
     28566     28565     28567     28568     28566     28565     28567     28569
     28567     28569     28572     28573     28567     28569     28572     28574
     28567     28569     28572     28575     28568     28567     28569     28570
     28568     28567     28569     28571     28568     28567     28569     28572
     28569     28572     28575     28576     28569     28572     28575     28577
     28569     28572     28575     28578     28570     28569     28572     28573
     28570     28569     28572     28574     28570     28569     28572     28575
     28571     28569     28572     28573     28571     28569     28572     28574
     28571     28569     28572     28575     28572     28575     28578     28579
     28572     28575     28578     28580     28572     28575     28578     28581
     28573     28572     28575     28576     28573     28572     28575     28577
     28573     28572     28575     28578     28574     28572     28575     28576
     28574     28572     28575     28577     28574     28572     28575     28578
     28575     28578     28581     28582     28575     28578     28581     28583
     28575     28578     28581     28584     28576     28575     28578     28579
     28576     28575     28578     28580     28576     28575     28578     28581
     28577     28575     28578     28579     28577     28575     28578     28580
     28577     28575     28578     28581     28578     28581     28584     28585
     28578     28581     28584     28586     28578     28581     28584     28587
     28579     28578     28581     28582     28579     28578     28581     28583
     28579     28578     28581     28584     28580     28578     28581     28582
     28580     28578     28581     28583     28580     28578     28581     28584
     28581     28584     28587     28588     28581     28584     28587     28589
     28581     28584     28587     28590     28582     28581     28584     28585
     28582     28581     28584     28586     28582     28581     28584     28587
     28583     28581     28584     28585     28583     28581     28584     28586
     28583     28581     28584     28587     28584     28587     28590     28591
     28584     28587     28590     28592     28584     28587     28590     28593
     28585     28584     28587     28588     28585     28584     28587     28589
     28585     28584     28587     28590     28586     28584     28587     28588
     28586     28584     28587     28589     28586     28584     28587     28590
     28588     28587     28590     28591     28588     28587     28590     28592
     28588     28587     28590     28593     28589     28587     28590     28591
     28589     28587     28590     28592     28589     28587     28590     28593
     28594     28597     28600     28601     28594     28597     28600     28602
     28594     28597     28600     28603     28595     28594     28597     28598
     28595     28594     28597     28599     28595     28594     28597     28600
     28596     28594     28597     28598     28596     28594     28597     28599
     28596     28594     28597     28600     28597     28600     28603     28604
     28597     28600     28603     28605     28597     28600     28603     28606
     28598     28597     28600     28601     28598     28597     28600     28602
     28598     28597     28600     28603     28599     28597     28600     28601
     28599     28597     28600     28602     28599     28597     28600     28603
     28600     28603     28606     28607     28600     28603     28606     28608
     28600     28603     28606     28609     28601     28600     28603     28604
     28601     28600     28603     28605     28601     28600     28603     28606
     28602     28600     28603     28604     28602     28600     28603     28605
     28602     28600     28603     28606     28603     28606     28609     28610
     28603     28606     28609     28611     28603     28606     28609     28612
     28604     28603     28606     28607     28604     28603     28606     28608
     28604     28603     28606     28609     28605     28603     28606     28607
     28605     28603     28606     28608     28605     28603     28606     28609
     28606     28609     28612     28613     28606     28609     28612     28614
     28606     28609     28612     28615     28607     28606     28609     28610
     28607     28606     28609     28611     28607     28606     28609     28612
     28608     28606     28609     28610     28608     28606     28609     28611
     28608     28606     28609     28612     28609     28612     28615     28616
     28609     28612     28615     28617     28609     28612     28615     28618
     28610     28609     28612     28613     28610     28609     28612     28614
     28610     28609     28612     28615     28611     28609     28612     28613
     28611     28609     28612     28614     28611     28609     28612     28615
     28612     28615     28618     28619     28612     28615     28618     28620
     28612     28615     28618     28621     28613     28612     28615     28616
     28613     28612     28615     28617     28613     28612     28615     28618
     28614     28612     28615     28616     28614     28612     28615     28617
     28614     28612     28615     28618     28615     28618     28621     28622
     28615     28618     28621     28623     28615     28618     28621     28624
     28616     28615     28618     28619     28616     28615     28618     28620
     28616     28615     28618     28621     28617     28615     28618     28619
     28617     28615     28618     28620     28617     28615     28618     28621
     28618     28621     28624     28625     28618     28621     28624     28626
     28618     28621     28624     28627     28619     28618     28621     28622
     28619     28618     28621     28623     28619     28618     28621     28624
     28620     28618     28621     28622     28620     28618     28621     28623
     28620     28618     28621     28624     28621     28624     28627     28628
     28621     28624     28627     28629     28621     28624     28627     28630
     28622     28621     28624     28625     28622     28621     28624     28626
     28622     28621     28624     28627     28623     28621     28624     28625
     28623     28621     28624     28626     28623     28621     28624     28627
     28624     28627     28630     28631     28624     28627     28630     28632
     28624     28627     28630     28633     28625     28624     28627     28628
     28625     28624     28627     28629     28625     28624     28627     28630
     28626     28624     28627     28628     28626     28624     28627     28629
     28626     28624     28627     28630     28627     28630     28633     28634
     28627     28630     28633     28635     28627     28630     28633     28636
     28628     28627     28630     28631     28628     28627     28630     28632
     28628     28627     28630     28633     28629     28627     28630     28631
     28629     28627     28630     28632     28629     28627     28630     28633
     28631     28630     28633     28634     28631     28630     28633     28635
     28631     28630     28633     28636     28632     28630     28633     28634
     28632     28630     28633     28635     28632     28630     28633     28636

       476 !NIMPHI: impropers
        31        30        33        32        40        39        42        41
       158       157       160       159       167       166       169       168
       141       139       143       142       292       291       294       293
       301       300       303       302       426       425       428       427
       435       434       437       436       560       559       562       561
       569       568       571       570       694       693       696       695
       703       702       705       704       828       827       830       829
       837       836       839       838       962       961       964       963
       971       970       973       972      1096      1095      1098      1097
      1105      1104      1107      1106      1230      1229      1232      1231
      1239      1238      1241      1240      1364      1363      1366      1365
      1373      1372      1375      1374      1498      1497      1500      1499
      1507      1506      1509      1508      1632      1631      1634      1633
      1641      1640      1643      1642      1766      1765      1768      1767
      1775      1774      1777      1776      1893      1892      1895      1894
      1902      1901      1904      1903      1876      1874      1878      1877
      2027      2026      2029      2028      2036      2035      2038      2037
      2161      2160      2163      2162      2170      2169      2172      2171
      2295      2294      2297      2296      2304      2303      2306      2305
      2429      2428      2431      2430      2438      2437      2440      2439
      2563      2562      2565      2564      2572      2571      2574      2573
      2697      2696      2699      2698      2706      2705      2708      2707
      2824      2823      2826      2825      2833      2832      2835      2834
      2807      2805      2809      2808      2958      2957      2960      2959
      2967      2966      2969      2968      3085      3084      3087      3086
      3094      3093      3096      3095      3068      3066      3070      3069
      3219      3218      3221      3220      3228      3227      3230      3229
      3353      3352      3355      3354      3362      3361      3364      3363
      3480      3479      3482      3481      3489      3488      3491      3490
      3463      3461      3465      3464      3614      3613      3616      3615
      3623      3622      3625      3624      3748      3747      3750      3749
      3757      3756      3759      3758      3882      3881      3884      3883
      3891      3890      3893      3892      4009      4008      4011      4010
      4018      4017      4020      4019      3992      3990      3994      3993
      4143      4142      4145      4144      4152      4151      4154      4153
      4277      4276      4279      4278      4286      4285      4288      4287
      4404      4403      4406      4405      4413      4412      4415      4414
      4387      4385      4389      4388      4531      4530      4533      4532
      4540      4539      4542      4541      4514      4512      4516      4515
      4665      4664      4667      4666      4674      4673      4676      4675
      4799      4798      4801      4800      4808      4807      4810      4809
      4926      4925      4928      4927      4935      4934      4937      4936
      4909      4907      4911      4910      5060      5059      5062      5061
      5069      5068      5071      5070      5194      5193      5196      5195
      5203      5202      5205      5204      5328      5327      5330      5329
      5337      5336      5339      5338      5462      5461      5464      5463
      5471      5470      5473      5472      5596      5595      5598      5597
      5605      5604      5607      5606      5730      5729      5732      5731
      5739      5738      5741      5740      5864      5863      5866      5865
      5873      5872      5875      5874      5998      5997      6000      5999
      6007      6006      6009      6008      6132      6131      6134      6133
      6141      6140      6143      6142      6266      6265      6268      6267
      6275      6274      6277      6276      6400      6399      6402      6401
      6409      6408      6411      6410      6534      6533      6536      6535
      6543      6542      6545      6544      6668      6667      6670      6669
      6677      6676      6679      6678      6802      6801      6804      6803
      6811      6810      6813      6812      6936      6935      6938      6937
      6945      6944      6947      6946      7070      7069      7072      7071
      7079      7078      7081      7080      7197      7196      7199      7198
      7206      7205      7208      7207      7180      7178      7182      7181
      7324      7323      7326      7325      7333      7332      7335      7334
      7307      7305      7309      7308      7458      7457      7460      7459
      7467      7466      7469      7468      7592      7591      7594      7593
      7601      7600      7603      7602      7726      7725      7728      7727
      7735      7734      7737      7736      7860      7859      7862      7861
      7869      7868      7871      7870      7994      7993      7996      7995
      8003      8002      8005      8004      8121      8120      8123      8122
      8130      8129      8132      8131      8104      8102      8106      8105
      8255      8254      8257      8256      8264      8263      8266      8265
      8389      8388      8391      8390      8398      8397      8400      8399
      8523      8522      8525      8524      8532      8531      8534      8533
      8650      8649      8652      8651      8659      8658      8661      8660
      8633      8631      8635      8634      8777      8776      8779      8778
      8786      8785      8788      8787      8760      8758      8762      8761
      8911      8910      8913      8912      8920      8919      8922      8921
      9045      9044      9047      9046      9054      9053      9056      9055
      9179      9178      9181      9180      9188      9187      9190      9189
      9306      9305      9308      9307      9315      9314      9317      9316
      9289      9287      9291      9290      9440      9439      9442      9441
      9449      9448      9451      9450      9574      9573      9576      9575
      9583      9582      9585      9584      9708      9707      9710      9709
      9717      9716      9719      9718      9835      9834      9837      9836
      9844      9843      9846      9845      9818      9816      9820      9819
      9969      9968      9971      9970      9978      9977      9980      9979
     10103     10102     10105     10104     10112     10111     10114     10113
     10237     10236     10239     10238     10246     10245     10248     10247
     10371     10370     10373     10372     10380     10379     10382     10381
     10498     10497     10500     10499     10507     10506     10509     10508
     10481     10479     10483     10482     10625     10624     10627     10626
     10634     10633     10636     10635     10608     10606     10610     10609
     10752     10751     10754     10753     10761     10760     10763     10762
     10735     10733     10737     10736     10886     10885     10888     10887
     10895     10894     10897     10896     11020     11019     11022     11021
     11029     11028     11031     11030     11154     11153     11156     11155
     11163     11162     11165     11164     11288     11287     11290     11289
     11297     11296     11299     11298     11422     11421     11424     11423
     11431     11430     11433     11432     11556     11555     11558     11557
     11565     11564     11567     11566     11690     11689     11692     11691
     11699     11698     11701     11700     11824     11823     11826     11825
     11833     11832     11835     11834     11958     11957     11960     11959
     11967     11966     11969     11968     12085     12084     12087     12086
     12094     12093     12096     12095     12068     12066     12070     12069
     12219     12218     12221     12220     12228     12227     12230     12229
     12353     12352     12355     12354     12362     12361     12364     12363
     12487     12486     12489     12488     12496     12495     12498     12497
     12621     12620     12623     12622     12630     12629     12632     12631
     12755     12754     12757     12756     12764     12763     12766     12765
     12882     12881     12884     12883     12891     12890     12893     12892
     12865     12863     12867     12866     13016     13015     13018     13017
     13025     13024     13027     13026     13150     13149     13152     13151
     13159     13158     13161     13160     13284     13283     13286     13285
     13293     13292     13295     13294     13418     13417     13420     13419
     13427     13426     13429     13428     13545     13544     13547     13546
     13554     13553     13556     13555     13528     13526     13530     13529
     13679     13678     13681     13680     13688     13687     13690     13689
     13813     13812     13815     13814     13822     13821     13824     13823
     13947     13946     13949     13948     13956     13955     13958     13957
     14081     14080     14083     14082     14090     14089     14092     14091
     14215     14214     14217     14216     14224     14223     14226     14225
     14349     14348     14351     14350     14358     14357     14360     14359
     14483     14482     14485     14484     14492     14491     14494     14493
     14617     14616     14619     14618     14626     14625     14628     14627
     14751     14750     14753     14752     14760     14759     14762     14761
     14885     14884     14887     14886     14894     14893     14896     14895
     15012     15011     15014     15013     15021     15020     15023     15022
     14995     14993     14997     14996     15146     15145     15148     15147
     15155     15154     15157     15156     15273     15272     15275     15274
     15282     15281     15284     15283     15256     15254     15258     15257
     15407     15406     15409     15408     15416     15415     15418     15417
     15541     15540     15543     15542     15550     15549     15552     15551
     15668     15667     15670     15669     15677     15676     15679     15678
     15651     15649     15653     15652     15802     15801     15804     15803
     15811     15810     15813     15812     15936     15935     15938     15937
     15945     15944     15947     15946     16070     16069     16072     16071
     16079     16078     16081     16080     16204     16203     16206     16205
     16213     16212     16215     16214     16331     16330     16333     16332
     16340     16339     16342     16341     16314     16312     16316     16315
     16465     16464     16467     16466     16474     16473     16476     16475
     16599     16598     16601     16600     16608     16607     16610     16609
     16726     16725     16728     16727     16735     16734     16737     16736
     16709     16707     16711     16710     16860     16859     16862     16861
     16869     16868     16871     16870     16994     16993     16996     16995
     17003     17002     17005     17004     17128     17127     17130     17129
     17137     17136     17139     17138     17255     17254     17257     17256
     17264     17263     17266     17265     17238     17236     17240     17239
     17389     17388     17391     17390     17398     17397     17400     17399
     17516     17515     17518     17517     17525     17524     17527     17526
     17499     17497     17501     17500     17650     17649     17652     17651
     17659     17658     17661     17660     17784     17783     17786     17785
     17793     17792     17795     17794     17918     17917     17920     17919
     17927     17926     17929     17928     18052     18051     18054     18053
     18061     18060     18063     18062     18186     18185     18188     18187
     18195     18194     18197     18196     18313     18312     18315     18314
     18322     18321     18324     18323     18296     18294     18298     18297
     18440     18439     18442     18441     18449     18448     18451     18450
     18423     18421     18425     18424     18567     18566     18569     18568
     18576     18575     18578     18577     18550     18548     18552     18551
     18701     18700     18703     18702     18710     18709     18712     18711
     18835     18834     18837     18836     18844     18843     18846     18845
     18969     18968     18971     18970     18978     18977     18980     18979
     19103     19102     19105     19104     19112     19111     19114     19113
     19237     19236     19239     19238     19246     19245     19248     19247
     19364     19363     19366     19365     19373     19372     19375     19374
     19347     19345     19349     19348     19498     19497     19500     19499
     19507     19506     19509     19508     19632     19631     19634     19633
     19641     19640     19643     19642     19766     19765     19768     19767
     19775     19774     19777     19776     19900     19899     19902     19901
     19909     19908     19911     19910     20034     20033     20036     20035
     20043     20042     20045     20044     20161     20160     20163     20162
     20170     20169     20172     20171     20144     20142     20146     20145
     20288     20287     20290     20289     20297     20296     20299     20298
     20271     20269     20273     20272     20422     20421     20424     20423
     20431     20430     20433     20432     20556     20555     20558     20557
     20565     20564     20567     20566     20690     20689     20692     20691
     20699     20698     20701     20700     20824     20823     20826     20825
     20833     20832     20835     20834     20958     20957     20960     20959
     20967     20966     20969     20968     21085     21084     21087     21086
     21094     21093     21096     21095     21068     21066     21070     21069
     21219     21218     21221     21220     21228     21227     21230     21229
     21353     21352     21355     21354     21362     21361     21364     21363
     21487     21486     21489     21488     21496     21495     21498     21497
     21621     21620     21623     21622     21630     21629     21632     21631
     21755     21754     21757     21756     21764     21763     21766     21765
     21889     21888     21891     21890     21898     21897     21900     21899
     22023     22022     22025     22024     22032     22031     22034     22033
     22157     22156     22159     22158     22166     22165     22168     22167
     22291     22290     22293     22292     22300     22299     22302     22301
     22418     22417     22420     22419     22427     22426     22429     22428
     22401     22399     22403     22402     22552     22551     22554     22553
     22561     22560     22563     22562     22686     22685     22688     22687
     22695     22694     22697     22696     22820     22819     22822     22821
     22829     22828     22831     22830     22954     22953     22956     22955
     22963     22962     22965     22964     23088     23087     23090     23089
     23097     23096     23099     23098     23222     23221     23224     23223
     23231     23230     23233     23232     23349     23348     23351     23350
     23358     23357     23360     23359     23332     23330     23334     23333
     23483     23482     23485     23484     23492     23491     23494     23493
     23617     23616     23619     23618     23626     23625     23628     23627
     23751     23750     23753     23752     23760     23759     23762     23761
     23885     23884     23887     23886     23894     23893     23896     23895
     24019     24018     24021     24020     24028     24027     24030     24029
     24153     24152     24155     24154     24162     24161     24164     24163
     24287     24286     24289     24288     24296     24295     24298     24297
     24421     24420     24423     24422     24430     24429     24432     24431
     24555     24554     24557     24556     24564     24563     24566     24565
     24689     24688     24691     24690     24698     24697     24700     24699
     24823     24822     24825     24824     24832     24831     24834     24833
     24957     24956     24959     24958     24966     24965     24968     24967
     25091     25090     25093     25092     25100     25099     25102     25101
     25225     25224     25227     25226     25234     25233     25236     25235
     25359     25358     25361     25360     25368     25367     25370     25369
     25493     25492     25495     25494     25502     25501     25504     25503
     25627     25626     25629     25628     25636     25635     25638     25637
     25761     25760     25763     25762     25770     25769     25772     25771
     25895     25894     25897     25896     25904     25903     25906     25905
     26022     26021     26024     26023     26031     26030     26033     26032
     26005     26003     26007     26006     26156     26155     26158     26157
     26165     26164     26167     26166     26283     26282     26285     26284
     26292     26291     26294     26293     26266     26264     26268     26267
     26410     26409     26412     26411     26419     26418     26421     26420
     26393     26391     26395     26394     26544     26543     26546     26545
     26553     26552     26555     26554     26678     26677     26680     26679
     26687     26686     26689     26688     26812     26811     26814     26813
     26821     26820     26823     26822     26946     26945     26948     26947
     26955     26954     26957     26956     27073     27072     27075     27074
     27082     27081     27084     27083     27056     27054     27058     27057
     27207     27206     27209     27208     27216     27215     27218     27217
     27341     27340     27343     27342     27350     27349     27352     27351
     27475     27474     27477     27476     27484     27483     27486     27485
     27609     27608     27611     27610     27618     27617     27620     27619
     27736     27735     27738     27737     27745     27744     27747     27746
     27719     27717     27721     27720     27870     27869     27872     27871
     27879     27878     27881     27880     27997     27996     27999     27998
     28006     28005     28008     28007     27980     27978     27982     27981
     28131     28130     28133     28132     28140     28139     28142     28141
     28265     28264     28267     28266     28274     28273     28276     28275
     28399     28398     28401     28400     28408     28407     28410     28409
     28533     28532     28535     28534     28542     28541     28544     28543

     11864 !NDON: donors
     28637     28638     28637     28639     28640     28641     28640     28642
     28643     28644     28643     28645     28646     28647     28646     28648
     28649     28650     28649     28651     28652     28653     28652     28654
     28655     28656     28655     28657     28658     28659     28658     28660
     28661     28662     28661     28663     28664     28665     28664     28666
     28667     28668     28667     28669     28670     28671     28670     28672
     28673     28674     28673     28675     28676     28677     28676     28678
     28679     28680     28679     28681     28682     28683     28682     28684
     28685     28686     28685     28687     28688     28689     28688     28690
     28691     28692     28691     28693     28694     28695     28694     28696
     28697     28698     28697     28699     28700     28701     28700     28702
     28703     28704     28703     28705     28706     28707     28706     28708
     28709     28710     28709     28711     28712     28713     28712     28714
     28715     28716     28715     28717     28718     28719     28718     28720
     28721     28722     28721     28723     28724     28725     28724     28726
     28727     28728     28727     28729     28730     28731     28730     28732
     28733     28734     28733     28735     28736     28737     28736     28738
     28739     28740     28739     28741     28742     28743     28742     28744
     28745     28746     28745     28747     28748     28749     28748     28750
     28751     28752     28751     28753     28754     28755     28754     28756
     28757     28758     28757     28759     28760     28761     28760     28762
     28763     28764     28763     28765     28766     28767     28766     28768
     28769     28770     28769     28771     28772     28773     28772     28774
     28775     28776     28775     28777     28778     28779     28778     28780
     28781     28782     28781     28783     28784     28785     28784     28786
     28787     28788     28787     28789     28790     28791     28790     28792
     28793     28794     28793     28795     28796     28797     28796     28798
     28799     28800     28799     28801     28802     28803     28802     28804
     28805     28806     28805     28807     28808     28809     28808     28810
     28811     28812     28811     28813     28814     28815     28814     28816
     28817     28818     28817     28819     28820     28821     28820     28822
     28823     28824     28823     28825     28826     28827     28826     28828
     28829     28830     28829     28831     28832     28833     28832     28834
     28835     28836     28835     28837     28838     28839     28838     28840
     28841     28842     28841     28843     28844     28845     28844     28846
     28847     28848     28847     28849     28850     28851     28850     28852
     28853     28854     28853     28855     28856     28857     28856     28858
     28859     28860     28859     28861     28862     28863     28862     28864
     28865     28866     28865     28867     28868     28869     28868     28870
     28871     28872     28871     28873     28874     28875     28874     28876
     28877     28878     28877     28879     28880     28881     28880     28882
     28883     28884     28883     28885     28886     28887     28886     28888
     28889     28890     28889     28891     28892     28893     28892     28894
     28895     28896     28895     28897     28898     28899     28898     28900
     28901     28902     28901     28903     28904     28905     28904     28906
     28907     28908     28907     28909     28910     28911     28910     28912
     28913     28914     28913     28915     28916     28917     28916     28918
     28919     28920     28919     28921     28922     28923     28922     28924
     28925     28926     28925     28927     28928     28929     28928     28930
     28931     28932     28931     28933     28934     28935     28934     28936
     28937     28938     28937     28939     28940     28941     28940     28942
     28943     28944     28943     28945     28946     28947     28946     28948
     28949     28950     28949     28951     28952     28953     28952     28954
     28955     28956     28955     28957     28958     28959     28958     28960
     28961     28962     28961     28963     28964     28965     28964     28966
     28967     28968     28967     28969     28970     28971     28970     28972
     28973     28974     28973     28975     28976     28977     28976     28978
     28979     28980     28979     28981     28982     28983     28982     28984
     28985     28986     28985     28987     28988     28989     28988     28990
     28991     28992     28991     28993     28994     28995     28994     28996
     28997     28998     28997     28999     29000     29001     29000     29002
     29003     29004     29003     29005     29006     29007     29006     29008
     29009     29010     29009     29011     29012     29013     29012     29014
     29015     29016     29015     29017     29018     29019     29018     29020
     29021     29022     29021     29023     29024     29025     29024     29026
     29027     29028     29027     29029     29030     29031     29030     29032
     29033     29034     29033     29035     29036     29037     29036     29038
     29039     29040     29039     29041     29042     29043     29042     29044
     29045     29046     29045     29047     29048     29049     29048     29050
     29051     29052     29051     29053     29054     29055     29054     29056
     29057     29058     29057     29059     29060     29061     29060     29062
     29063     29064     29063     29065     29066     29067     29066     29068
     29069     29070     29069     29071     29072     29073     29072     29074
     29075     29076     29075     29077     29078     29079     29078     29080
     29081     29082     29081     29083     29084     29085     29084     29086
     29087     29088     29087     29089     29090     29091     29090     29092
     29093     29094     29093     29095     29096     29097     29096     29098
     29099     29100     29099     29101     29102     29103     29102     29104
     29105     29106     29105     29107     29108     29109     29108     29110
     29111     29112     29111     29113     29114     29115     29114     29116
     29117     29118     29117     29119     29120     29121     29120     29122
     29123     29124     29123     29125     29126     29127     29126     29128
     29129     29130     29129     29131     29132     29133     29132     29134
     29135     29136     29135     29137     29138     29139     29138     29140
     29141     29142     29141     29143     29144     29145     29144     29146
     29147     29148     29147     29149     29150     29151     29150     29152
     29153     29154     29153     29155     29156     29157     29156     29158
     29159     29160     29159     29161     29162     29163     29162     29164
     29165     29166     29165     29167     29168     29169     29168     29170
     29171     29172     29171     29173     29174     29175     29174     29176
     29177     29178     29177     29179     29180     29181     29180     29182
     29183     29184     29183     29185     29186     29187     29186     29188
     29189     29190     29189     29191     29192     29193     29192     29194
     29195     29196     29195     29197     29198     29199     29198     29200
     29201     29202     29201     29203     29204     29205     29204     29206
     29207     29208     29207     29209     29210     29211     29210     29212
     29213     29214     29213     29215     29216     29217     29216     29218
     29219     29220     29219     29221     29222     29223     29222     29224
     29225     29226     29225     29227     29228     29229     29228     29230
     29231     29232     29231     29233     29234     29235     29234     29236
     29237     29238     29237     29239     29240     29241     29240     29242
     29243     29244     29243     29245     29246     29247     29246     29248
     29249     29250     29249     29251     29252     29253     29252     29254
     29255     29256     29255     29257     29258     29259     29258     29260
     29261     29262     29261     29263     29264     29265     29264     29266
     29267     29268     29267     29269     29270     29271     29270     29272
     29273     29274     29273     29275     29276     29277     29276     29278
     29279     29280     29279     29281     29282     29283     29282     29284
     29285     29286     29285     29287     29288     29289     29288     29290
     29291     29292     29291     29293     29294     29295     29294     29296
     29297     29298     29297     29299     29300     29301     29300     29302
     29303     29304     29303     29305     29306     29307     29306     29308
     29309     29310     29309     29311     29312     29313     29312     29314
     29315     29316     29315     29317     29318     29319     29318     29320
     29321     29322     29321     29323     29324     29325     29324     29326
     29327     29328     29327     29329     29330     29331     29330     29332
     29333     29334     29333     29335     29336     29337     29336     29338
     29339     29340     29339     29341     29342     29343     29342     29344
     29345     29346     29345     29347     29348     29349     29348     29350
     29351     29352     29351     29353     29354     29355     29354     29356
     29357     29358     29357     29359     29360     29361     29360     29362
     29363     29364     29363     29365     29366     29367     29366     29368
     29369     29370     29369     29371     29372     29373     29372     29374
     29375     29376     29375     29377     29378     29379     29378     29380
     29381     29382     29381     29383     29384     29385     29384     29386
     29387     29388     29387     29389     29390     29391     29390     29392
     29393     29394     29393     29395     29396     29397     29396     29398
     29399     29400     29399     29401     29402     29403     29402     29404
     29405     29406     29405     29407     29408     29409     29408     29410
     29411     29412     29411     29413     29414     29415     29414     29416
     29417     29418     29417     29419     29420     29421     29420     29422
     29423     29424     29423     29425     29426     29427     29426     29428
     29429     29430     29429     29431     29432     29433     29432     29434
     29435     29436     29435     29437     29438     29439     29438     29440
     29441     29442     29441     29443     29444     29445     29444     29446
     29447     29448     29447     29449     29450     29451     29450     29452
     29453     29454     29453     29455     29456     29457     29456     29458
     29459     29460     29459     29461     29462     29463     29462     29464
     29465     29466     29465     29467     29468     29469     29468     29470
     29471     29472     29471     29473     29474     29475     29474     29476
     29477     29478     29477     29479     29480     29481     29480     29482
     29483     29484     29483     29485     29486     29487     29486     29488
     29489     29490     29489     29491     29492     29493     29492     29494
     29495     29496     29495     29497     29498     29499     29498     29500
     29501     29502     29501     29503     29504     29505     29504     29506
     29507     29508     29507     29509     29510     29511     29510     29512
     29513     29514     29513     29515     29516     29517     29516     29518
     29519     29520     29519     29521     29522     29523     29522     29524
     29525     29526     29525     29527     29528     29529     29528     29530
     29531     29532     29531     29533     29534     29535     29534     29536
     29537     29538     29537     29539     29540     29541     29540     29542
     29543     29544     29543     29545     29546     29547     29546     29548
     29549     29550     29549     29551     29552     29553     29552     29554
     29555     29556     29555     29557     29558     29559     29558     29560
     29561     29562     29561     29563     29564     29565     29564     29566
     29567     29568     29567     29569     29570     29571     29570     29572
     29573     29574     29573     29575     29576     29577     29576     29578
     29579     29580     29579     29581     29582     29583     29582     29584
     29585     29586     29585     29587     29588     29589     29588     29590
     29591     29592     29591     29593     29594     29595     29594     29596
     29597     29598     29597     29599     29600     29601     29600     29602
     29603     29604     29603     29605     29606     29607     29606     29608
     29609     29610     29609     29611     29612     29613     29612     29614
     29615     29616     29615     29617     29618     29619     29618     29620
     29621     29622     29621     29623     29624     29625     29624     29626
     29627     29628     29627     29629     29630     29631     29630     29632
     29633     29634     29633     29635     29636     29637     29636     29638
     29639     29640     29639     29641     29642     29643     29642     29644
     29645     29646     29645     29647     29648     29649     29648     29650
     29651     29652     29651     29653     29654     29655     29654     29656
     29657     29658     29657     29659     29660     29661     29660     29662
     29663     29664     29663     29665     29666     29667     29666     29668
     29669     29670     29669     29671     29672     29673     29672     29674
     29675     29676     29675     29677     29678     29679     29678     29680
     29681     29682     29681     29683     29684     29685     29684     29686
     29687     29688     29687     29689     29690     29691     29690     29692
     29693     29694     29693     29695     29696     29697     29696     29698
     29699     29700     29699     29701     29702     29703     29702     29704
     29705     29706     29705     29707     29708     29709     29708     29710
     29711     29712     29711     29713     29714     29715     29714     29716
     29717     29718     29717     29719     29720     29721     29720     29722
     29723     29724     29723     29725     29726     29727     29726     29728
     29729     29730     29729     29731     29732     29733     29732     29734
     29735     29736     29735     29737     29738     29739     29738     29740
     29741     29742     29741     29743     29744     29745     29744     29746
     29747     29748     29747     29749     29750     29751     29750     29752
     29753     29754     29753     29755     29756     29757     29756     29758
     29759     29760     29759     29761     29762     29763     29762     29764
     29765     29766     29765     29767     29768     29769     29768     29770
     29771     29772     29771     29773     29774     29775     29774     29776
     29777     29778     29777     29779     29780     29781     29780     29782
     29783     29784     29783     29785     29786     29787     29786     29788
     29789     29790     29789     29791     29792     29793     29792     29794
     29795     29796     29795     29797     29798     29799     29798     29800
     29801     29802     29801     29803     29804     29805     29804     29806
     29807     29808     29807     29809     29810     29811     29810     29812
     29813     29814     29813     29815     29816     29817     29816     29818
     29819     29820     29819     29821     29822     29823     29822     29824
     29825     29826     29825     29827     29828     29829     29828     29830
     29831     29832     29831     29833     29834     29835     29834     29836
     29837     29838     29837     29839     29840     29841     29840     29842
     29843     29844     29843     29845     29846     29847     29846     29848
     29849     29850     29849     29851     29852     29853     29852     29854
     29855     29856     29855     29857     29858     29859     29858     29860
     29861     29862     29861     29863     29864     29865     29864     29866
     29867     29868     29867     29869     29870     29871     29870     29872
     29873     29874     29873     29875     29876     29877     29876     29878
     29879     29880     29879     29881     29882     29883     29882     29884
     29885     29886     29885     29887     29888     29889     29888     29890
     29891     29892     29891     29893     29894     29895     29894     29896
     29897     29898     29897     29899     29900     29901     29900     29902
     29903     29904     29903     29905     29906     29907     29906     29908
     29909     29910     29909     29911     29912     29913     29912     29914
     29915     29916     29915     29917     29918     29919     29918     29920
     29921     29922     29921     29923     29924     29925     29924     29926
     29927     29928     29927     29929     29930     29931     29930     29932
     29933     29934     29933     29935     29936     29937     29936     29938
     29939     29940     29939     29941     29942     29943     29942     29944
     29945     29946     29945     29947     29948     29949     29948     29950
     29951     29952     29951     29953     29954     29955     29954     29956
     29957     29958     29957     29959     29960     29961     29960     29962
     29963     29964     29963     29965     29966     29967     29966     29968
     29969     29970     29969     29971     29972     29973     29972     29974
     29975     29976     29975     29977     29978     29979     29978     29980
     29981     29982     29981     29983     29984     29985     29984     29986
     29987     29988     29987     29989     29990     29991     29990     29992
     29993     29994     29993     29995     29996     29997     29996     29998
     29999     30000     29999     30001     30002     30003     30002     30004
     30005     30006     30005     30007     30008     30009     30008     30010
     30011     30012     30011     30013     30014     30015     30014     30016
     30017     30018     30017     30019     30020     30021     30020     30022
     30023     30024     30023     30025     30026     30027     30026     30028
     30029     30030     30029     30031     30032     30033     30032     30034
     30035     30036     30035     30037     30038     30039     30038     30040
     30041     30042     30041     30043     30044     30045     30044     30046
     30047     30048     30047     30049     30050     30051     30050     30052
     30053     30054     30053     30055     30056     30057     30056     30058
     30059     30060     30059     30061     30062     30063     30062     30064
     30065     30066     30065     30067     30068     30069     30068     30070
     30071     30072     30071     30073     30074     30075     30074     30076
     30077     30078     30077     30079     30080     30081     30080     30082
     30083     30084     30083     30085     30086     30087     30086     30088
     30089     30090     30089     30091     30092     30093     30092     30094
     30095     30096     30095     30097     30098     30099     30098     30100
     30101     30102     30101     30103     30104     30105     30104     30106
     30107     30108     30107     30109     30110     30111     30110     30112
     30113     30114     30113     30115     30116     30117     30116     30118
     30119     30120     30119     30121     30122     30123     30122     30124
     30125     30126     30125     30127     30128     30129     30128     30130
     30131     30132     30131     30133     30134     30135     30134     30136
     30137     30138     30137     30139     30140     30141     30140     30142
     30143     30144     30143     30145     30146     30147     30146     30148
     30149     30150     30149     30151     30152     30153     30152     30154
     30155     30156     30155     30157     30158     30159     30158     30160
     30161     30162     30161     30163     30164     30165     30164     30166
     30167     30168     30167     30169     30170     30171     30170     30172
     30173     30174     30173     30175     30176     30177     30176     30178
     30179     30180     30179     30181     30182     30183     30182     30184
     30185     30186     30185     30187     30188     30189     30188     30190
     30191     30192     30191     30193     30194     30195     30194     30196
     30197     30198     30197     30199     30200     30201     30200     30202
     30203     30204     30203     30205     30206     30207     30206     30208
     30209     30210     30209     30211     30212     30213     30212     30214
     30215     30216     30215     30217     30218     30219     30218     30220
     30221     30222     30221     30223     30224     30225     30224     30226
     30227     30228     30227     30229     30230     30231     30230     30232
     30233     30234     30233     30235     30236     30237     30236     30238
     30239     30240     30239     30241     30242     30243     30242     30244
     30245     30246     30245     30247     30248     30249     30248     30250
     30251     30252     30251     30253     30254     30255     30254     30256
     30257     30258     30257     30259     30260     30261     30260     30262
     30263     30264     30263     30265     30266     30267     30266     30268
     30269     30270     30269     30271     30272     30273     30272     30274
     30275     30276     30275     30277     30278     30279     30278     30280
     30281     30282     30281     30283     30284     30285     30284     30286
     30287     30288     30287     30289     30290     30291     30290     30292
     30293     30294     30293     30295     30296     30297     30296     30298
     30299     30300     30299     30301     30302     30303     30302     30304
     30305     30306     30305     30307     30308     30309     30308     30310
     30311     30312     30311     30313     30314     30315     30314     30316
     30317     30318     30317     30319     30320     30321     30320     30322
     30323     30324     30323     30325     30326     30327     30326     30328
     30329     30330     30329     30331     30332     30333     30332     30334
     30335     30336     30335     30337     30338     30339     30338     30340
     30341     30342     30341     30343     30344     30345     30344     30346
     30347     30348     30347     30349     30350     30351     30350     30352
     30353     30354     30353     30355     30356     30357     30356     30358
     30359     30360     30359     30361     30362     30363     30362     30364
     30365     30366     30365     30367     30368     30369     30368     30370
     30371     30372     30371     30373     30374     30375     30374     30376
     30377     30378     30377     30379     30380     30381     30380     30382
     30383     30384     30383     30385     30386     30387     30386     30388
     30389     30390     30389     30391     30392     30393     30392     30394
     30395     30396     30395     30397     30398     30399     30398     30400
     30401     30402     30401     30403     30404     30405     30404     30406
     30407     30408     30407     30409     30410     30411     30410     30412
     30413     30414     30413     30415     30416     30417     30416     30418
     30419     30420     30419     30421     30422     30423     30422     30424
     30425     30426     30425     30427     30428     30429     30428     30430
     30431     30432     30431     30433     30434     30435     30434     30436
     30437     30438     30437     30439     30440     30441     30440     30442
     30443     30444     30443     30445     30446     30447     30446     30448
     30449     30450     30449     30451     30452     30453     30452     30454
     30455     30456     30455     30457     30458     30459     30458     30460
     30461     30462     30461     30463     30464     30465     30464     30466
     30467     30468     30467     30469     30470     30471     30470     30472
     30473     30474     30473     30475     30476     30477     30476     30478
     30479     30480     30479     30481     30482     30483     30482     30484
     30485     30486     30485     30487     30488     30489     30488     30490
     30491     30492     30491     30493     30494     30495     30494     30496
     30497     30498     30497     30499     30500     30501     30500     30502
     30503     30504     30503     30505     30506     30507     30506     30508
     30509     30510     30509     30511     30512     30513     30512     30514
     30515     30516     30515     30517     30518     30519     30518     30520
     30521     30522     30521     30523     30524     30525     30524     30526
     30527     30528     30527     30529     30530     30531     30530     30532
     30533     30534     30533     30535     30536     30537     30536     30538
     30539     30540     30539     30541     30542     30543     30542     30544
     30545     30546     30545     30547     30548     30549     30548     30550
     30551     30552     30551     30553     30554     30555     30554     30556
     30557     30558     30557     30559     30560     30561     30560     30562
     30563     30564     30563     30565     30566     30567     30566     30568
     30569     30570     30569     30571     30572     30573     30572     30574
     30575     30576     30575     30577     30578     30579     30578     30580
     30581     30582     30581     30583     30584     30585     30584     30586
     30587     30588     30587     30589     30590     30591     30590     30592
     30593     30594     30593     30595     30596     30597     30596     30598
     30599     30600     30599     30601     30602     30603     30602     30604
     30605     30606     30605     30607     30608     30609     30608     30610
     30611     30612     30611     30613     30614     30615     30614     30616
     30617     30618     30617     30619     30620     30621     30620     30622
     30623     30624     30623     30625     30626     30627     30626     30628
     30629     30630     30629     30631     30632     30633     30632     30634
     30635     30636     30635     30637     30638     30639     30638     30640
     30641     30642     30641     30643     30644     30645     30644     30646
     30647     30648     30647     30649     30650     30651     30650     30652
     30653     30654     30653     30655     30656     30657     30656     30658
     30659     30660     30659     30661     30662     30663     30662     30664
     30665     30666     30665     30667     30668     30669     30668     30670
     30671     30672     30671     30673     30674     30675     30674     30676
     30677     30678     30677     30679     30680     30681     30680     30682
     30683     30684     30683     30685     30686     30687     30686     30688
     30689     30690     30689     30691     30692     30693     30692     30694
     30695     30696     30695     30697     30698     30699     30698     30700
     30701     30702     30701     30703     30704     30705     30704     30706
     30707     30708     30707     30709     30710     30711     30710     30712
     30713     30714     30713     30715     30716     30717     30716     30718
     30719     30720     30719     30721     30722     30723     30722     30724
     30725     30726     30725     30727     30728     30729     30728     30730
     30731     30732     30731     30733     30734     30735     30734     30736
     30737     30738     30737     30739     30740     30741     30740     30742
     30743     30744     30743     30745     30746     30747     30746     30748
     30749     30750     30749     30751     30752     30753     30752     30754
     30755     30756     30755     30757     30758     30759     30758     30760
     30761     30762     30761     30763     30764     30765     30764     30766
     30767     30768     30767     30769     30770     30771     30770     30772
     30773     30774     30773     30775     30776     30777     30776     30778
     30779     30780     30779     30781     30782     30783     30782     30784
     30785     30786     30785     30787     30788     30789     30788     30790
     30791     30792     30791     30793     30794     30795     30794     30796
     30797     30798     30797     30799     30800     30801     30800     30802
     30803     30804     30803     30805     30806     30807     30806     30808
     30809     30810     30809     30811     30812     30813     30812     30814
     30815     30816     30815     30817     30818     30819     30818     30820
     30821     30822     30821     30823     30824     30825     30824     30826
     30827     30828     30827     30829     30830     30831     30830     30832
     30833     30834     30833     30835     30836     30837     30836     30838
     30839     30840     30839     30841     30842     30843     30842     30844
     30845     30846     30845     30847     30848     30849     30848     30850
     30851     30852     30851     30853     30854     30855     30854     30856
     30857     30858     30857     30859     30860     30861     30860     30862
     30863     30864     30863     30865     30866     30867     30866     30868
     30869     30870     30869     30871     30872     30873     30872     30874
     30875     30876     30875     30877     30878     30879     30878     30880
     30881     30882     30881     30883     30884     30885     30884     30886
     30887     30888     30887     30889     30890     30891     30890     30892
     30893     30894     30893     30895     30896     30897     30896     30898
     30899     30900     30899     30901     30902     30903     30902     30904
     30905     30906     30905     30907     30908     30909     30908     30910
     30911     30912     30911     30913     30914     30915     30914     30916
     30917     30918     30917     30919     30920     30921     30920     30922
     30923     30924     30923     30925     30926     30927     30926     30928
     30929     30930     30929     30931     30932     30933     30932     30934
     30935     30936     30935     30937     30938     30939     30938     30940
     30941     30942     30941     30943     30944     30945     30944     30946
     30947     30948     30947     30949     30950     30951     30950     30952
     30953     30954     30953     30955     30956     30957     30956     30958
     30959     30960     30959     30961     30962     30963     30962     30964
     30965     30966     30965     30967     30968     30969     30968     30970
     30971     30972     30971     30973     30974     30975     30974     30976
     30977     30978     30977     30979     30980     30981     30980     30982
     30983     30984     30983     30985     30986     30987     30986     30988
     30989     30990     30989     30991     30992     30993     30992     30994
     30995     30996     30995     30997     30998     30999     30998     31000
     31001     31002     31001     31003     31004     31005     31004     31006
     31007     31008     31007     31009     31010     31011     31010     31012
     31013     31014     31013     31015     31016     31017     31016     31018
     31019     31020     31019     31021     31022     31023     31022     31024
     31025     31026     31025     31027     31028     31029     31028     31030
     31031     31032     31031     31033     31034     31035     31034     31036
     31037     31038     31037     31039     31040     31041     31040     31042
     31043     31044     31043     31045     31046     31047     31046     31048
     31049     31050     31049     31051     31052     31053     31052     31054
     31055     31056     31055     31057     31058     31059     31058     31060
     31061     31062     31061     31063     31064     31065     31064     31066
     31067     31068     31067     31069     31070     31071     31070     31072
     31073     31074     31073     31075     31076     31077     31076     31078
     31079     31080     31079     31081     31082     31083     31082     31084
     31085     31086     31085     31087     31088     31089     31088     31090
     31091     31092     31091     31093     31094     31095     31094     31096
     31097     31098     31097     31099     31100     31101     31100     31102
     31103     31104     31103     31105     31106     31107     31106     31108
     31109     31110     31109     31111     31112     31113     31112     31114
     31115     31116     31115     31117     31118     31119     31118     31120
     31121     31122     31121     31123     31124     31125     31124     31126
     31127     31128     31127     31129     31130     31131     31130     31132
     31133     31134     31133     31135     31136     31137     31136     31138
     31139     31140     31139     31141     31142     31143     31142     31144
     31145     31146     31145     31147     31148     31149     31148     31150
     31151     31152     31151     31153     31154     31155     31154     31156
     31157     31158     31157     31159     31160     31161     31160     31162
     31163     31164     31163     31165     31166     31167     31166     31168
     31169     31170     31169     31171     31172     31173     31172     31174
     31175     31176     31175     31177     31178     31179     31178     31180
     31181     31182     31181     31183     31184     31185     31184     31186
     31187     31188     31187     31189     31190     31191     31190     31192
     31193     31194     31193     31195     31196     31197     31196     31198
     31199     31200     31199     31201     31202     31203     31202     31204
     31205     31206     31205     31207     31208     31209     31208     31210
     31211     31212     31211     31213     31214     31215     31214     31216
     31217     31218     31217     31219     31220     31221     31220     31222
     31223     31224     31223     31225     31226     31227     31226     31228
     31229     31230     31229     31231     31232     31233     31232     31234
     31235     31236     31235     31237     31238     31239     31238     31240
     31241     31242     31241     31243     31244     31245     31244     31246
     31247     31248     31247     31249     31250     31251     31250     31252
     31253     31254     31253     31255     31256     31257     31256     31258
     31259     31260     31259     31261     31262     31263     31262     31264
     31265     31266     31265     31267     31268     31269     31268     31270
     31271     31272     31271     31273     31274     31275     31274     31276
     31277     31278     31277     31279     31280     31281     31280     31282
     31283     31284     31283     31285     31286     31287     31286     31288
     31289     31290     31289     31291     31292     31293     31292     31294
     31295     31296     31295     31297     31298     31299     31298     31300
     31301     31302     31301     31303     31304     31305     31304     31306
     31307     31308     31307     31309     31310     31311     31310     31312
     31313     31314     31313     31315     31316     31317     31316     31318
     31319     31320     31319     31321     31322     31323     31322     31324
     31325     31326     31325     31327     31328     31329     31328     31330
     31331     31332     31331     31333     31334     31335     31334     31336
     31337     31338     31337     31339     31340     31341     31340     31342
     31343     31344     31343     31345     31346     31347     31346     31348
     31349     31350     31349     31351     31352     31353     31352     31354
     31355     31356     31355     31357     31358     31359     31358     31360
     31361     31362     31361     31363     31364     31365     31364     31366
     31367     31368     31367     31369     31370     31371     31370     31372
     31373     31374     31373     31375     31376     31377     31376     31378
     31379     31380     31379     31381     31382     31383     31382     31384
     31385     31386     31385     31387     31388     31389     31388     31390
     31391     31392     31391     31393     31394     31395     31394     31396
     31397     31398     31397     31399     31400     31401     31400     31402
     31403     31404     31403     31405     31406     31407     31406     31408
     31409     31410     31409     31411     31412     31413     31412     31414
     31415     31416     31415     31417     31418     31419     31418     31420
     31421     31422     31421     31423     31424     31425     31424     31426
     31427     31428     31427     31429     31430     31431     31430     31432
     31433     31434     31433     31435     31436     31437     31436     31438
     31439     31440     31439     31441     31442     31443     31442     31444
     31445     31446     31445     31447     31448     31449     31448     31450
     31451     31452     31451     31453     31454     31455     31454     31456
     31457     31458     31457     31459     31460     31461     31460     31462
     31463     31464     31463     31465     31466     31467     31466     31468
     31469     31470     31469     31471     31472     31473     31472     31474
     31475     31476     31475     31477     31478     31479     31478     31480
     31481     31482     31481     31483     31484     31485     31484     31486
     31487     31488     31487     31489     31490     31491     31490     31492
     31493     31494     31493     31495     31496     31497     31496     31498
     31499     31500     31499     31501     31502     31503     31502     31504
     31505     31506     31505     31507     31508     31509     31508     31510
     31511     31512     31511     31513     31514     31515     31514     31516
     31517     31518     31517     31519     31520     31521     31520     31522
     31523     31524     31523     31525     31526     31527     31526     31528
     31529     31530     31529     31531     31532     31533     31532     31534
     31535     31536     31535     31537     31538     31539     31538     31540
     31541     31542     31541     31543     31544     31545     31544     31546
     31547     31548     31547     31549     31550     31551     31550     31552
     31553     31554     31553     31555     31556     31557     31556     31558
     31559     31560     31559     31561     31562     31563     31562     31564
     31565     31566     31565     31567     31568     31569     31568     31570
     31571     31572     31571     31573     31574     31575     31574     31576
     31577     31578     31577     31579     31580     31581     31580     31582
     31583     31584     31583     31585     31586     31587     31586     31588
     31589     31590     31589     31591     31592     31593     31592     31594
     31595     31596     31595     31597     31598     31599     31598     31600
     31601     31602     31601     31603     31604     31605     31604     31606
     31607     31608     31607     31609     31610     31611     31610     31612
     31613     31614     31613     31615     31616     31617     31616     31618
     31619     31620     31619     31621     31622     31623     31622     31624
     31625     31626     31625     31627     31628     31629     31628     31630
     31631     31632     31631     31633     31634     31635     31634     31636
     31637     31638     31637     31639     31640     31641     31640     31642
     31643     31644     31643     31645     31646     31647     31646     31648
     31649     31650     31649     31651     31652     31653     31652     31654
     31655     31656     31655     31657     31658     31659     31658     31660
     31661     31662     31661     31663     31664     31665     31664     31666
     31667     31668     31667     31669     31670     31671     31670     31672
     31673     31674     31673     31675     31676     31677     31676     31678
     31679     31680     31679     31681     31682     31683     31682     31684
     31685     31686     31685     31687     31688     31689     31688     31690
     31691     31692     31691     31693     31694     31695     31694     31696
     31697     31698     31697     31699     31700     31701     31700     31702
     31703     31704     31703     31705     31706     31707     31706     31708
     31709     31710     31709     31711     31712     31713     31712     31714
     31715     31716     31715     31717     31718     31719     31718     31720
     31721     31722     31721     31723     31724     31725     31724     31726
     31727     31728     31727     31729     31730     31731     31730     31732
     31733     31734     31733     31735     31736     31737     31736     31738
     31739     31740     31739     31741     31742     31743     31742     31744
     31745     31746     31745     31747     31748     31749     31748     31750
     31751     31752     31751     31753     31754     31755     31754     31756
     31757     31758     31757     31759     31760     31761     31760     31762
     31763     31764     31763     31765     31766     31767     31766     31768
     31769     31770     31769     31771     31772     31773     31772     31774
     31775     31776     31775     31777     31778     31779     31778     31780
     31781     31782     31781     31783     31784     31785     31784     31786
     31787     31788     31787     31789     31790     31791     31790     31792
     31793     31794     31793     31795     31796     31797     31796     31798
     31799     31800     31799     31801     31802     31803     31802     31804
     31805     31806     31805     31807     31808     31809     31808     31810
     31811     31812     31811     31813     31814     31815     31814     31816
     31817     31818     31817     31819     31820     31821     31820     31822
     31823     31824     31823     31825     31826     31827     31826     31828
     31829     31830     31829     31831     31832     31833     31832     31834
     31835     31836     31835     31837     31838     31839     31838     31840
     31841     31842     31841     31843     31844     31845     31844     31846
     31847     31848     31847     31849     31850     31851     31850     31852
     31853     31854     31853     31855     31856     31857     31856     31858
     31859     31860     31859     31861     31862     31863     31862     31864
     31865     31866     31865     31867     31868     31869     31868     31870
     31871     31872     31871     31873     31874     31875     31874     31876
     31877     31878     31877     31879     31880     31881     31880     31882
     31883     31884     31883     31885     31886     31887     31886     31888
     31889     31890     31889     31891     31892     31893     31892     31894
     31895     31896     31895     31897     31898     31899     31898     31900
     31901     31902     31901     31903     31904     31905     31904     31906
     31907     31908     31907     31909     31910     31911     31910     31912
     31913     31914     31913     31915     31916     31917     31916     31918
     31919     31920     31919     31921     31922     31923     31922     31924
     31925     31926     31925     31927     31928     31929     31928     31930
     31931     31932     31931     31933     31934     31935     31934     31936
     31937     31938     31937     31939     31940     31941     31940     31942
     31943     31944     31943     31945     31946     31947     31946     31948
     31949     31950     31949     31951     31952     31953     31952     31954
     31955     31956     31955     31957     31958     31959     31958     31960
     31961     31962     31961     31963     31964     31965     31964     31966
     31967     31968     31967     31969     31970     31971     31970     31972
     31973     31974     31973     31975     31976     31977     31976     31978
     31979     31980     31979     31981     31982     31983     31982     31984
     31985     31986     31985     31987     31988     31989     31988     31990
     31991     31992     31991     31993     31994     31995     31994     31996
     31997     31998     31997     31999     32000     32001     32000     32002
     32003     32004     32003     32005     32006     32007     32006     32008
     32009     32010     32009     32011     32012     32013     32012     32014
     32015     32016     32015     32017     32018     32019     32018     32020
     32021     32022     32021     32023     32024     32025     32024     32026
     32027     32028     32027     32029     32030     32031     32030     32032
     32033     32034     32033     32035     32036     32037     32036     32038
     32039     32040     32039     32041     32042     32043     32042     32044
     32045     32046     32045     32047     32048     32049     32048     32050
     32051     32052     32051     32053     32054     32055     32054     32056
     32057     32058     32057     32059     32060     32061     32060     32062
     32063     32064     32063     32065     32066     32067     32066     32068
     32069     32070     32069     32071     32072     32073     32072     32074
     32075     32076     32075     32077     32078     32079     32078     32080
     32081     32082     32081     32083     32084     32085     32084     32086
     32087     32088     32087     32089     32090     32091     32090     32092
     32093     32094     32093     32095     32096     32097     32096     32098
     32099     32100     32099     32101     32102     32103     32102     32104
     32105     32106     32105     32107     32108     32109     32108     32110
     32111     32112     32111     32113     32114     32115     32114     32116
     32117     32118     32117     32119     32120     32121     32120     32122
     32123     32124     32123     32125     32126     32127     32126     32128
     32129     32130     32129     32131     32132     32133     32132     32134
     32135     32136     32135     32137     32138     32139     32138     32140
     32141     32142     32141     32143     32144     32145     32144     32146
     32147     32148     32147     32149     32150     32151     32150     32152
     32153     32154     32153     32155     32156     32157     32156     32158
     32159     32160     32159     32161     32162     32163     32162     32164
     32165     32166     32165     32167     32168     32169     32168     32170
     32171     32172     32171     32173     32174     32175     32174     32176
     32177     32178     32177     32179     32180     32181     32180     32182
     32183     32184     32183     32185     32186     32187     32186     32188
     32189     32190     32189     32191     32192     32193     32192     32194
     32195     32196     32195     32197     32198     32199     32198     32200
     32201     32202     32201     32203     32204     32205     32204     32206
     32207     32208     32207     32209     32210     32211     32210     32212
     32213     32214     32213     32215     32216     32217     32216     32218
     32219     32220     32219     32221     32222     32223     32222     32224
     32225     32226     32225     32227     32228     32229     32228     32230
     32231     32232     32231     32233     32234     32235     32234     32236
     32237     32238     32237     32239     32240     32241     32240     32242
     32243     32244     32243     32245     32246     32247     32246     32248
     32249     32250     32249     32251     32252     32253     32252     32254
     32255     32256     32255     32257     32258     32259     32258     32260
     32261     32262     32261     32263     32264     32265     32264     32266
     32267     32268     32267     32269     32270     32271     32270     32272
     32273     32274     32273     32275     32276     32277     32276     32278
     32279     32280     32279     32281     32282     32283     32282     32284
     32285     32286     32285     32287     32288     32289     32288     32290
     32291     32292     32291     32293     32294     32295     32294     32296
     32297     32298     32297     32299     32300     32301     32300     32302
     32303     32304     32303     32305     32306     32307     32306     32308
     32309     32310     32309     32311     32312     32313     32312     32314
     32315     32316     32315     32317     32318     32319     32318     32320
     32321     32322     32321     32323     32324     32325     32324     32326
     32327     32328     32327     32329     32330     32331     32330     32332
     32333     32334     32333     32335     32336     32337     32336     32338
     32339     32340     32339     32341     32342     32343     32342     32344
     32345     32346     32345     32347     32348     32349     32348     32350
     32351     32352     32351     32353     32354     32355     32354     32356
     32357     32358     32357     32359     32360     32361     32360     32362
     32363     32364     32363     32365     32366     32367     32366     32368
     32369     32370     32369     32371     32372     32373     32372     32374
     32375     32376     32375     32377     32378     32379     32378     32380
     32381     32382     32381     32383     32384     32385     32384     32386
     32387     32388     32387     32389     32390     32391     32390     32392
     32393     32394     32393     32395     32396     32397     32396     32398
     32399     32400     32399     32401     32402     32403     32402     32404
     32405     32406     32405     32407     32408     32409     32408     32410
     32411     32412     32411     32413     32414     32415     32414     32416
     32417     32418     32417     32419     32420     32421     32420     32422
     32423     32424     32423     32425     32426     32427     32426     32428
     32429     32430     32429     32431     32432     32433     32432     32434
     32435     32436     32435     32437     32438     32439     32438     32440
     32441     32442     32441     32443     32444     32445     32444     32446
     32447     32448     32447     32449     32450     32451     32450     32452
     32453     32454     32453     32455     32456     32457     32456     32458
     32459     32460     32459     32461     32462     32463     32462     32464
     32465     32466     32465     32467     32468     32469     32468     32470
     32471     32472     32471     32473     32474     32475     32474     32476
     32477     32478     32477     32479     32480     32481     32480     32482
     32483     32484     32483     32485     32486     32487     32486     32488
     32489     32490     32489     32491     32492     32493     32492     32494
     32495     32496     32495     32497     32498     32499     32498     32500
     32501     32502     32501     32503     32504     32505     32504     32506
     32507     32508     32507     32509     32510     32511     32510     32512
     32513     32514     32513     32515     32516     32517     32516     32518
     32519     32520     32519     32521     32522     32523     32522     32524
     32525     32526     32525     32527     32528     32529     32528     32530
     32531     32532     32531     32533     32534     32535     32534     32536
     32537     32538     32537     32539     32540     32541     32540     32542
     32543     32544     32543     32545     32546     32547     32546     32548
     32549     32550     32549     32551     32552     32553     32552     32554
     32555     32556     32555     32557     32558     32559     32558     32560
     32561     32562     32561     32563     32564     32565     32564     32566
     32567     32568     32567     32569     32570     32571     32570     32572
     32573     32574     32573     32575     32576     32577     32576     32578
     32579     32580     32579     32581     32582     32583     32582     32584
     32585     32586     32585     32587     32588     32589     32588     32590
     32591     32592     32591     32593     32594     32595     32594     32596
     32597     32598     32597     32599     32600     32601     32600     32602
     32603     32604     32603     32605     32606     32607     32606     32608
     32609     32610     32609     32611     32612     32613     32612     32614
     32615     32616     32615     32617     32618     32619     32618     32620
     32621     32622     32621     32623     32624     32625     32624     32626
     32627     32628     32627     32629     32630     32631     32630     32632
     32633     32634     32633     32635     32636     32637     32636     32638
     32639     32640     32639     32641     32642     32643     32642     32644
     32645     32646     32645     32647     32648     32649     32648     32650
     32651     32652     32651     32653     32654     32655     32654     32656
     32657     32658     32657     32659     32660     32661     32660     32662
     32663     32664     32663     32665     32666     32667     32666     32668
     32669     32670     32669     32671     32672     32673     32672     32674
     32675     32676     32675     32677     32678     32679     32678     32680
     32681     32682     32681     32683     32684     32685     32684     32686
     32687     32688     32687     32689     32690     32691     32690     32692
     32693     32694     32693     32695     32696     32697     32696     32698
     32699     32700     32699     32701     32702     32703     32702     32704
     32705     32706     32705     32707     32708     32709     32708     32710
     32711     32712     32711     32713     32714     32715     32714     32716
     32717     32718     32717     32719     32720     32721     32720     32722
     32723     32724     32723     32725     32726     32727     32726     32728
     32729     32730     32729     32731     32732     32733     32732     32734
     32735     32736     32735     32737     32738     32739     32738     32740
     32741     32742     32741     32743     32744     32745     32744     32746
     32747     32748     32747     32749     32750     32751     32750     32752
     32753     32754     32753     32755     32756     32757     32756     32758
     32759     32760     32759     32761     32762     32763     32762     32764
     32765     32766     32765     32767     32768     32769     32768     32770
     32771     32772     32771     32773     32774     32775     32774     32776
     32777     32778     32777     32779     32780     32781     32780     32782
     32783     32784     32783     32785     32786     32787     32786     32788
     32789     32790     32789     32791     32792     32793     32792     32794
     32795     32796     32795     32797     32798     32799     32798     32800
     32801     32802     32801     32803     32804     32805     32804     32806
     32807     32808     32807     32809     32810     32811     32810     32812
     32813     32814     32813     32815     32816     32817     32816     32818
     32819     32820     32819     32821     32822     32823     32822     32824
     32825     32826     32825     32827     32828     32829     32828     32830
     32831     32832     32831     32833     32834     32835     32834     32836
     32837     32838     32837     32839     32840     32841     32840     32842
     32843     32844     32843     32845     32846     32847     32846     32848
     32849     32850     32849     32851     32852     32853     32852     32854
     32855     32856     32855     32857     32858     32859     32858     32860
     32861     32862     32861     32863     32864     32865     32864     32866
     32867     32868     32867     32869     32870     32871     32870     32872
     32873     32874     32873     32875     32876     32877     32876     32878
     32879     32880     32879     32881     32882     32883     32882     32884
     32885     32886     32885     32887     32888     32889     32888     32890
     32891     32892     32891     32893     32894     32895     32894     32896
     32897     32898     32897     32899     32900     32901     32900     32902
     32903     32904     32903     32905     32906     32907     32906     32908
     32909     32910     32909     32911     32912     32913     32912     32914
     32915     32916     32915     32917     32918     32919     32918     32920
     32921     32922     32921     32923     32924     32925     32924     32926
     32927     32928     32927     32929     32930     32931     32930     32932
     32933     32934     32933     32935     32936     32937     32936     32938
     32939     32940     32939     32941     32942     32943     32942     32944
     32945     32946     32945     32947     32948     32949     32948     32950
     32951     32952     32951     32953     32954     32955     32954     32956
     32957     32958     32957     32959     32960     32961     32960     32962
     32963     32964     32963     32965     32966     32967     32966     32968
     32969     32970     32969     32971     32972     32973     32972     32974
     32975     32976     32975     32977     32978     32979     32978     32980
     32981     32982     32981     32983     32984     32985     32984     32986
     32987     32988     32987     32989     32990     32991     32990     32992
     32993     32994     32993     32995     32996     32997     32996     32998
     32999     33000     32999     33001     33002     33003     33002     33004
     33005     33006     33005     33007     33008     33009     33008     33010
     33011     33012     33011     33013     33014     33015     33014     33016
     33017     33018     33017     33019     33020     33021     33020     33022
     33023     33024     33023     33025     33026     33027     33026     33028
     33029     33030     33029     33031     33032     33033     33032     33034
     33035     33036     33035     33037     33038     33039     33038     33040
     33041     33042     33041     33043     33044     33045     33044     33046
     33047     33048     33047     33049     33050     33051     33050     33052
     33053     33054     33053     33055     33056     33057     33056     33058
     33059     33060     33059     33061     33062     33063     33062     33064
     33065     33066     33065     33067     33068     33069     33068     33070
     33071     33072     33071     33073     33074     33075     33074     33076
     33077     33078     33077     33079     33080     33081     33080     33082
     33083     33084     33083     33085     33086     33087     33086     33088
     33089     33090     33089     33091     33092     33093     33092     33094
     33095     33096     33095     33097     33098     33099     33098     33100
     33101     33102     33101     33103     33104     33105     33104     33106
     33107     33108     33107     33109     33110     33111     33110     33112
     33113     33114     33113     33115     33116     33117     33116     33118
     33119     33120     33119     33121     33122     33123     33122     33124
     33125     33126     33125     33127     33128     33129     33128     33130
     33131     33132     33131     33133     33134     33135     33134     33136
     33137     33138     33137     33139     33140     33141     33140     33142
     33143     33144     33143     33145     33146     33147     33146     33148
     33149     33150     33149     33151     33152     33153     33152     33154
     33155     33156     33155     33157     33158     33159     33158     33160
     33161     33162     33161     33163     33164     33165     33164     33166
     33167     33168     33167     33169     33170     33171     33170     33172
     33173     33174     33173     33175     33176     33177     33176     33178
     33179     33180     33179     33181     33182     33183     33182     33184
     33185     33186     33185     33187     33188     33189     33188     33190
     33191     33192     33191     33193     33194     33195     33194     33196
     33197     33198     33197     33199     33200     33201     33200     33202
     33203     33204     33203     33205     33206     33207     33206     33208
     33209     33210     33209     33211     33212     33213     33212     33214
     33215     33216     33215     33217     33218     33219     33218     33220
     33221     33222     33221     33223     33224     33225     33224     33226
     33227     33228     33227     33229     33230     33231     33230     33232
     33233     33234     33233     33235     33236     33237     33236     33238
     33239     33240     33239     33241     33242     33243     33242     33244
     33245     33246     33245     33247     33248     33249     33248     33250
     33251     33252     33251     33253     33254     33255     33254     33256
     33257     33258     33257     33259     33260     33261     33260     33262
     33263     33264     33263     33265     33266     33267     33266     33268
     33269     33270     33269     33271     33272     33273     33272     33274
     33275     33276     33275     33277     33278     33279     33278     33280
     33281     33282     33281     33283     33284     33285     33284     33286
     33287     33288     33287     33289     33290     33291     33290     33292
     33293     33294     33293     33295     33296     33297     33296     33298
     33299     33300     33299     33301     33302     33303     33302     33304
     33305     33306     33305     33307     33308     33309     33308     33310
     33311     33312     33311     33313     33314     33315     33314     33316
     33317     33318     33317     33319     33320     33321     33320     33322
     33323     33324     33323     33325     33326     33327     33326     33328
     33329     33330     33329     33331     33332     33333     33332     33334
     33335     33336     33335     33337     33338     33339     33338     33340
     33341     33342     33341     33343     33344     33345     33344     33346
     33347     33348     33347     33349     33350     33351     33350     33352
     33353     33354     33353     33355     33356     33357     33356     33358
     33359     33360     33359     33361     33362     33363     33362     33364
     33365     33366     33365     33367     33368     33369     33368     33370
     33371     33372     33371     33373     33374     33375     33374     33376
     33377     33378     33377     33379     33380     33381     33380     33382
     33383     33384     33383     33385     33386     33387     33386     33388
     33389     33390     33389     33391     33392     33393     33392     33394
     33395     33396     33395     33397     33398     33399     33398     33400
     33401     33402     33401     33403     33404     33405     33404     33406
     33407     33408     33407     33409     33410     33411     33410     33412
     33413     33414     33413     33415     33416     33417     33416     33418
     33419     33420     33419     33421     33422     33423     33422     33424
     33425     33426     33425     33427     33428     33429     33428     33430
     33431     33432     33431     33433     33434     33435     33434     33436
     33437     33438     33437     33439     33440     33441     33440     33442
     33443     33444     33443     33445     33446     33447     33446     33448
     33449     33450     33449     33451     33452     33453     33452     33454
     33455     33456     33455     33457     33458     33459     33458     33460
     33461     33462     33461     33463     33464     33465     33464     33466
     33467     33468     33467     33469     33470     33471     33470     33472
     33473     33474     33473     33475     33476     33477     33476     33478
     33479     33480     33479     33481     33482     33483     33482     33484
     33485     33486     33485     33487     33488     33489     33488     33490
     33491     33492     33491     33493     33494     33495     33494     33496
     33497     33498     33497     33499     33500     33501     33500     33502
     33503     33504     33503     33505     33506     33507     33506     33508
     33509     33510     33509     33511     33512     33513     33512     33514
     33515     33516     33515     33517     33518     33519     33518     33520
     33521     33522     33521     33523     33524     33525     33524     33526
     33527     33528     33527     33529     33530     33531     33530     33532
     33533     33534     33533     33535     33536     33537     33536     33538
     33539     33540     33539     33541     33542     33543     33542     33544
     33545     33546     33545     33547     33548     33549     33548     33550
     33551     33552     33551     33553     33554     33555     33554     33556
     33557     33558     33557     33559     33560     33561     33560     33562
     33563     33564     33563     33565     33566     33567     33566     33568
     33569     33570     33569     33571     33572     33573     33572     33574
     33575     33576     33575     33577     33578     33579     33578     33580
     33581     33582     33581     33583     33584     33585     33584     33586
     33587     33588     33587     33589     33590     33591     33590     33592
     33593     33594     33593     33595     33596     33597     33596     33598
     33599     33600     33599     33601     33602     33603     33602     33604
     33605     33606     33605     33607     33608     33609     33608     33610
     33611     33612     33611     33613     33614     33615     33614     33616
     33617     33618     33617     33619     33620     33621     33620     33622
     33623     33624     33623     33625     33626     33627     33626     33628
     33629     33630     33629     33631     33632     33633     33632     33634
     33635     33636     33635     33637     33638     33639     33638     33640
     33641     33642     33641     33643     33644     33645     33644     33646
     33647     33648     33647     33649     33650     33651     33650     33652
     33653     33654     33653     33655     33656     33657     33656     33658
     33659     33660     33659     33661     33662     33663     33662     33664
     33665     33666     33665     33667     33668     33669     33668     33670
     33671     33672     33671     33673     33674     33675     33674     33676
     33677     33678     33677     33679     33680     33681     33680     33682
     33683     33684     33683     33685     33686     33687     33686     33688
     33689     33690     33689     33691     33692     33693     33692     33694
     33695     33696     33695     33697     33698     33699     33698     33700
     33701     33702     33701     33703     33704     33705     33704     33706
     33707     33708     33707     33709     33710     33711     33710     33712
     33713     33714     33713     33715     33716     33717     33716     33718
     33719     33720     33719     33721     33722     33723     33722     33724
     33725     33726     33725     33727     33728     33729     33728     33730
     33731     33732     33731     33733     33734     33735     33734     33736
     33737     33738     33737     33739     33740     33741     33740     33742
     33743     33744     33743     33745     33746     33747     33746     33748
     33749     33750     33749     33751     33752     33753     33752     33754
     33755     33756     33755     33757     33758     33759     33758     33760
     33761     33762     33761     33763     33764     33765     33764     33766
     33767     33768     33767     33769     33770     33771     33770     33772
     33773     33774     33773     33775     33776     33777     33776     33778
     33779     33780     33779     33781     33782     33783     33782     33784
     33785     33786     33785     33787     33788     33789     33788     33790
     33791     33792     33791     33793     33794     33795     33794     33796
     33797     33798     33797     33799     33800     33801     33800     33802
     33803     33804     33803     33805     33806     33807     33806     33808
     33809     33810     33809     33811     33812     33813     33812     33814
     33815     33816     33815     33817     33818     33819     33818     33820
     33821     33822     33821     33823     33824     33825     33824     33826
     33827     33828     33827     33829     33830     33831     33830     33832
     33833     33834     33833     33835     33836     33837     33836     33838
     33839     33840     33839     33841     33842     33843     33842     33844
     33845     33846     33845     33847     33848     33849     33848     33850
     33851     33852     33851     33853     33854     33855     33854     33856
     33857     33858     33857     33859     33860     33861     33860     33862
     33863     33864     33863     33865     33866     33867     33866     33868
     33869     33870     33869     33871     33872     33873     33872     33874
     33875     33876     33875     33877     33878     33879     33878     33880
     33881     33882     33881     33883     33884     33885     33884     33886
     33887     33888     33887     33889     33890     33891     33890     33892
     33893     33894     33893     33895     33896     33897     33896     33898
     33899     33900     33899     33901     33902     33903     33902     33904
     33905     33906     33905     33907     33908     33909     33908     33910
     33911     33912     33911     33913     33914     33915     33914     33916
     33917     33918     33917     33919     33920     33921     33920     33922
     33923     33924     33923     33925     33926     33927     33926     33928
     33929     33930     33929     33931     33932     33933     33932     33934
     33935     33936     33935     33937     33938     33939     33938     33940
     33941     33942     33941     33943     33944     33945     33944     33946
     33947     33948     33947     33949     33950     33951     33950     33952
     33953     33954     33953     33955     33956     33957     33956     33958
     33959     33960     33959     33961     33962     33963     33962     33964
     33965     33966     33965     33967     33968     33969     33968     33970
     33971     33972     33971     33973     33974     33975     33974     33976
     33977     33978     33977     33979     33980     33981     33980     33982
     33983     33984     33983     33985     33986     33987     33986     33988
     33989     33990     33989     33991     33992     33993     33992     33994
     33995     33996     33995     33997     33998     33999     33998     34000
     34001     34002     34001     34003     34004     34005     34004     34006
     34007     34008     34007     34009     34010     34011     34010     34012
     34013     34014     34013     34015     34016     34017     34016     34018
     34019     34020     34019     34021     34022     34023     34022     34024
     34025     34026     34025     34027     34028     34029     34028     34030
     34031     34032     34031     34033     34034     34035     34034     34036
     34037     34038     34037     34039     34040     34041     34040     34042
     34043     34044     34043     34045     34046     34047     34046     34048
     34049     34050     34049     34051     34052     34053     34052     34054
     34055     34056     34055     34057     34058     34059     34058     34060
     34061     34062     34061     34063     34064     34065     34064     34066
     34067     34068     34067     34069     34070     34071     34070     34072
     34073     34074     34073     34075     34076     34077     34076     34078
     34079     34080     34079     34081     34082     34083     34082     34084
     34085     34086     34085     34087     34088     34089     34088     34090
     34091     34092     34091     34093     34094     34095     34094     34096
     34097     34098     34097     34099     34100     34101     34100     34102
     34103     34104     34103     34105     34106     34107     34106     34108
     34109     34110     34109     34111     34112     34113     34112     34114
     34115     34116     34115     34117     34118     34119     34118     34120
     34121     34122     34121     34123     34124     34125     34124     34126
     34127     34128     34127     34129     34130     34131     34130     34132
     34133     34134     34133     34135     34136     34137     34136     34138
     34139     34140     34139     34141     34142     34143     34142     34144
     34145     34146     34145     34147     34148     34149     34148     34150
     34151     34152     34151     34153     34154     34155     34154     34156
     34157     34158     34157     34159     34160     34161     34160     34162
     34163     34164     34163     34165     34166     34167     34166     34168
     34169     34170     34169     34171     34172     34173     34172     34174
     34175     34176     34175     34177     34178     34179     34178     34180
     34181     34182     34181     34183     34184     34185     34184     34186
     34187     34188     34187     34189     34190     34191     34190     34192
     34193     34194     34193     34195     34196     34197     34196     34198
     34199     34200     34199     34201     34202     34203     34202     34204
     34205     34206     34205     34207     34208     34209     34208     34210
     34211     34212     34211     34213     34214     34215     34214     34216
     34217     34218     34217     34219     34220     34221     34220     34222
     34223     34224     34223     34225     34226     34227     34226     34228
     34229     34230     34229     34231     34232     34233     34232     34234
     34235     34236     34235     34237     34238     34239     34238     34240
     34241     34242     34241     34243     34244     34245     34244     34246
     34247     34248     34247     34249     34250     34251     34250     34252
     34253     34254     34253     34255     34256     34257     34256     34258
     34259     34260     34259     34261     34262     34263     34262     34264
     34265     34266     34265     34267     34268     34269     34268     34270
     34271     34272     34271     34273     34274     34275     34274     34276
     34277     34278     34277     34279     34280     34281     34280     34282
     34283     34284     34283     34285     34286     34287     34286     34288
     34289     34290     34289     34291     34292     34293     34292     34294
     34295     34296     34295     34297     34298     34299     34298     34300
     34301     34302     34301     34303     34304     34305     34304     34306
     34307     34308     34307     34309     34310     34311     34310     34312
     34313     34314     34313     34315     34316     34317     34316     34318
     34319     34320     34319     34321     34322     34323     34322     34324
     34325     34326     34325     34327     34328     34329     34328     34330
     34331     34332     34331     34333     34334     34335     34334     34336
     34337     34338     34337     34339     34340     34341     34340     34342
     34343     34344     34343     34345     34346     34347     34346     34348
     34349     34350     34349     34351     34352     34353     34352     34354
     34355     34356     34355     34357     34358     34359     34358     34360
     34361     34362     34361     34363     34364     34365     34364     34366
     34367     34368     34367     34369     34370     34371     34370     34372
     34373     34374     34373     34375     34376     34377     34376     34378
     34379     34380     34379     34381     34382     34383     34382     34384
     34385     34386     34385     34387     34388     34389     34388     34390
     34391     34392     34391     34393     34394     34395     34394     34396
     34397     34398     34397     34399     34400     34401     34400     34402
     34403     34404     34403     34405     34406     34407     34406     34408
     34409     34410     34409     34411     34412     34413     34412     34414
     34415     34416     34415     34417     34418     34419     34418     34420
     34421     34422     34421     34423     34424     34425     34424     34426
     34427     34428     34427     34429     34430     34431     34430     34432
     34433     34434     34433     34435     34436     34437     34436     34438
     34439     34440     34439     34441     34442     34443     34442     34444
     34445     34446     34445     34447     34448     34449     34448     34450
     34451     34452     34451     34453     34454     34455     34454     34456
     34457     34458     34457     34459     34460     34461     34460     34462
     34463     34464     34463     34465     34466     34467     34466     34468
     34469     34470     34469     34471     34472     34473     34472     34474
     34475     34476     34475     34477     34478     34479     34478     34480
     34481     34482     34481     34483     34484     34485     34484     34486
     34487     34488     34487     34489     34490     34491     34490     34492
     34493     34494     34493     34495     34496     34497     34496     34498
     34499     34500     34499     34501     34502     34503     34502     34504
     34505     34506     34505     34507     34508     34509     34508     34510
     34511     34512     34511     34513     34514     34515     34514     34516
     34517     34518     34517     34519     34520     34521     34520     34522
     34523     34524     34523     34525     34526     34527     34526     34528
     34529     34530     34529     34531     34532     34533     34532     34534
     34535     34536     34535     34537     34538     34539     34538     34540
     34541     34542     34541     34543     34544     34545     34544     34546
     34547     34548     34547     34549     34550     34551     34550     34552
     34553     34554     34553     34555     34556     34557     34556     34558
     34559     34560     34559     34561     34562     34563     34562     34564
     34565     34566     34565     34567     34568     34569     34568     34570
     34571     34572     34571     34573     34574     34575     34574     34576
     34577     34578     34577     34579     34580     34581     34580     34582
     34583     34584     34583     34585     34586     34587     34586     34588
     34589     34590     34589     34591     34592     34593     34592     34594
     34595     34596     34595     34597     34598     34599     34598     34600
     34601     34602     34601     34603     34604     34605     34604     34606
     34607     34608     34607     34609     34610     34611     34610     34612
     34613     34614     34613     34615     34616     34617     34616     34618
     34619     34620     34619     34621     34622     34623     34622     34624
     34625     34626     34625     34627     34628     34629     34628     34630
     34631     34632     34631     34633     34634     34635     34634     34636
     34637     34638     34637     34639     34640     34641     34640     34642
     34643     34644     34643     34645     34646     34647     34646     34648
     34649     34650     34649     34651     34652     34653     34652     34654
     34655     34656     34655     34657     34658     34659     34658     34660
     34661     34662     34661     34663     34664     34665     34664     34666
     34667     34668     34667     34669     34670     34671     34670     34672
     34673     34674     34673     34675     34676     34677     34676     34678
     34679     34680     34679     34681     34682     34683     34682     34684
     34685     34686     34685     34687     34688     34689     34688     34690
     34691     34692     34691     34693     34694     34695     34694     34696
     34697     34698     34697     34699     34700     34701     34700     34702
     34703     34704     34703     34705     34706     34707     34706     34708
     34709     34710     34709     34711     34712     34713     34712     34714
     34715     34716     34715     34717     34718     34719     34718     34720
     34721     34722     34721     34723     34724     34725     34724     34726
     34727     34728     34727     34729     34730     34731     34730     34732
     34733     34734     34733     34735     34736     34737     34736     34738
     34739     34740     34739     34741     34742     34743     34742     34744
     34745     34746     34745     34747     34748     34749     34748     34750
     34751     34752     34751     34753     34754     34755     34754     34756
     34757     34758     34757     34759     34760     34761     34760     34762
     34763     34764     34763     34765     34766     34767     34766     34768
     34769     34770     34769     34771     34772     34773     34772     34774
     34775     34776     34775     34777     34778     34779     34778     34780
     34781     34782     34781     34783     34784     34785     34784     34786
     34787     34788     34787     34789     34790     34791     34790     34792
     34793     34794     34793     34795     34796     34797     34796     34798
     34799     34800     34799     34801     34802     34803     34802     34804
     34805     34806     34805     34807     34808     34809     34808     34810
     34811     34812     34811     34813     34814     34815     34814     34816
     34817     34818     34817     34819     34820     34821     34820     34822
     34823     34824     34823     34825     34826     34827     34826     34828
     34829     34830     34829     34831     34832     34833     34832     34834
     34835     34836     34835     34837     34838     34839     34838     34840
     34841     34842     34841     34843     34844     34845     34844     34846
     34847     34848     34847     34849     34850     34851     34850     34852
     34853     34854     34853     34855     34856     34857     34856     34858
     34859     34860     34859     34861     34862     34863     34862     34864
     34865     34866     34865     34867     34868     34869     34868     34870
     34871     34872     34871     34873     34874     34875     34874     34876
     34877     34878     34877     34879     34880     34881     34880     34882
     34883     34884     34883     34885     34886     34887     34886     34888
     34889     34890     34889     34891     34892     34893     34892     34894
     34895     34896     34895     34897     34898     34899     34898     34900
     34901     34902     34901     34903     34904     34905     34904     34906
     34907     34908     34907     34909     34910     34911     34910     34912
     34913     34914     34913     34915     34916     34917     34916     34918
     34919     34920     34919     34921     34922     34923     34922     34924
     34925     34926     34925     34927     34928     34929     34928     34930
     34931     34932     34931     34933     34934     34935     34934     34936
     34937     34938     34937     34939     34940     34941     34940     34942
     34943     34944     34943     34945     34946     34947     34946     34948
     34949     34950     34949     34951     34952     34953     34952     34954
     34955     34956     34955     34957     34958     34959     34958     34960
     34961     34962     34961     34963     34964     34965     34964     34966
     34967     34968     34967     34969     34970     34971     34970     34972
     34973     34974     34973     34975     34976     34977     34976     34978
     34979     34980     34979     34981     34982     34983     34982     34984
     34985     34986     34985     34987     34988     34989     34988     34990
     34991     34992     34991     34993     34994     34995     34994     34996
     34997     34998     34997     34999     35000     35001     35000     35002
     35003     35004     35003     35005     35006     35007     35006     35008
     35009     35010     35009     35011     35012     35013     35012     35014
     35015     35016     35015     35017     35018     35019     35018     35020
     35021     35022     35021     35023     35024     35025     35024     35026
     35027     35028     35027     35029     35030     35031     35030     35032
     35033     35034     35033     35035     35036     35037     35036     35038
     35039     35040     35039     35041     35042     35043     35042     35044
     35045     35046     35045     35047     35048     35049     35048     35050
     35051     35052     35051     35053     35054     35055     35054     35056
     35057     35058     35057     35059     35060     35061     35060     35062
     35063     35064     35063     35065     35066     35067     35066     35068
     35069     35070     35069     35071     35072     35073     35072     35074
     35075     35076     35075     35077     35078     35079     35078     35080
     35081     35082     35081     35083     35084     35085     35084     35086
     35087     35088     35087     35089     35090     35091     35090     35092
     35093     35094     35093     35095     35096     35097     35096     35098
     35099     35100     35099     35101     35102     35103     35102     35104
     35105     35106     35105     35107     35108     35109     35108     35110
     35111     35112     35111     35113     35114     35115     35114     35116
     35117     35118     35117     35119     35120     35121     35120     35122
     35123     35124     35123     35125     35126     35127     35126     35128
     35129     35130     35129     35131     35132     35133     35132     35134
     35135     35136     35135     35137     35138     35139     35138     35140
     35141     35142     35141     35143     35144     35145     35144     35146
     35147     35148     35147     35149     35150     35151     35150     35152
     35153     35154     35153     35155     35156     35157     35156     35158
     35159     35160     35159     35161     35162     35163     35162     35164
     35165     35166     35165     35167     35168     35169     35168     35170
     35171     35172     35171     35173     35174     35175     35174     35176
     35177     35178     35177     35179     35180     35181     35180     35182
     35183     35184     35183     35185     35186     35187     35186     35188
     35189     35190     35189     35191     35192     35193     35192     35194
     35195     35196     35195     35197     35198     35199     35198     35200
     35201     35202     35201     35203     35204     35205     35204     35206
     35207     35208     35207     35209     35210     35211     35210     35212
     35213     35214     35213     35215     35216     35217     35216     35218
     35219     35220     35219     35221     35222     35223     35222     35224
     35225     35226     35225     35227     35228     35229     35228     35230
     35231     35232     35231     35233     35234     35235     35234     35236
     35237     35238     35237     35239     35240     35241     35240     35242
     35243     35244     35243     35245     35246     35247     35246     35248
     35249     35250     35249     35251     35252     35253     35252     35254
     35255     35256     35255     35257     35258     35259     35258     35260
     35261     35262     35261     35263     35264     35265     35264     35266
     35267     35268     35267     35269     35270     35271     35270     35272
     35273     35274     35273     35275     35276     35277     35276     35278
     35279     35280     35279     35281     35282     35283     35282     35284
     35285     35286     35285     35287     35288     35289     35288     35290
     35291     35292     35291     35293     35294     35295     35294     35296
     35297     35298     35297     35299     35300     35301     35300     35302
     35303     35304     35303     35305     35306     35307     35306     35308
     35309     35310     35309     35311     35312     35313     35312     35314
     35315     35316     35315     35317     35318     35319     35318     35320
     35321     35322     35321     35323     35324     35325     35324     35326
     35327     35328     35327     35329     35330     35331     35330     35332
     35333     35334     35333     35335     35336     35337     35336     35338
     35339     35340     35339     35341     35342     35343     35342     35344
     35345     35346     35345     35347     35348     35349     35348     35350
     35351     35352     35351     35353     35354     35355     35354     35356
     35357     35358     35357     35359     35360     35361     35360     35362
     35363     35364     35363     35365     35366     35367     35366     35368
     35369     35370     35369     35371     35372     35373     35372     35374
     35375     35376     35375     35377     35378     35379     35378     35380
     35381     35382     35381     35383     35384     35385     35384     35386
     35387     35388     35387     35389     35390     35391     35390     35392
     35393     35394     35393     35395     35396     35397     35396     35398
     35399     35400     35399     35401     35402     35403     35402     35404
     35405     35406     35405     35407     35408     35409     35408     35410
     35411     35412     35411     35413     35414     35415     35414     35416
     35417     35418     35417     35419     35420     35421     35420     35422
     35423     35424     35423     35425     35426     35427     35426     35428
     35429     35430     35429     35431     35432     35433     35432     35434
     35435     35436     35435     35437     35438     35439     35438     35440
     35441     35442     35441     35443     35444     35445     35444     35446
     35447     35448     35447     35449     35450     35451     35450     35452
     35453     35454     35453     35455     35456     35457     35456     35458
     35459     35460     35459     35461     35462     35463     35462     35464
     35465     35466     35465     35467     35468     35469     35468     35470
     35471     35472     35471     35473     35474     35475     35474     35476
     35477     35478     35477     35479     35480     35481     35480     35482
     35483     35484     35483     35485     35486     35487     35486     35488
     35489     35490     35489     35491     35492     35493     35492     35494
     35495     35496     35495     35497     35498     35499     35498     35500
     35501     35502     35501     35503     35504     35505     35504     35506
     35507     35508     35507     35509     35510     35511     35510     35512
     35513     35514     35513     35515     35516     35517     35516     35518
     35519     35520     35519     35521     35522     35523     35522     35524
     35525     35526     35525     35527     35528     35529     35528     35530
     35531     35532     35531     35533     35534     35535     35534     35536
     35537     35538     35537     35539     35540     35541     35540     35542
     35543     35544     35543     35545     35546     35547     35546     35548
     35549     35550     35549     35551     35552     35553     35552     35554
     35555     35556     35555     35557     35558     35559     35558     35560
     35561     35562     35561     35563     35564     35565     35564     35566
     35567     35568     35567     35569     35570     35571     35570     35572
     35573     35574     35573     35575     35576     35577     35576     35578
     35579     35580     35579     35581     35582     35583     35582     35584
     35585     35586     35585     35587     35588     35589     35588     35590
     35591     35592     35591     35593     35594     35595     35594     35596
     35597     35598     35597     35599     35600     35601     35600     35602
     35603     35604     35603     35605     35606     35607     35606     35608
     35609     35610     35609     35611     35612     35613     35612     35614
     35615     35616     35615     35617     35618     35619     35618     35620
     35621     35622     35621     35623     35624     35625     35624     35626
     35627     35628     35627     35629     35630     35631     35630     35632
     35633     35634     35633     35635     35636     35637     35636     35638
     35639     35640     35639     35641     35642     35643     35642     35644
     35645     35646     35645     35647     35648     35649     35648     35650
     35651     35652     35651     35653     35654     35655     35654     35656
     35657     35658     35657     35659     35660     35661     35660     35662
     35663     35664     35663     35665     35666     35667     35666     35668
     35669     35670     35669     35671     35672     35673     35672     35674
     35675     35676     35675     35677     35678     35679     35678     35680
     35681     35682     35681     35683     35684     35685     35684     35686
     35687     35688     35687     35689     35690     35691     35690     35692
     35693     35694     35693     35695     35696     35697     35696     35698
     35699     35700     35699     35701     35702     35703     35702     35704
     35705     35706     35705     35707     35708     35709     35708     35710
     35711     35712     35711     35713     35714     35715     35714     35716
     35717     35718     35717     35719     35720     35721     35720     35722
     35723     35724     35723     35725     35726     35727     35726     35728
     35729     35730     35729     35731     35732     35733     35732     35734
     35735     35736     35735     35737     35738     35739     35738     35740
     35741     35742     35741     35743     35744     35745     35744     35746
     35747     35748     35747     35749     35750     35751     35750     35752
     35753     35754     35753     35755     35756     35757     35756     35758
     35759     35760     35759     35761     35762     35763     35762     35764
     35765     35766     35765     35767     35768     35769     35768     35770
     35771     35772     35771     35773     35774     35775     35774     35776
     35777     35778     35777     35779     35780     35781     35780     35782
     35783     35784     35783     35785     35786     35787     35786     35788
     35789     35790     35789     35791     35792     35793     35792     35794
     35795     35796     35795     35797     35798     35799     35798     35800
     35801     35802     35801     35803     35804     35805     35804     35806
     35807     35808     35807     35809     35810     35811     35810     35812
     35813     35814     35813     35815     35816     35817     35816     35818
     35819     35820     35819     35821     35822     35823     35822     35824
     35825     35826     35825     35827     35828     35829     35828     35830
     35831     35832     35831     35833     35834     35835     35834     35836
     35837     35838     35837     35839     35840     35841     35840     35842
     35843     35844     35843     35845     35846     35847     35846     35848
     35849     35850     35849     35851     35852     35853     35852     35854
     35855     35856     35855     35857     35858     35859     35858     35860
     35861     35862     35861     35863     35864     35865     35864     35866
     35867     35868     35867     35869     35870     35871     35870     35872
     35873     35874     35873     35875     35876     35877     35876     35878
     35879     35880     35879     35881     35882     35883     35882     35884
     35885     35886     35885     35887     35888     35889     35888     35890
     35891     35892     35891     35893     35894     35895     35894     35896
     35897     35898     35897     35899     35900     35901     35900     35902
     35903     35904     35903     35905     35906     35907     35906     35908
     35909     35910     35909     35911     35912     35913     35912     35914
     35915     35916     35915     35917     35918     35919     35918     35920
     35921     35922     35921     35923     35924     35925     35924     35926
     35927     35928     35927     35929     35930     35931     35930     35932
     35933     35934     35933     35935     35936     35937     35936     35938
     35939     35940     35939     35941     35942     35943     35942     35944
     35945     35946     35945     35947     35948     35949     35948     35950
     35951     35952     35951     35953     35954     35955     35954     35956
     35957     35958     35957     35959     35960     35961     35960     35962
     35963     35964     35963     35965     35966     35967     35966     35968
     35969     35970     35969     35971     35972     35973     35972     35974
     35975     35976     35975     35977     35978     35979     35978     35980
     35981     35982     35981     35983     35984     35985     35984     35986
     35987     35988     35987     35989     35990     35991     35990     35992
     35993     35994     35993     35995     35996     35997     35996     35998
     35999     36000     35999     36001     36002     36003     36002     36004
     36005     36006     36005     36007     36008     36009     36008     36010
     36011     36012     36011     36013     36014     36015     36014     36016
     36017     36018     36017     36019     36020     36021     36020     36022
     36023     36024     36023     36025     36026     36027     36026     36028
     36029     36030     36029     36031     36032     36033     36032     36034
     36035     36036     36035     36037     36038     36039     36038     36040
     36041     36042     36041     36043     36044     36045     36044     36046
     36047     36048     36047     36049     36050     36051     36050     36052
     36053     36054     36053     36055     36056     36057     36056     36058
     36059     36060     36059     36061     36062     36063     36062     36064
     36065     36066     36065     36067     36068     36069     36068     36070
     36071     36072     36071     36073     36074     36075     36074     36076
     36077     36078     36077     36079     36080     36081     36080     36082
     36083     36084     36083     36085     36086     36087     36086     36088
     36089     36090     36089     36091     36092     36093     36092     36094
     36095     36096     36095     36097     36098     36099     36098     36100
     36101     36102     36101     36103     36104     36105     36104     36106
     36107     36108     36107     36109     36110     36111     36110     36112
     36113     36114     36113     36115     36116     36117     36116     36118
     36119     36120     36119     36121     36122     36123     36122     36124
     36125     36126     36125     36127     36128     36129     36128     36130
     36131     36132     36131     36133     36134     36135     36134     36136
     36137     36138     36137     36139     36140     36141     36140     36142
     36143     36144     36143     36145     36146     36147     36146     36148
     36149     36150     36149     36151     36152     36153     36152     36154
     36155     36156     36155     36157     36158     36159     36158     36160
     36161     36162     36161     36163     36164     36165     36164     36166
     36167     36168     36167     36169     36170     36171     36170     36172
     36173     36174     36173     36175     36176     36177     36176     36178
     36179     36180     36179     36181     36182     36183     36182     36184
     36185     36186     36185     36187     36188     36189     36188     36190
     36191     36192     36191     36193     36194     36195     36194     36196
     36197     36198     36197     36199     36200     36201     36200     36202
     36203     36204     36203     36205     36206     36207     36206     36208
     36209     36210     36209     36211     36212     36213     36212     36214
     36215     36216     36215     36217     36218     36219     36218     36220
     36221     36222     36221     36223     36224     36225     36224     36226
     36227     36228     36227     36229     36230     36231     36230     36232
     36233     36234     36233     36235     36236     36237     36236     36238
     36239     36240     36239     36241     36242     36243     36242     36244
     36245     36246     36245     36247     36248     36249     36248     36250
     36251     36252     36251     36253     36254     36255     36254     36256
     36257     36258     36257     36259     36260     36261     36260     36262
     36263     36264     36263     36265     36266     36267     36266     36268
     36269     36270     36269     36271     36272     36273     36272     36274
     36275     36276     36275     36277     36278     36279     36278     36280
     36281     36282     36281     36283     36284     36285     36284     36286
     36287     36288     36287     36289     36290     36291     36290     36292
     36293     36294     36293     36295     36296     36297     36296     36298
     36299     36300     36299     36301     36302     36303     36302     36304
     36305     36306     36305     36307     36308     36309     36308     36310
     36311     36312     36311     36313     36314     36315     36314     36316
     36317     36318     36317     36319     36320     36321     36320     36322
     36323     36324     36323     36325     36326     36327     36326     36328
     36329     36330     36329     36331     36332     36333     36332     36334
     36335     36336     36335     36337     36338     36339     36338     36340
     36341     36342     36341     36343     36344     36345     36344     36346
     36347     36348     36347     36349     36350     36351     36350     36352
     36353     36354     36353     36355     36356     36357     36356     36358
     36359     36360     36359     36361     36362     36363     36362     36364
     36365     36366     36365     36367     36368     36369     36368     36370
     36371     36372     36371     36373     36374     36375     36374     36376
     36377     36378     36377     36379     36380     36381     36380     36382
     36383     36384     36383     36385     36386     36387     36386     36388
     36389     36390     36389     36391     36392     36393     36392     36394
     36395     36396     36395     36397     36398     36399     36398     36400
     36401     36402     36401     36403     36404     36405     36404     36406
     36407     36408     36407     36409     36410     36411     36410     36412
     36413     36414     36413     36415     36416     36417     36416     36418
     36419     36420     36419     36421     36422     36423     36422     36424
     36425     36426     36425     36427     36428     36429     36428     36430
     36431     36432     36431     36433     36434     36435     36434     36436
     36437     36438     36437     36439     36440     36441     36440     36442
     36443     36444     36443     36445     36446     36447     36446     36448
     36449     36450     36449     36451     36452     36453     36452     36454
     36455     36456     36455     36457     36458     36459     36458     36460
     36461     36462     36461     36463     36464     36465     36464     36466
     36467     36468     36467     36469     36470     36471     36470     36472
     36473     36474     36473     36475     36476     36477     36476     36478
     36479     36480     36479     36481     36482     36483     36482     36484
     36485     36486     36485     36487     36488     36489     36488     36490
     36491     36492     36491     36493     36494     36495     36494     36496
     36497     36498     36497     36499     36500     36501     36500     36502
     36503     36504     36503     36505     36506     36507     36506     36508
     36509     36510     36509     36511     36512     36513     36512     36514
     36515     36516     36515     36517     36518     36519     36518     36520
     36521     36522     36521     36523     36524     36525     36524     36526
     36527     36528     36527     36529     36530     36531     36530     36532
     36533     36534     36533     36535     36536     36537     36536     36538
     36539     36540     36539     36541     36542     36543     36542     36544
     36545     36546     36545     36547     36548     36549     36548     36550
     36551     36552     36551     36553     36554     36555     36554     36556
     36557     36558     36557     36559     36560     36561     36560     36562
     36563     36564     36563     36565     36566     36567     36566     36568
     36569     36570     36569     36571     36572     36573     36572     36574
     36575     36576     36575     36577     36578     36579     36578     36580
     36581     36582     36581     36583     36584     36585     36584     36586
     36587     36588     36587     36589     36590     36591     36590     36592
     36593     36594     36593     36595     36596     36597     36596     36598
     36599     36600     36599     36601     36602     36603     36602     36604
     36605     36606     36605     36607     36608     36609     36608     36610
     36611     36612     36611     36613     36614     36615     36614     36616
     36617     36618     36617     36619     36620     36621     36620     36622
     36623     36624     36623     36625     36626     36627     36626     36628
     36629     36630     36629     36631     36632     36633     36632     36634
     36635     36636     36635     36637     36638     36639     36638     36640
     36641     36642     36641     36643     36644     36645     36644     36646
     36647     36648     36647     36649     36650     36651     36650     36652
     36653     36654     36653     36655     36656     36657     36656     36658
     36659     36660     36659     36661     36662     36663     36662     36664
     36665     36666     36665     36667     36668     36669     36668     36670
     36671     36672     36671     36673     36674     36675     36674     36676
     36677     36678     36677     36679     36680     36681     36680     36682
     36683     36684     36683     36685     36686     36687     36686     36688
     36689     36690     36689     36691     36692     36693     36692     36694
     36695     36696     36695     36697     36698     36699     36698     36700
     36701     36702     36701     36703     36704     36705     36704     36706
     36707     36708     36707     36709     36710     36711     36710     36712
     36713     36714     36713     36715     36716     36717     36716     36718
     36719     36720     36719     36721     36722     36723     36722     36724
     36725     36726     36725     36727     36728     36729     36728     36730
     36731     36732     36731     36733     36734     36735     36734     36736
     36737     36738     36737     36739     36740     36741     36740     36742
     36743     36744     36743     36745     36746     36747     36746     36748
     36749     36750     36749     36751     36752     36753     36752     36754
     36755     36756     36755     36757     36758     36759     36758     36760
     36761     36762     36761     36763     36764     36765     36764     36766
     36767     36768     36767     36769     36770     36771     36770     36772
     36773     36774     36773     36775     36776     36777     36776     36778
     36779     36780     36779     36781     36782     36783     36782     36784
     36785     36786     36785     36787     36788     36789     36788     36790
     36791     36792     36791     36793     36794     36795     36794     36796
     36797     36798     36797     36799     36800     36801     36800     36802
     36803     36804     36803     36805     36806     36807     36806     36808
     36809     36810     36809     36811     36812     36813     36812     36814
     36815     36816     36815     36817     36818     36819     36818     36820
     36821     36822     36821     36823     36824     36825     36824     36826
     36827     36828     36827     36829     36830     36831     36830     36832
     36833     36834     36833     36835     36836     36837     36836     36838
     36839     36840     36839     36841     36842     36843     36842     36844
     36845     36846     36845     36847     36848     36849     36848     36850
     36851     36852     36851     36853     36854     36855     36854     36856
     36857     36858     36857     36859     36860     36861     36860     36862
     36863     36864     36863     36865     36866     36867     36866     36868
     36869     36870     36869     36871     36872     36873     36872     36874
     36875     36876     36875     36877     36878     36879     36878     36880
     36881     36882     36881     36883     36884     36885     36884     36886
     36887     36888     36887     36889     36890     36891     36890     36892
     36893     36894     36893     36895     36896     36897     36896     36898
     36899     36900     36899     36901     36902     36903     36902     36904
     36905     36906     36905     36907     36908     36909     36908     36910
     36911     36912     36911     36913     36914     36915     36914     36916
     36917     36918     36917     36919     36920     36921     36920     36922
     36923     36924     36923     36925     36926     36927     36926     36928
     36929     36930     36929     36931     36932     36933     36932     36934
     36935     36936     36935     36937     36938     36939     36938     36940
     36941     36942     36941     36943     36944     36945     36944     36946
     36947     36948     36947     36949     36950     36951     36950     36952
     36953     36954     36953     36955     36956     36957     36956     36958
     36959     36960     36959     36961     36962     36963     36962     36964
     36965     36966     36965     36967     36968     36969     36968     36970
     36971     36972     36971     36973     36974     36975     36974     36976
     36977     36978     36977     36979     36980     36981     36980     36982
     36983     36984     36983     36985     36986     36987     36986     36988
     36989     36990     36989     36991     36992     36993     36992     36994
     36995     36996     36995     36997     36998     36999     36998     37000
     37001     37002     37001     37003     37004     37005     37004     37006
     37007     37008     37007     37009     37010     37011     37010     37012
     37013     37014     37013     37015     37016     37017     37016     37018
     37019     37020     37019     37021     37022     37023     37022     37024
     37025     37026     37025     37027     37028     37029     37028     37030
     37031     37032     37031     37033     37034     37035     37034     37036
     37037     37038     37037     37039     37040     37041     37040     37042
     37043     37044     37043     37045     37046     37047     37046     37048
     37049     37050     37049     37051     37052     37053     37052     37054
     37055     37056     37055     37057     37058     37059     37058     37060
     37061     37062     37061     37063     37064     37065     37064     37066
     37067     37068     37067     37069     37070     37071     37070     37072
     37073     37074     37073     37075     37076     37077     37076     37078
     37079     37080     37079     37081     37082     37083     37082     37084
     37085     37086     37085     37087     37088     37089     37088     37090
     37091     37092     37091     37093     37094     37095     37094     37096
     37097     37098     37097     37099     37100     37101     37100     37102
     37103     37104     37103     37105     37106     37107     37106     37108
     37109     37110     37109     37111     37112     37113     37112     37114
     37115     37116     37115     37117     37118     37119     37118     37120
     37121     37122     37121     37123     37124     37125     37124     37126
     37127     37128     37127     37129     37130     37131     37130     37132
     37133     37134     37133     37135     37136     37137     37136     37138
     37139     37140     37139     37141     37142     37143     37142     37144
     37145     37146     37145     37147     37148     37149     37148     37150
     37151     37152     37151     37153     37154     37155     37154     37156
     37157     37158     37157     37159     37160     37161     37160     37162
     37163     37164     37163     37165     37166     37167     37166     37168
     37169     37170     37169     37171     37172     37173     37172     37174
     37175     37176     37175     37177     37178     37179     37178     37180
     37181     37182     37181     37183     37184     37185     37184     37186
     37187     37188     37187     37189     37190     37191     37190     37192
     37193     37194     37193     37195     37196     37197     37196     37198
     37199     37200     37199     37201     37202     37203     37202     37204
     37205     37206     37205     37207     37208     37209     37208     37210
     37211     37212     37211     37213     37214     37215     37214     37216
     37217     37218     37217     37219     37220     37221     37220     37222
     37223     37224     37223     37225     37226     37227     37226     37228
     37229     37230     37229     37231     37232     37233     37232     37234
     37235     37236     37235     37237     37238     37239     37238     37240
     37241     37242     37241     37243     37244     37245     37244     37246
     37247     37248     37247     37249     37250     37251     37250     37252
     37253     37254     37253     37255     37256     37257     37256     37258
     37259     37260     37259     37261     37262     37263     37262     37264
     37265     37266     37265     37267     37268     37269     37268     37270
     37271     37272     37271     37273     37274     37275     37274     37276
     37277     37278     37277     37279     37280     37281     37280     37282
     37283     37284     37283     37285     37286     37287     37286     37288
     37289     37290     37289     37291     37292     37293     37292     37294
     37295     37296     37295     37297     37298     37299     37298     37300
     37301     37302     37301     37303     37304     37305     37304     37306
     37307     37308     37307     37309     37310     37311     37310     37312
     37313     37314     37313     37315     37316     37317     37316     37318
     37319     37320     37319     37321     37322     37323     37322     37324
     37325     37326     37325     37327     37328     37329     37328     37330
     37331     37332     37331     37333     37334     37335     37334     37336
     37337     37338     37337     37339     37340     37341     37340     37342
     37343     37344     37343     37345     37346     37347     37346     37348
     37349     37350     37349     37351     37352     37353     37352     37354
     37355     37356     37355     37357     37358     37359     37358     37360
     37361     37362     37361     37363     37364     37365     37364     37366
     37367     37368     37367     37369     37370     37371     37370     37372
     37373     37374     37373     37375     37376     37377     37376     37378
     37379     37380     37379     37381     37382     37383     37382     37384
     37385     37386     37385     37387     37388     37389     37388     37390
     37391     37392     37391     37393     37394     37395     37394     37396
     37397     37398     37397     37399     37400     37401     37400     37402
     37403     37404     37403     37405     37406     37407     37406     37408
     37409     37410     37409     37411     37412     37413     37412     37414
     37415     37416     37415     37417     37418     37419     37418     37420
     37421     37422     37421     37423     37424     37425     37424     37426
     37427     37428     37427     37429     37430     37431     37430     37432
     37433     37434     37433     37435     37436     37437     37436     37438
     37439     37440     37439     37441     37442     37443     37442     37444
     37445     37446     37445     37447     37448     37449     37448     37450
     37451     37452     37451     37453     37454     37455     37454     37456
     37457     37458     37457     37459     37460     37461     37460     37462
     37463     37464     37463     37465     37466     37467     37466     37468
     37469     37470     37469     37471     37472     37473     37472     37474
     37475     37476     37475     37477     37478     37479     37478     37480
     37481     37482     37481     37483     37484     37485     37484     37486
     37487     37488     37487     37489     37490     37491     37490     37492
     37493     37494     37493     37495     37496     37497     37496     37498
     37499     37500     37499     37501     37502     37503     37502     37504
     37505     37506     37505     37507     37508     37509     37508     37510
     37511     37512     37511     37513     37514     37515     37514     37516
     37517     37518     37517     37519     37520     37521     37520     37522
     37523     37524     37523     37525     37526     37527     37526     37528
     37529     37530     37529     37531     37532     37533     37532     37534
     37535     37536     37535     37537     37538     37539     37538     37540
     37541     37542     37541     37543     37544     37545     37544     37546
     37547     37548     37547     37549     37550     37551     37550     37552
     37553     37554     37553     37555     37556     37557     37556     37558
     37559     37560     37559     37561     37562     37563     37562     37564
     37565     37566     37565     37567     37568     37569     37568     37570
     37571     37572     37571     37573     37574     37575     37574     37576
     37577     37578     37577     37579     37580     37581     37580     37582
     37583     37584     37583     37585     37586     37587     37586     37588
     37589     37590     37589     37591     37592     37593     37592     37594
     37595     37596     37595     37597     37598     37599     37598     37600
     37601     37602     37601     37603     37604     37605     37604     37606
     37607     37608     37607     37609     37610     37611     37610     37612
     37613     37614     37613     37615     37616     37617     37616     37618
     37619     37620     37619     37621     37622     37623     37622     37624
     37625     37626     37625     37627     37628     37629     37628     37630
     37631     37632     37631     37633     37634     37635     37634     37636
     37637     37638     37637     37639     37640     37641     37640     37642
     37643     37644     37643     37645     37646     37647     37646     37648
     37649     37650     37649     37651     37652     37653     37652     37654
     37655     37656     37655     37657     37658     37659     37658     37660
     37661     37662     37661     37663     37664     37665     37664     37666
     37667     37668     37667     37669     37670     37671     37670     37672
     37673     37674     37673     37675     37676     37677     37676     37678
     37679     37680     37679     37681     37682     37683     37682     37684
     37685     37686     37685     37687     37688     37689     37688     37690
     37691     37692     37691     37693     37694     37695     37694     37696
     37697     37698     37697     37699     37700     37701     37700     37702
     37703     37704     37703     37705     37706     37707     37706     37708
     37709     37710     37709     37711     37712     37713     37712     37714
     37715     37716     37715     37717     37718     37719     37718     37720
     37721     37722     37721     37723     37724     37725     37724     37726
     37727     37728     37727     37729     37730     37731     37730     37732
     37733     37734     37733     37735     37736     37737     37736     37738
     37739     37740     37739     37741     37742     37743     37742     37744
     37745     37746     37745     37747     37748     37749     37748     37750
     37751     37752     37751     37753     37754     37755     37754     37756
     37757     37758     37757     37759     37760     37761     37760     37762
     37763     37764     37763     37765     37766     37767     37766     37768
     37769     37770     37769     37771     37772     37773     37772     37774
     37775     37776     37775     37777     37778     37779     37778     37780
     37781     37782     37781     37783     37784     37785     37784     37786
     37787     37788     37787     37789     37790     37791     37790     37792
     37793     37794     37793     37795     37796     37797     37796     37798
     37799     37800     37799     37801     37802     37803     37802     37804
     37805     37806     37805     37807     37808     37809     37808     37810
     37811     37812     37811     37813     37814     37815     37814     37816
     37817     37818     37817     37819     37820     37821     37820     37822
     37823     37824     37823     37825     37826     37827     37826     37828
     37829     37830     37829     37831     37832     37833     37832     37834
     37835     37836     37835     37837     37838     37839     37838     37840
     37841     37842     37841     37843     37844     37845     37844     37846
     37847     37848     37847     37849     37850     37851     37850     37852
     37853     37854     37853     37855     37856     37857     37856     37858
     37859     37860     37859     37861     37862     37863     37862     37864
     37865     37866     37865     37867     37868     37869     37868     37870
     37871     37872     37871     37873     37874     37875     37874     37876
     37877     37878     37877     37879     37880     37881     37880     37882
     37883     37884     37883     37885     37886     37887     37886     37888
     37889     37890     37889     37891     37892     37893     37892     37894
     37895     37896     37895     37897     37898     37899     37898     37900
     37901     37902     37901     37903     37904     37905     37904     37906
     37907     37908     37907     37909     37910     37911     37910     37912
     37913     37914     37913     37915     37916     37917     37916     37918
     37919     37920     37919     37921     37922     37923     37922     37924
     37925     37926     37925     37927     37928     37929     37928     37930
     37931     37932     37931     37933     37934     37935     37934     37936
     37937     37938     37937     37939     37940     37941     37940     37942
     37943     37944     37943     37945     37946     37947     37946     37948
     37949     37950     37949     37951     37952     37953     37952     37954
     37955     37956     37955     37957     37958     37959     37958     37960
     37961     37962     37961     37963     37964     37965     37964     37966
     37967     37968     37967     37969     37970     37971     37970     37972
     37973     37974     37973     37975     37976     37977     37976     37978
     37979     37980     37979     37981     37982     37983     37982     37984
     37985     37986     37985     37987     37988     37989     37988     37990
     37991     37992     37991     37993     37994     37995     37994     37996
     37997     37998     37997     37999     38000     38001     38000     38002
     38003     38004     38003     38005     38006     38007     38006     38008
     38009     38010     38009     38011     38012     38013     38012     38014
     38015     38016     38015     38017     38018     38019     38018     38020
     38021     38022     38021     38023     38024     38025     38024     38026
     38027     38028     38027     38029     38030     38031     38030     38032
     38033     38034     38033     38035     38036     38037     38036     38038
     38039     38040     38039     38041     38042     38043     38042     38044
     38045     38046     38045     38047     38048     38049     38048     38050
     38051     38052     38051     38053     38054     38055     38054     38056
     38057     38058     38057     38059     38060     38061     38060     38062
     38063     38064     38063     38065     38066     38067     38066     38068
     38069     38070     38069     38071     38072     38073     38072     38074
     38075     38076     38075     38077     38078     38079     38078     38080
     38081     38082     38081     38083     38084     38085     38084     38086
     38087     38088     38087     38089     38090     38091     38090     38092
     38093     38094     38093     38095     38096     38097     38096     38098
     38099     38100     38099     38101     38102     38103     38102     38104
     38105     38106     38105     38107     38108     38109     38108     38110
     38111     38112     38111     38113     38114     38115     38114     38116
     38117     38118     38117     38119     38120     38121     38120     38122
     38123     38124     38123     38125     38126     38127     38126     38128
     38129     38130     38129     38131     38132     38133     38132     38134
     38135     38136     38135     38137     38138     38139     38138     38140
     38141     38142     38141     38143     38144     38145     38144     38146
     38147     38148     38147     38149     38150     38151     38150     38152
     38153     38154     38153     38155     38156     38157     38156     38158
     38159     38160     38159     38161     38162     38163     38162     38164
     38165     38166     38165     38167     38168     38169     38168     38170
     38171     38172     38171     38173     38174     38175     38174     38176
     38177     38178     38177     38179     38180     38181     38180     38182
     38183     38184     38183     38185     38186     38187     38186     38188
     38189     38190     38189     38191     38192     38193     38192     38194
     38195     38196     38195     38197     38198     38199     38198     38200
     38201     38202     38201     38203     38204     38205     38204     38206
     38207     38208     38207     38209     38210     38211     38210     38212
     38213     38214     38213     38215     38216     38217     38216     38218
     38219     38220     38219     38221     38222     38223     38222     38224
     38225     38226     38225     38227     38228     38229     38228     38230
     38231     38232     38231     38233     38234     38235     38234     38236
     38237     38238     38237     38239     38240     38241     38240     38242
     38243     38244     38243     38245     38246     38247     38246     38248
     38249     38250     38249     38251     38252     38253     38252     38254
     38255     38256     38255     38257     38258     38259     38258     38260
     38261     38262     38261     38263     38264     38265     38264     38266
     38267     38268     38267     38269     38270     38271     38270     38272
     38273     38274     38273     38275     38276     38277     38276     38278
     38279     38280     38279     38281     38282     38283     38282     38284
     38285     38286     38285     38287     38288     38289     38288     38290
     38291     38292     38291     38293     38294     38295     38294     38296
     38297     38298     38297     38299     38300     38301     38300     38302
     38303     38304     38303     38305     38306     38307     38306     38308
     38309     38310     38309     38311     38312     38313     38312     38314
     38315     38316     38315     38317     38318     38319     38318     38320
     38321     38322     38321     38323     38324     38325     38324     38326
     38327     38328     38327     38329     38330     38331     38330     38332
     38333     38334     38333     38335     38336     38337     38336     38338
     38339     38340     38339     38341     38342     38343     38342     38344
     38345     38346     38345     38347     38348     38349     38348     38350
     38351     38352     38351     38353     38354     38355     38354     38356
     38357     38358     38357     38359     38360     38361     38360     38362
     38363     38364     38363     38365     38366     38367     38366     38368
     38369     38370     38369     38371     38372     38373     38372     38374
     38375     38376     38375     38377     38378     38379     38378     38380
     38381     38382     38381     38383     38384     38385     38384     38386
     38387     38388     38387     38389     38390     38391     38390     38392
     38393     38394     38393     38395     38396     38397     38396     38398
     38399     38400     38399     38401     38402     38403     38402     38404
     38405     38406     38405     38407     38408     38409     38408     38410
     38411     38412     38411     38413     38414     38415     38414     38416
     38417     38418     38417     38419     38420     38421     38420     38422
     38423     38424     38423     38425     38426     38427     38426     38428
     38429     38430     38429     38431     38432     38433     38432     38434
     38435     38436     38435     38437     38438     38439     38438     38440
     38441     38442     38441     38443     38444     38445     38444     38446
     38447     38448     38447     38449     38450     38451     38450     38452
     38453     38454     38453     38455     38456     38457     38456     38458
     38459     38460     38459     38461     38462     38463     38462     38464
     38465     38466     38465     38467     38468     38469     38468     38470
     38471     38472     38471     38473     38474     38475     38474     38476
     38477     38478     38477     38479     38480     38481     38480     38482
     38483     38484     38483     38485     38486     38487     38486     38488
     38489     38490     38489     38491     38492     38493     38492     38494
     38495     38496     38495     38497     38498     38499     38498     38500
     38501     38502     38501     38503     38504     38505     38504     38506
     38507     38508     38507     38509     38510     38511     38510     38512
     38513     38514     38513     38515     38516     38517     38516     38518
     38519     38520     38519     38521     38522     38523     38522     38524
     38525     38526     38525     38527     38528     38529     38528     38530
     38531     38532     38531     38533     38534     38535     38534     38536
     38537     38538     38537     38539     38540     38541     38540     38542
     38543     38544     38543     38545     38546     38547     38546     38548
     38549     38550     38549     38551     38552     38553     38552     38554
     38555     38556     38555     38557     38558     38559     38558     38560
     38561     38562     38561     38563     38564     38565     38564     38566
     38567     38568     38567     38569     38570     38571     38570     38572
     38573     38574     38573     38575     38576     38577     38576     38578
     38579     38580     38579     38581     38582     38583     38582     38584
     38585     38586     38585     38587     38588     38589     38588     38590
     38591     38592     38591     38593     38594     38595     38594     38596
     38597     38598     38597     38599     38600     38601     38600     38602
     38603     38604     38603     38605     38606     38607     38606     38608
     38609     38610     38609     38611     38612     38613     38612     38614
     38615     38616     38615     38617     38618     38619     38618     38620
     38621     38622     38621     38623     38624     38625     38624     38626
     38627     38628     38627     38629     38630     38631     38630     38632
     38633     38634     38633     38635     38636     38637     38636     38638
     38639     38640     38639     38641     38642     38643     38642     38644
     38645     38646     38645     38647     38648     38649     38648     38650
     38651     38652     38651     38653     38654     38655     38654     38656
     38657     38658     38657     38659     38660     38661     38660     38662
     38663     38664     38663     38665     38666     38667     38666     38668
     38669     38670     38669     38671     38672     38673     38672     38674
     38675     38676     38675     38677     38678     38679     38678     38680
     38681     38682     38681     38683     38684     38685     38684     38686
     38687     38688     38687     38689     38690     38691     38690     38692
     38693     38694     38693     38695     38696     38697     38696     38698
     38699     38700     38699     38701     38702     38703     38702     38704
     38705     38706     38705     38707     38708     38709     38708     38710
     38711     38712     38711     38713     38714     38715     38714     38716
     38717     38718     38717     38719     38720     38721     38720     38722
     38723     38724     38723     38725     38726     38727     38726     38728
     38729     38730     38729     38731     38732     38733     38732     38734
     38735     38736     38735     38737     38738     38739     38738     38740
     38741     38742     38741     38743     38744     38745     38744     38746
     38747     38748     38747     38749     38750     38751     38750     38752
     38753     38754     38753     38755     38756     38757     38756     38758
     38759     38760     38759     38761     38762     38763     38762     38764
     38765     38766     38765     38767     38768     38769     38768     38770
     38771     38772     38771     38773     38774     38775     38774     38776
     38777     38778     38777     38779     38780     38781     38780     38782
     38783     38784     38783     38785     38786     38787     38786     38788
     38789     38790     38789     38791     38792     38793     38792     38794
     38795     38796     38795     38797     38798     38799     38798     38800
     38801     38802     38801     38803     38804     38805     38804     38806
     38807     38808     38807     38809     38810     38811     38810     38812
     38813     38814     38813     38815     38816     38817     38816     38818
     38819     38820     38819     38821     38822     38823     38822     38824
     38825     38826     38825     38827     38828     38829     38828     38830
     38831     38832     38831     38833     38834     38835     38834     38836
     38837     38838     38837     38839     38840     38841     38840     38842
     38843     38844     38843     38845     38846     38847     38846     38848
     38849     38850     38849     38851     38852     38853     38852     38854
     38855     38856     38855     38857     38858     38859     38858     38860
     38861     38862     38861     38863     38864     38865     38864     38866
     38867     38868     38867     38869     38870     38871     38870     38872
     38873     38874     38873     38875     38876     38877     38876     38878
     38879     38880     38879     38881     38882     38883     38882     38884
     38885     38886     38885     38887     38888     38889     38888     38890
     38891     38892     38891     38893     38894     38895     38894     38896
     38897     38898     38897     38899     38900     38901     38900     38902
     38903     38904     38903     38905     38906     38907     38906     38908
     38909     38910     38909     38911     38912     38913     38912     38914
     38915     38916     38915     38917     38918     38919     38918     38920
     38921     38922     38921     38923     38924     38925     38924     38926
     38927     38928     38927     38929     38930     38931     38930     38932
     38933     38934     38933     38935     38936     38937     38936     38938
     38939     38940     38939     38941     38942     38943     38942     38944
     38945     38946     38945     38947     38948     38949     38948     38950
     38951     38952     38951     38953     38954     38955     38954     38956
     38957     38958     38957     38959     38960     38961     38960     38962
     38963     38964     38963     38965     38966     38967     38966     38968
     38969     38970     38969     38971     38972     38973     38972     38974
     38975     38976     38975     38977     38978     38979     38978     38980
     38981     38982     38981     38983     38984     38985     38984     38986
     38987     38988     38987     38989     38990     38991     38990     38992
     38993     38994     38993     38995     38996     38997     38996     38998
     38999     39000     38999     39001     39002     39003     39002     39004
     39005     39006     39005     39007     39008     39009     39008     39010
     39011     39012     39011     39013     39014     39015     39014     39016
     39017     39018     39017     39019     39020     39021     39020     39022
     39023     39024     39023     39025     39026     39027     39026     39028
     39029     39030     39029     39031     39032     39033     39032     39034
     39035     39036     39035     39037     39038     39039     39038     39040
     39041     39042     39041     39043     39044     39045     39044     39046
     39047     39048     39047     39049     39050     39051     39050     39052
     39053     39054     39053     39055     39056     39057     39056     39058
     39059     39060     39059     39061     39062     39063     39062     39064
     39065     39066     39065     39067     39068     39069     39068     39070
     39071     39072     39071     39073     39074     39075     39074     39076
     39077     39078     39077     39079     39080     39081     39080     39082
     39083     39084     39083     39085     39086     39087     39086     39088
     39089     39090     39089     39091     39092     39093     39092     39094
     39095     39096     39095     39097     39098     39099     39098     39100
     39101     39102     39101     39103     39104     39105     39104     39106
     39107     39108     39107     39109     39110     39111     39110     39112
     39113     39114     39113     39115     39116     39117     39116     39118
     39119     39120     39119     39121     39122     39123     39122     39124
     39125     39126     39125     39127     39128     39129     39128     39130
     39131     39132     39131     39133     39134     39135     39134     39136
     39137     39138     39137     39139     39140     39141     39140     39142
     39143     39144     39143     39145     39146     39147     39146     39148
     39149     39150     39149     39151     39152     39153     39152     39154
     39155     39156     39155     39157     39158     39159     39158     39160
     39161     39162     39161     39163     39164     39165     39164     39166
     39167     39168     39167     39169     39170     39171     39170     39172
     39173     39174     39173     39175     39176     39177     39176     39178
     39179     39180     39179     39181     39182     39183     39182     39184
     39185     39186     39185     39187     39188     39189     39188     39190
     39191     39192     39191     39193     39194     39195     39194     39196
     39197     39198     39197     39199     39200     39201     39200     39202
     39203     39204     39203     39205     39206     39207     39206     39208
     39209     39210     39209     39211     39212     39213     39212     39214
     39215     39216     39215     39217     39218     39219     39218     39220
     39221     39222     39221     39223     39224     39225     39224     39226
     39227     39228     39227     39229     39230     39231     39230     39232
     39233     39234     39233     39235     39236     39237     39236     39238
     39239     39240     39239     39241     39242     39243     39242     39244
     39245     39246     39245     39247     39248     39249     39248     39250
     39251     39252     39251     39253     39254     39255     39254     39256
     39257     39258     39257     39259     39260     39261     39260     39262
     39263     39264     39263     39265     39266     39267     39266     39268
     39269     39270     39269     39271     39272     39273     39272     39274
     39275     39276     39275     39277     39278     39279     39278     39280
     39281     39282     39281     39283     39284     39285     39284     39286
     39287     39288     39287     39289     39290     39291     39290     39292
     39293     39294     39293     39295     39296     39297     39296     39298
     39299     39300     39299     39301     39302     39303     39302     39304
     39305     39306     39305     39307     39308     39309     39308     39310
     39311     39312     39311     39313     39314     39315     39314     39316
     39317     39318     39317     39319     39320     39321     39320     39322
     39323     39324     39323     39325     39326     39327     39326     39328
     39329     39330     39329     39331     39332     39333     39332     39334
     39335     39336     39335     39337     39338     39339     39338     39340
     39341     39342     39341     39343     39344     39345     39344     39346
     39347     39348     39347     39349     39350     39351     39350     39352
     39353     39354     39353     39355     39356     39357     39356     39358
     39359     39360     39359     39361     39362     39363     39362     39364
     39365     39366     39365     39367     39368     39369     39368     39370
     39371     39372     39371     39373     39374     39375     39374     39376
     39377     39378     39377     39379     39380     39381     39380     39382
     39383     39384     39383     39385     39386     39387     39386     39388
     39389     39390     39389     39391     39392     39393     39392     39394
     39395     39396     39395     39397     39398     39399     39398     39400
     39401     39402     39401     39403     39404     39405     39404     39406
     39407     39408     39407     39409     39410     39411     39410     39412
     39413     39414     39413     39415     39416     39417     39416     39418
     39419     39420     39419     39421     39422     39423     39422     39424
     39425     39426     39425     39427     39428     39429     39428     39430
     39431     39432     39431     39433     39434     39435     39434     39436
     39437     39438     39437     39439     39440     39441     39440     39442
     39443     39444     39443     39445     39446     39447     39446     39448
     39449     39450     39449     39451     39452     39453     39452     39454
     39455     39456     39455     39457     39458     39459     39458     39460
     39461     39462     39461     39463     39464     39465     39464     39466
     39467     39468     39467     39469     39470     39471     39470     39472
     39473     39474     39473     39475     39476     39477     39476     39478
     39479     39480     39479     39481     39482     39483     39482     39484
     39485     39486     39485     39487     39488     39489     39488     39490
     39491     39492     39491     39493     39494     39495     39494     39496
     39497     39498     39497     39499     39500     39501     39500     39502
     39503     39504     39503     39505     39506     39507     39506     39508
     39509     39510     39509     39511     39512     39513     39512     39514
     39515     39516     39515     39517     39518     39519     39518     39520
     39521     39522     39521     39523     39524     39525     39524     39526
     39527     39528     39527     39529     39530     39531     39530     39532
     39533     39534     39533     39535     39536     39537     39536     39538
     39539     39540     39539     39541     39542     39543     39542     39544
     39545     39546     39545     39547     39548     39549     39548     39550
     39551     39552     39551     39553     39554     39555     39554     39556
     39557     39558     39557     39559     39560     39561     39560     39562
     39563     39564     39563     39565     39566     39567     39566     39568
     39569     39570     39569     39571     39572     39573     39572     39574
     39575     39576     39575     39577     39578     39579     39578     39580
     39581     39582     39581     39583     39584     39585     39584     39586
     39587     39588     39587     39589     39590     39591     39590     39592
     39593     39594     39593     39595     39596     39597     39596     39598
     39599     39600     39599     39601     39602     39603     39602     39604
     39605     39606     39605     39607     39608     39609     39608     39610
     39611     39612     39611     39613     39614     39615     39614     39616
     39617     39618     39617     39619     39620     39621     39620     39622
     39623     39624     39623     39625     39626     39627     39626     39628
     39629     39630     39629     39631     39632     39633     39632     39634
     39635     39636     39635     39637     39638     39639     39638     39640
     39641     39642     39641     39643     39644     39645     39644     39646
     39647     39648     39647     39649     39650     39651     39650     39652
     39653     39654     39653     39655     39656     39657     39656     39658
     39659     39660     39659     39661     39662     39663     39662     39664
     39665     39666     39665     39667     39668     39669     39668     39670
     39671     39672     39671     39673     39674     39675     39674     39676
     39677     39678     39677     39679     39680     39681     39680     39682
     39683     39684     39683     39685     39686     39687     39686     39688
     39689     39690     39689     39691     39692     39693     39692     39694
     39695     39696     39695     39697     39698     39699     39698     39700
     39701     39702     39701     39703     39704     39705     39704     39706
     39707     39708     39707     39709     39710     39711     39710     39712
     39713     39714     39713     39715     39716     39717     39716     39718
     39719     39720     39719     39721     39722     39723     39722     39724
     39725     39726     39725     39727     39728     39729     39728     39730
     39731     39732     39731     39733     39734     39735     39734     39736
     39737     39738     39737     39739     39740     39741     39740     39742
     39743     39744     39743     39745     39746     39747     39746     39748
     39749     39750     39749     39751     39752     39753     39752     39754
     39755     39756     39755     39757     39758     39759     39758     39760
     39761     39762     39761     39763     39764     39765     39764     39766
     39767     39768     39767     39769     39770     39771     39770     39772
     39773     39774     39773     39775     39776     39777     39776     39778
     39779     39780     39779     39781     39782     39783     39782     39784
     39785     39786     39785     39787     39788     39789     39788     39790
     39791     39792     39791     39793     39794     39795     39794     39796
     39797     39798     39797     39799     39800     39801     39800     39802
     39803     39804     39803     39805     39806     39807     39806     39808
     39809     39810     39809     39811     39812     39813     39812     39814
     39815     39816     39815     39817     39818     39819     39818     39820
     39821     39822     39821     39823     39824     39825     39824     39826
     39827     39828     39827     39829     39830     39831     39830     39832
     39833     39834     39833     39835     39836     39837     39836     39838
     39839     39840     39839     39841     39842     39843     39842     39844
     39845     39846     39845     39847     39848     39849     39848     39850
     39851     39852     39851     39853     39854     39855     39854     39856
     39857     39858     39857     39859     39860     39861     39860     39862
     39863     39864     39863     39865     39866     39867     39866     39868
     39869     39870     39869     39871     39872     39873     39872     39874
     39875     39876     39875     39877     39878     39879     39878     39880
     39881     39882     39881     39883     39884     39885     39884     39886
     39887     39888     39887     39889     39890     39891     39890     39892
     39893     39894     39893     39895     39896     39897     39896     39898
     39899     39900     39899     39901     39902     39903     39902     39904
     39905     39906     39905     39907     39908     39909     39908     39910
     39911     39912     39911     39913     39914     39915     39914     39916
     39917     39918     39917     39919     39920     39921     39920     39922
     39923     39924     39923     39925     39926     39927     39926     39928
     39929     39930     39929     39931     39932     39933     39932     39934
     39935     39936     39935     39937     39938     39939     39938     39940
     39941     39942     39941     39943     39944     39945     39944     39946
     39947     39948     39947     39949     39950     39951     39950     39952
     39953     39954     39953     39955     39956     39957     39956     39958
     39959     39960     39959     39961     39962     39963     39962     39964
     39965     39966     39965     39967     39968     39969     39968     39970
     39971     39972     39971     39973     39974     39975     39974     39976
     39977     39978     39977     39979     39980     39981     39980     39982
     39983     39984     39983     39985     39986     39987     39986     39988
     39989     39990     39989     39991     39992     39993     39992     39994
     39995     39996     39995     39997     39998     39999     39998     40000
     40001     40002     40001     40003     40004     40005     40004     40006
     40007     40008     40007     40009     40010     40011     40010     40012
     40013     40014     40013     40015     40016     40017     40016     40018
     40019     40020     40019     40021     40022     40023     40022     40024
     40025     40026     40025     40027     40028     40029     40028     40030
     40031     40032     40031     40033     40034     40035     40034     40036
     40037     40038     40037     40039     40040     40041     40040     40042
     40043     40044     40043     40045     40046     40047     40046     40048
     40049     40050     40049     40051     40052     40053     40052     40054
     40055     40056     40055     40057     40058     40059     40058     40060
     40061     40062     40061     40063     40064     40065     40064     40066
     40067     40068     40067     40069     40070     40071     40070     40072
     40073     40074     40073     40075     40076     40077     40076     40078
     40079     40080     40079     40081     40082     40083     40082     40084
     40085     40086     40085     40087     40088     40089     40088     40090
     40091     40092     40091     40093     40094     40095     40094     40096
     40097     40098     40097     40099     40100     40101     40100     40102
     40103     40104     40103     40105     40106     40107     40106     40108
     40109     40110     40109     40111     40112     40113     40112     40114
     40115     40116     40115     40117     40118     40119     40118     40120
     40121     40122     40121     40123     40124     40125     40124     40126
     40127     40128     40127     40129     40130     40131     40130     40132
     40133     40134     40133     40135     40136     40137     40136     40138
     40139     40140     40139     40141     40142     40143     40142     40144
     40145     40146     40145     40147     40148     40149     40148     40150
     40151     40152     40151     40153     40154     40155     40154     40156
     40157     40158     40157     40159     40160     40161     40160     40162
     40163     40164     40163     40165     40166     40167     40166     40168
     40169     40170     40169     40171     40172     40173     40172     40174
     40175     40176     40175     40177     40178     40179     40178     40180
     40181     40182     40181     40183     40184     40185     40184     40186
     40187     40188     40187     40189     40190     40191     40190     40192
     40193     40194     40193     40195     40196     40197     40196     40198
     40199     40200     40199     40201     40202     40203     40202     40204
     40205     40206     40205     40207     40208     40209     40208     40210
     40211     40212     40211     40213     40214     40215     40214     40216
     40217     40218     40217     40219     40220     40221     40220     40222
     40223     40224     40223     40225     40226     40227     40226     40228
     40229     40230     40229     40231     40232     40233     40232     40234
     40235     40236     40235     40237     40238     40239     40238     40240
     40241     40242     40241     40243     40244     40245     40244     40246
     40247     40248     40247     40249     40250     40251     40250     40252
     40253     40254     40253     40255     40256     40257     40256     40258
     40259     40260     40259     40261     40262     40263     40262     40264
     40265     40266     40265     40267     40268     40269     40268     40270
     40271     40272     40271     40273     40274     40275     40274     40276
     40277     40278     40277     40279     40280     40281     40280     40282
     40283     40284     40283     40285     40286     40287     40286     40288
     40289     40290     40289     40291     40292     40293     40292     40294
     40295     40296     40295     40297     40298     40299     40298     40300
     40301     40302     40301     40303     40304     40305     40304     40306
     40307     40308     40307     40309     40310     40311     40310     40312
     40313     40314     40313     40315     40316     40317     40316     40318
     40319     40320     40319     40321     40322     40323     40322     40324
     40325     40326     40325     40327     40328     40329     40328     40330
     40331     40332     40331     40333     40334     40335     40334     40336
     40337     40338     40337     40339     40340     40341     40340     40342
     40343     40344     40343     40345     40346     40347     40346     40348
     40349     40350     40349     40351     40352     40353     40352     40354
     40355     40356     40355     40357     40358     40359     40358     40360
     40361     40362     40361     40363     40364     40365     40364     40366
     40367     40368     40367     40369     40370     40371     40370     40372
     40373     40374     40373     40375     40376     40377     40376     40378
     40379     40380     40379     40381     40382     40383     40382     40384
     40385     40386     40385     40387     40388     40389     40388     40390
     40391     40392     40391     40393     40394     40395     40394     40396
     40397     40398     40397     40399     40400     40401     40400     40402
     40403     40404     40403     40405     40406     40407     40406     40408
     40409     40410     40409     40411     40412     40413     40412     40414
     40415     40416     40415     40417     40418     40419     40418     40420
     40421     40422     40421     40423     40424     40425     40424     40426
     40427     40428     40427     40429     40430     40431     40430     40432
     40433     40434     40433     40435     40436     40437     40436     40438
     40439     40440     40439     40441     40442     40443     40442     40444
     40445     40446     40445     40447     40448     40449     40448     40450
     40451     40452     40451     40453     40454     40455     40454     40456
     40457     40458     40457     40459     40460     40461     40460     40462
     40463     40464     40463     40465     40466     40467     40466     40468
     40469     40470     40469     40471     40472     40473     40472     40474
     40475     40476     40475     40477     40478     40479     40478     40480
     40481     40482     40481     40483     40484     40485     40484     40486
     40487     40488     40487     40489     40490     40491     40490     40492
     40493     40494     40493     40495     40496     40497     40496     40498
     40499     40500     40499     40501     40502     40503     40502     40504
     40505     40506     40505     40507     40508     40509     40508     40510
     40511     40512     40511     40513     40514     40515     40514     40516
     40517     40518     40517     40519     40520     40521     40520     40522
     40523     40524     40523     40525     40526     40527     40526     40528
     40529     40530     40529     40531     40532     40533     40532     40534
     40535     40536     40535     40537     40538     40539     40538     40540
     40541     40542     40541     40543     40544     40545     40544     40546
     40547     40548     40547     40549     40550     40551     40550     40552
     40553     40554     40553     40555     40556     40557     40556     40558
     40559     40560     40559     40561     40562     40563     40562     40564
     40565     40566     40565     40567     40568     40569     40568     40570
     40571     40572     40571     40573     40574     40575     40574     40576
     40577     40578     40577     40579     40580     40581     40580     40582
     40583     40584     40583     40585     40586     40587     40586     40588
     40589     40590     40589     40591     40592     40593     40592     40594
     40595     40596     40595     40597     40598     40599     40598     40600
     40601     40602     40601     40603     40604     40605     40604     40606
     40607     40608     40607     40609     40610     40611     40610     40612
     40613     40614     40613     40615     40616     40617     40616     40618
     40619     40620     40619     40621     40622     40623     40622     40624
     40625     40626     40625     40627     40628     40629     40628     40630
     40631     40632     40631     40633     40634     40635     40634     40636
     40637     40638     40637     40639     40640     40641     40640     40642
     40643     40644     40643     40645     40646     40647     40646     40648
     40649     40650     40649     40651     40652     40653     40652     40654
     40655     40656     40655     40657     40658     40659     40658     40660
     40661     40662     40661     40663     40664     40665     40664     40666
     40667     40668     40667     40669     40670     40671     40670     40672
     40673     40674     40673     40675     40676     40677     40676     40678
     40679     40680     40679     40681     40682     40683     40682     40684
     40685     40686     40685     40687     40688     40689     40688     40690
     40691     40692     40691     40693     40694     40695     40694     40696
     40697     40698     40697     40699     40700     40701     40700     40702
     40703     40704     40703     40705     40706     40707     40706     40708
     40709     40710     40709     40711     40712     40713     40712     40714
     40715     40716     40715     40717     40718     40719     40718     40720
     40721     40722     40721     40723     40724     40725     40724     40726
     40727     40728     40727     40729     40730     40731     40730     40732
     40733     40734     40733     40735     40736     40737     40736     40738
     40739     40740     40739     40741     40742     40743     40742     40744
     40745     40746     40745     40747     40748     40749     40748     40750
     40751     40752     40751     40753     40754     40755     40754     40756
     40757     40758     40757     40759     40760     40761     40760     40762
     40763     40764     40763     40765     40766     40767     40766     40768
     40769     40770     40769     40771     40772     40773     40772     40774
     40775     40776     40775     40777     40778     40779     40778     40780
     40781     40782     40781     40783     40784     40785     40784     40786
     40787     40788     40787     40789     40790     40791     40790     40792
     40793     40794     40793     40795     40796     40797     40796     40798
     40799     40800     40799     40801     40802     40803     40802     40804
     40805     40806     40805     40807     40808     40809     40808     40810
     40811     40812     40811     40813     40814     40815     40814     40816
     40817     40818     40817     40819     40820     40821     40820     40822
     40823     40824     40823     40825     40826     40827     40826     40828
     40829     40830     40829     40831     40832     40833     40832     40834
     40835     40836     40835     40837     40838     40839     40838     40840
     40841     40842     40841     40843     40844     40845     40844     40846
     40847     40848     40847     40849     40850     40851     40850     40852
     40853     40854     40853     40855     40856     40857     40856     40858
     40859     40860     40859     40861     40862     40863     40862     40864
     40865     40866     40865     40867     40868     40869     40868     40870
     40871     40872     40871     40873     40874     40875     40874     40876
     40877     40878     40877     40879     40880     40881     40880     40882
     40883     40884     40883     40885     40886     40887     40886     40888
     40889     40890     40889     40891     40892     40893     40892     40894
     40895     40896     40895     40897     40898     40899     40898     40900
     40901     40902     40901     40903     40904     40905     40904     40906
     40907     40908     40907     40909     40910     40911     40910     40912
     40913     40914     40913     40915     40916     40917     40916     40918
     40919     40920     40919     40921     40922     40923     40922     40924
     40925     40926     40925     40927     40928     40929     40928     40930
     40931     40932     40931     40933     40934     40935     40934     40936
     40937     40938     40937     40939     40940     40941     40940     40942
     40943     40944     40943     40945     40946     40947     40946     40948
     40949     40950     40949     40951     40952     40953     40952     40954
     40955     40956     40955     40957     40958     40959     40958     40960
     40961     40962     40961     40963     40964     40965     40964     40966
     40967     40968     40967     40969     40970     40971     40970     40972
     40973     40974     40973     40975     40976     40977     40976     40978
     40979     40980     40979     40981     40982     40983     40982     40984
     40985     40986     40985     40987     40988     40989     40988     40990
     40991     40992     40991     40993     40994     40995     40994     40996
     40997     40998     40997     40999     41000     41001     41000     41002
     41003     41004     41003     41005     41006     41007     41006     41008
     41009     41010     41009     41011     41012     41013     41012     41014
     41015     41016     41015     41017     41018     41019     41018     41020
     41021     41022     41021     41023     41024     41025     41024     41026
     41027     41028     41027     41029     41030     41031     41030     41032
     41033     41034     41033     41035     41036     41037     41036     41038
     41039     41040     41039     41041     41042     41043     41042     41044
     41045     41046     41045     41047     41048     41049     41048     41050
     41051     41052     41051     41053     41054     41055     41054     41056
     41057     41058     41057     41059     41060     41061     41060     41062
     41063     41064     41063     41065     41066     41067     41066     41068
     41069     41070     41069     41071     41072     41073     41072     41074
     41075     41076     41075     41077     41078     41079     41078     41080
     41081     41082     41081     41083     41084     41085     41084     41086
     41087     41088     41087     41089     41090     41091     41090     41092
     41093     41094     41093     41095     41096     41097     41096     41098
     41099     41100     41099     41101     41102     41103     41102     41104
     41105     41106     41105     41107     41108     41109     41108     41110
     41111     41112     41111     41113     41114     41115     41114     41116
     41117     41118     41117     41119     41120     41121     41120     41122
     41123     41124     41123     41125     41126     41127     41126     41128
     41129     41130     41129     41131     41132     41133     41132     41134
     41135     41136     41135     41137     41138     41139     41138     41140
     41141     41142     41141     41143     41144     41145     41144     41146
     41147     41148     41147     41149     41150     41151     41150     41152
     41153     41154     41153     41155     41156     41157     41156     41158
     41159     41160     41159     41161     41162     41163     41162     41164
     41165     41166     41165     41167     41168     41169     41168     41170
     41171     41172     41171     41173     41174     41175     41174     41176
     41177     41178     41177     41179     41180     41181     41180     41182
     41183     41184     41183     41185     41186     41187     41186     41188
     41189     41190     41189     41191     41192     41193     41192     41194
     41195     41196     41195     41197     41198     41199     41198     41200
     41201     41202     41201     41203     41204     41205     41204     41206
     41207     41208     41207     41209     41210     41211     41210     41212
     41213     41214     41213     41215     41216     41217     41216     41218
     41219     41220     41219     41221     41222     41223     41222     41224
     41225     41226     41225     41227     41228     41229     41228     41230
     41231     41232     41231     41233     41234     41235     41234     41236
     41237     41238     41237     41239     41240     41241     41240     41242
     41243     41244     41243     41245     41246     41247     41246     41248
     41249     41250     41249     41251     41252     41253     41252     41254
     41255     41256     41255     41257     41258     41259     41258     41260
     41261     41262     41261     41263     41264     41265     41264     41266
     41267     41268     41267     41269     41270     41271     41270     41272
     41273     41274     41273     41275     41276     41277     41276     41278
     41279     41280     41279     41281     41282     41283     41282     41284
     41285     41286     41285     41287     41288     41289     41288     41290
     41291     41292     41291     41293     41294     41295     41294     41296
     41297     41298     41297     41299     41300     41301     41300     41302
     41303     41304     41303     41305     41306     41307     41306     41308
     41309     41310     41309     41311     41312     41313     41312     41314
     41315     41316     41315     41317     41318     41319     41318     41320
     41321     41322     41321     41323     41324     41325     41324     41326
     41327     41328     41327     41329     41330     41331     41330     41332
     41333     41334     41333     41335     41336     41337     41336     41338
     41339     41340     41339     41341     41342     41343     41342     41344
     41345     41346     41345     41347     41348     41349     41348     41350
     41351     41352     41351     41353     41354     41355     41354     41356
     41357     41358     41357     41359     41360     41361     41360     41362
     41363     41364     41363     41365     41366     41367     41366     41368
     41369     41370     41369     41371     41372     41373     41372     41374
     41375     41376     41375     41377     41378     41379     41378     41380
     41381     41382     41381     41383     41384     41385     41384     41386
     41387     41388     41387     41389     41390     41391     41390     41392
     41393     41394     41393     41395     41396     41397     41396     41398
     41399     41400     41399     41401     41402     41403     41402     41404
     41405     41406     41405     41407     41408     41409     41408     41410
     41411     41412     41411     41413     41414     41415     41414     41416
     41417     41418     41417     41419     41420     41421     41420     41422
     41423     41424     41423     41425     41426     41427     41426     41428
     41429     41430     41429     41431     41432     41433     41432     41434
     41435     41436     41435     41437     41438     41439     41438     41440
     41441     41442     41441     41443     41444     41445     41444     41446
     41447     41448     41447     41449     41450     41451     41450     41452
     41453     41454     41453     41455     41456     41457     41456     41458
     41459     41460     41459     41461     41462     41463     41462     41464
     41465     41466     41465     41467     41468     41469     41468     41470
     41471     41472     41471     41473     41474     41475     41474     41476
     41477     41478     41477     41479     41480     41481     41480     41482
     41483     41484     41483     41485     41486     41487     41486     41488
     41489     41490     41489     41491     41492     41493     41492     41494
     41495     41496     41495     41497     41498     41499     41498     41500
     41501     41502     41501     41503     41504     41505     41504     41506
     41507     41508     41507     41509     41510     41511     41510     41512
     41513     41514     41513     41515     41516     41517     41516     41518
     41519     41520     41519     41521     41522     41523     41522     41524
     41525     41526     41525     41527     41528     41529     41528     41530
     41531     41532     41531     41533     41534     41535     41534     41536
     41537     41538     41537     41539     41540     41541     41540     41542
     41543     41544     41543     41545     41546     41547     41546     41548
     41549     41550     41549     41551     41552     41553     41552     41554
     41555     41556     41555     41557     41558     41559     41558     41560
     41561     41562     41561     41563     41564     41565     41564     41566
     41567     41568     41567     41569     41570     41571     41570     41572
     41573     41574     41573     41575     41576     41577     41576     41578
     41579     41580     41579     41581     41582     41583     41582     41584
     41585     41586     41585     41587     41588     41589     41588     41590
     41591     41592     41591     41593     41594     41595     41594     41596
     41597     41598     41597     41599     41600     41601     41600     41602
     41603     41604     41603     41605     41606     41607     41606     41608
     41609     41610     41609     41611     41612     41613     41612     41614
     41615     41616     41615     41617     41618     41619     41618     41620
     41621     41622     41621     41623     41624     41625     41624     41626
     41627     41628     41627     41629     41630     41631     41630     41632
     41633     41634     41633     41635     41636     41637     41636     41638
     41639     41640     41639     41641     41642     41643     41642     41644
     41645     41646     41645     41647     41648     41649     41648     41650
     41651     41652     41651     41653     41654     41655     41654     41656
     41657     41658     41657     41659     41660     41661     41660     41662
     41663     41664     41663     41665     41666     41667     41666     41668
     41669     41670     41669     41671     41672     41673     41672     41674
     41675     41676     41675     41677     41678     41679     41678     41680
     41681     41682     41681     41683     41684     41685     41684     41686
     41687     41688     41687     41689     41690     41691     41690     41692
     41693     41694     41693     41695     41696     41697     41696     41698
     41699     41700     41699     41701     41702     41703     41702     41704
     41705     41706     41705     41707     41708     41709     41708     41710
     41711     41712     41711     41713     41714     41715     41714     41716
     41717     41718     41717     41719     41720     41721     41720     41722
     41723     41724     41723     41725     41726     41727     41726     41728
     41729     41730     41729     41731     41732     41733     41732     41734
     41735     41736     41735     41737     41738     41739     41738     41740
     41741     41742     41741     41743     41744     41745     41744     41746
     41747     41748     41747     41749     41750     41751     41750     41752
     41753     41754     41753     41755     41756     41757     41756     41758
     41759     41760     41759     41761     41762     41763     41762     41764
     41765     41766     41765     41767     41768     41769     41768     41770
     41771     41772     41771     41773     41774     41775     41774     41776
     41777     41778     41777     41779     41780     41781     41780     41782
     41783     41784     41783     41785     41786     41787     41786     41788
     41789     41790     41789     41791     41792     41793     41792     41794
     41795     41796     41795     41797     41798     41799     41798     41800
     41801     41802     41801     41803     41804     41805     41804     41806
     41807     41808     41807     41809     41810     41811     41810     41812
     41813     41814     41813     41815     41816     41817     41816     41818
     41819     41820     41819     41821     41822     41823     41822     41824
     41825     41826     41825     41827     41828     41829     41828     41830
     41831     41832     41831     41833     41834     41835     41834     41836
     41837     41838     41837     41839     41840     41841     41840     41842
     41843     41844     41843     41845     41846     41847     41846     41848
     41849     41850     41849     41851     41852     41853     41852     41854
     41855     41856     41855     41857     41858     41859     41858     41860
     41861     41862     41861     41863     41864     41865     41864     41866
     41867     41868     41867     41869     41870     41871     41870     41872
     41873     41874     41873     41875     41876     41877     41876     41878
     41879     41880     41879     41881     41882     41883     41882     41884
     41885     41886     41885     41887     41888     41889     41888     41890
     41891     41892     41891     41893     41894     41895     41894     41896
     41897     41898     41897     41899     41900     41901     41900     41902
     41903     41904     41903     41905     41906     41907     41906     41908
     41909     41910     41909     41911     41912     41913     41912     41914
     41915     41916     41915     41917     41918     41919     41918     41920
     41921     41922     41921     41923     41924     41925     41924     41926
     41927     41928     41927     41929     41930     41931     41930     41932
     41933     41934     41933     41935     41936     41937     41936     41938
     41939     41940     41939     41941     41942     41943     41942     41944
     41945     41946     41945     41947     41948     41949     41948     41950
     41951     41952     41951     41953     41954     41955     41954     41956
     41957     41958     41957     41959     41960     41961     41960     41962
     41963     41964     41963     41965     41966     41967     41966     41968
     41969     41970     41969     41971     41972     41973     41972     41974
     41975     41976     41975     41977     41978     41979     41978     41980
     41981     41982     41981     41983     41984     41985     41984     41986
     41987     41988     41987     41989     41990     41991     41990     41992
     41993     41994     41993     41995     41996     41997     41996     41998
     41999     42000     41999     42001     42002     42003     42002     42004
     42005     42006     42005     42007     42008     42009     42008     42010
     42011     42012     42011     42013     42014     42015     42014     42016
     42017     42018     42017     42019     42020     42021     42020     42022
     42023     42024     42023     42025     42026     42027     42026     42028
     42029     42030     42029     42031     42032     42033     42032     42034
     42035     42036     42035     42037     42038     42039     42038     42040
     42041     42042     42041     42043     42044     42045     42044     42046
     42047     42048     42047     42049     42050     42051     42050     42052
     42053     42054     42053     42055     42056     42057     42056     42058
     42059     42060     42059     42061     42062     42063     42062     42064
     42065     42066     42065     42067     42068     42069     42068     42070
     42071     42072     42071     42073     42074     42075     42074     42076
     42077     42078     42077     42079     42080     42081     42080     42082
     42083     42084     42083     42085     42086     42087     42086     42088
     42089     42090     42089     42091     42092     42093     42092     42094
     42095     42096     42095     42097     42098     42099     42098     42100
     42101     42102     42101     42103     42104     42105     42104     42106
     42107     42108     42107     42109     42110     42111     42110     42112
     42113     42114     42113     42115     42116     42117     42116     42118
     42119     42120     42119     42121     42122     42123     42122     42124
     42125     42126     42125     42127     42128     42129     42128     42130
     42131     42132     42131     42133     42134     42135     42134     42136
     42137     42138     42137     42139     42140     42141     42140     42142
     42143     42144     42143     42145     42146     42147     42146     42148
     42149     42150     42149     42151     42152     42153     42152     42154
     42155     42156     42155     42157     42158     42159     42158     42160
     42161     42162     42161     42163     42164     42165     42164     42166
     42167     42168     42167     42169     42170     42171     42170     42172
     42173     42174     42173     42175     42176     42177     42176     42178
     42179     42180     42179     42181     42182     42183     42182     42184
     42185     42186     42185     42187     42188     42189     42188     42190
     42191     42192     42191     42193     42194     42195     42194     42196
     42197     42198     42197     42199     42200     42201     42200     42202
     42203     42204     42203     42205     42206     42207     42206     42208
     42209     42210     42209     42211     42212     42213     42212     42214
     42215     42216     42215     42217     42218     42219     42218     42220
     42221     42222     42221     42223     42224     42225     42224     42226
     42227     42228     42227     42229     42230     42231     42230     42232
     42233     42234     42233     42235     42236     42237     42236     42238
     42239     42240     42239     42241     42242     42243     42242     42244
     42245     42246     42245     42247     42248     42249     42248     42250
     42251     42252     42251     42253     42254     42255     42254     42256
     42257     42258     42257     42259     42260     42261     42260     42262
     42263     42264     42263     42265     42266     42267     42266     42268
     42269     42270     42269     42271     42272     42273     42272     42274
     42275     42276     42275     42277     42278     42279     42278     42280
     42281     42282     42281     42283     42284     42285     42284     42286
     42287     42288     42287     42289     42290     42291     42290     42292
     42293     42294     42293     42295     42296     42297     42296     42298
     42299     42300     42299     42301     42302     42303     42302     42304
     42305     42306     42305     42307     42308     42309     42308     42310
     42311     42312     42311     42313     42314     42315     42314     42316
     42317     42318     42317     42319     42320     42321     42320     42322
     42323     42324     42323     42325     42326     42327     42326     42328
     42329     42330     42329     42331     42332     42333     42332     42334
     42335     42336     42335     42337     42338     42339     42338     42340
     42341     42342     42341     42343     42344     42345     42344     42346
     42347     42348     42347     42349     42350     42351     42350     42352
     42353     42354     42353     42355     42356     42357     42356     42358
     42359     42360     42359     42361     42362     42363     42362     42364
     42365     42366     42365     42367     42368     42369     42368     42370
     42371     42372     42371     42373     42374     42375     42374     42376
     42377     42378     42377     42379     42380     42381     42380     42382
     42383     42384     42383     42385     42386     42387     42386     42388
     42389     42390     42389     42391     42392     42393     42392     42394
     42395     42396     42395     42397     42398     42399     42398     42400
     42401     42402     42401     42403     42404     42405     42404     42406
     42407     42408     42407     42409     42410     42411     42410     42412
     42413     42414     42413     42415     42416     42417     42416     42418
     42419     42420     42419     42421     42422     42423     42422     42424
     42425     42426     42425     42427     42428     42429     42428     42430
     42431     42432     42431     42433     42434     42435     42434     42436
     42437     42438     42437     42439     42440     42441     42440     42442
     42443     42444     42443     42445     42446     42447     42446     42448
     42449     42450     42449     42451     42452     42453     42452     42454
     42455     42456     42455     42457     42458     42459     42458     42460
     42461     42462     42461     42463     42464     42465     42464     42466
     42467     42468     42467     42469     42470     42471     42470     42472
     42473     42474     42473     42475     42476     42477     42476     42478
     42479     42480     42479     42481     42482     42483     42482     42484
     42485     42486     42485     42487     42488     42489     42488     42490
     42491     42492     42491     42493     42494     42495     42494     42496
     42497     42498     42497     42499     42500     42501     42500     42502
     42503     42504     42503     42505     42506     42507     42506     42508
     42509     42510     42509     42511     42512     42513     42512     42514
     42515     42516     42515     42517     42518     42519     42518     42520
     42521     42522     42521     42523     42524     42525     42524     42526
     42527     42528     42527     42529     42530     42531     42530     42532
     42533     42534     42533     42535     42536     42537     42536     42538
     42539     42540     42539     42541     42542     42543     42542     42544
     42545     42546     42545     42547     42548     42549     42548     42550
     42551     42552     42551     42553     42554     42555     42554     42556
     42557     42558     42557     42559     42560     42561     42560     42562
     42563     42564     42563     42565     42566     42567     42566     42568
     42569     42570     42569     42571     42572     42573     42572     42574
     42575     42576     42575     42577     42578     42579     42578     42580
     42581     42582     42581     42583     42584     42585     42584     42586
     42587     42588     42587     42589     42590     42591     42590     42592
     42593     42594     42593     42595     42596     42597     42596     42598
     42599     42600     42599     42601     42602     42603     42602     42604
     42605     42606     42605     42607     42608     42609     42608     42610
     42611     42612     42611     42613     42614     42615     42614     42616
     42617     42618     42617     42619     42620     42621     42620     42622
     42623     42624     42623     42625     42626     42627     42626     42628
     42629     42630     42629     42631     42632     42633     42632     42634
     42635     42636     42635     42637     42638     42639     42638     42640
     42641     42642     42641     42643     42644     42645     42644     42646
     42647     42648     42647     42649     42650     42651     42650     42652
     42653     42654     42653     42655     42656     42657     42656     42658
     42659     42660     42659     42661     42662     42663     42662     42664
     42665     42666     42665     42667     42668     42669     42668     42670
     42671     42672     42671     42673     42674     42675     42674     42676
     42677     42678     42677     42679     42680     42681     42680     42682
     42683     42684     42683     42685     42686     42687     42686     42688
     42689     42690     42689     42691     42692     42693     42692     42694
     42695     42696     42695     42697     42698     42699     42698     42700
     42701     42702     42701     42703     42704     42705     42704     42706
     42707     42708     42707     42709     42710     42711     42710     42712
     42713     42714     42713     42715     42716     42717     42716     42718
     42719     42720     42719     42721     42722     42723     42722     42724
     42725     42726     42725     42727     42728     42729     42728     42730
     42731     42732     42731     42733     42734     42735     42734     42736
     42737     42738     42737     42739     42740     42741     42740     42742
     42743     42744     42743     42745     42746     42747     42746     42748
     42749     42750     42749     42751     42752     42753     42752     42754
     42755     42756     42755     42757     42758     42759     42758     42760
     42761     42762     42761     42763     42764     42765     42764     42766
     42767     42768     42767     42769     42770     42771     42770     42772
     42773     42774     42773     42775     42776     42777     42776     42778
     42779     42780     42779     42781     42782     42783     42782     42784
     42785     42786     42785     42787     42788     42789     42788     42790
     42791     42792     42791     42793     42794     42795     42794     42796
     42797     42798     42797     42799     42800     42801     42800     42802
     42803     42804     42803     42805     42806     42807     42806     42808
     42809     42810     42809     42811     42812     42813     42812     42814
     42815     42816     42815     42817     42818     42819     42818     42820
     42821     42822     42821     42823     42824     42825     42824     42826
     42827     42828     42827     42829     42830     42831     42830     42832
     42833     42834     42833     42835     42836     42837     42836     42838
     42839     42840     42839     42841     42842     42843     42842     42844
     42845     42846     42845     42847     42848     42849     42848     42850
     42851     42852     42851     42853     42854     42855     42854     42856
     42857     42858     42857     42859     42860     42861     42860     42862
     42863     42864     42863     42865     42866     42867     42866     42868
     42869     42870     42869     42871     42872     42873     42872     42874
     42875     42876     42875     42877     42878     42879     42878     42880
     42881     42882     42881     42883     42884     42885     42884     42886
     42887     42888     42887     42889     42890     42891     42890     42892
     42893     42894     42893     42895     42896     42897     42896     42898
     42899     42900     42899     42901     42902     42903     42902     42904
     42905     42906     42905     42907     42908     42909     42908     42910
     42911     42912     42911     42913     42914     42915     42914     42916
     42917     42918     42917     42919     42920     42921     42920     42922
     42923     42924     42923     42925     42926     42927     42926     42928
     42929     42930     42929     42931     42932     42933     42932     42934
     42935     42936     42935     42937     42938     42939     42938     42940
     42941     42942     42941     42943     42944     42945     42944     42946
     42947     42948     42947     42949     42950     42951     42950     42952
     42953     42954     42953     42955     42956     42957     42956     42958
     42959     42960     42959     42961     42962     42963     42962     42964
     42965     42966     42965     42967     42968     42969     42968     42970
     42971     42972     42971     42973     42974     42975     42974     42976
     42977     42978     42977     42979     42980     42981     42980     42982
     42983     42984     42983     42985     42986     42987     42986     42988
     42989     42990     42989     42991     42992     42993     42992     42994
     42995     42996     42995     42997     42998     42999     42998     43000
     43001     43002     43001     43003     43004     43005     43004     43006
     43007     43008     43007     43009     43010     43011     43010     43012
     43013     43014     43013     43015     43016     43017     43016     43018
     43019     43020     43019     43021     43022     43023     43022     43024
     43025     43026     43025     43027     43028     43029     43028     43030
     43031     43032     43031     43033     43034     43035     43034     43036
     43037     43038     43037     43039     43040     43041     43040     43042
     43043     43044     43043     43045     43046     43047     43046     43048
     43049     43050     43049     43051     43052     43053     43052     43054
     43055     43056     43055     43057     43058     43059     43058     43060
     43061     43062     43061     43063     43064     43065     43064     43066
     43067     43068     43067     43069     43070     43071     43070     43072
     43073     43074     43073     43075     43076     43077     43076     43078
     43079     43080     43079     43081     43082     43083     43082     43084
     43085     43086     43085     43087     43088     43089     43088     43090
     43091     43092     43091     43093     43094     43095     43094     43096
     43097     43098     43097     43099     43100     43101     43100     43102
     43103     43104     43103     43105     43106     43107     43106     43108
     43109     43110     43109     43111     43112     43113     43112     43114
     43115     43116     43115     43117     43118     43119     43118     43120
     43121     43122     43121     43123     43124     43125     43124     43126
     43127     43128     43127     43129     43130     43131     43130     43132
     43133     43134     43133     43135     43136     43137     43136     43138
     43139     43140     43139     43141     43142     43143     43142     43144
     43145     43146     43145     43147     43148     43149     43148     43150
     43151     43152     43151     43153     43154     43155     43154     43156
     43157     43158     43157     43159     43160     43161     43160     43162
     43163     43164     43163     43165     43166     43167     43166     43168
     43169     43170     43169     43171     43172     43173     43172     43174
     43175     43176     43175     43177     43178     43179     43178     43180
     43181     43182     43181     43183     43184     43185     43184     43186
     43187     43188     43187     43189     43190     43191     43190     43192
     43193     43194     43193     43195     43196     43197     43196     43198
     43199     43200     43199     43201     43202     43203     43202     43204
     43205     43206     43205     43207     43208     43209     43208     43210
     43211     43212     43211     43213     43214     43215     43214     43216
     43217     43218     43217     43219     43220     43221     43220     43222
     43223     43224     43223     43225     43226     43227     43226     43228
     43229     43230     43229     43231     43232     43233     43232     43234
     43235     43236     43235     43237     43238     43239     43238     43240
     43241     43242     43241     43243     43244     43245     43244     43246
     43247     43248     43247     43249     43250     43251     43250     43252
     43253     43254     43253     43255     43256     43257     43256     43258
     43259     43260     43259     43261     43262     43263     43262     43264
     43265     43266     43265     43267     43268     43269     43268     43270
     43271     43272     43271     43273     43274     43275     43274     43276
     43277     43278     43277     43279     43280     43281     43280     43282
     43283     43284     43283     43285     43286     43287     43286     43288
     43289     43290     43289     43291     43292     43293     43292     43294
     43295     43296     43295     43297     43298     43299     43298     43300
     43301     43302     43301     43303     43304     43305     43304     43306
     43307     43308     43307     43309     43310     43311     43310     43312
     43313     43314     43313     43315     43316     43317     43316     43318
     43319     43320     43319     43321     43322     43323     43322     43324
     43325     43326     43325     43327     43328     43329     43328     43330
     43331     43332     43331     43333     43334     43335     43334     43336
     43337     43338     43337     43339     43340     43341     43340     43342
     43343     43344     43343     43345     43346     43347     43346     43348
     43349     43350     43349     43351     43352     43353     43352     43354
     43355     43356     43355     43357     43358     43359     43358     43360
     43361     43362     43361     43363     43364     43365     43364     43366
     43367     43368     43367     43369     43370     43371     43370     43372
     43373     43374     43373     43375     43376     43377     43376     43378
     43379     43380     43379     43381     43382     43383     43382     43384
     43385     43386     43385     43387     43388     43389     43388     43390
     43391     43392     43391     43393     43394     43395     43394     43396
     43397     43398     43397     43399     43400     43401     43400     43402
     43403     43404     43403     43405     43406     43407     43406     43408
     43409     43410     43409     43411     43412     43413     43412     43414
     43415     43416     43415     43417     43418     43419     43418     43420
     43421     43422     43421     43423     43424     43425     43424     43426
     43427     43428     43427     43429     43430     43431     43430     43432
     43433     43434     43433     43435     43436     43437     43436     43438
     43439     43440     43439     43441     43442     43443     43442     43444
     43445     43446     43445     43447     43448     43449     43448     43450
     43451     43452     43451     43453     43454     43455     43454     43456
     43457     43458     43457     43459     43460     43461     43460     43462
     43463     43464     43463     43465     43466     43467     43466     43468
     43469     43470     43469     43471     43472     43473     43472     43474
     43475     43476     43475     43477     43478     43479     43478     43480
     43481     43482     43481     43483     43484     43485     43484     43486
     43487     43488     43487     43489     43490     43491     43490     43492
     43493     43494     43493     43495     43496     43497     43496     43498
     43499     43500     43499     43501     43502     43503     43502     43504
     43505     43506     43505     43507     43508     43509     43508     43510
     43511     43512     43511     43513     43514     43515     43514     43516
     43517     43518     43517     43519     43520     43521     43520     43522
     43523     43524     43523     43525     43526     43527     43526     43528
     43529     43530     43529     43531     43532     43533     43532     43534
     43535     43536     43535     43537     43538     43539     43538     43540
     43541     43542     43541     43543     43544     43545     43544     43546
     43547     43548     43547     43549     43550     43551     43550     43552
     43553     43554     43553     43555     43556     43557     43556     43558
     43559     43560     43559     43561     43562     43563     43562     43564
     43565     43566     43565     43567     43568     43569     43568     43570
     43571     43572     43571     43573     43574     43575     43574     43576
     43577     43578     43577     43579     43580     43581     43580     43582
     43583     43584     43583     43585     43586     43587     43586     43588
     43589     43590     43589     43591     43592     43593     43592     43594
     43595     43596     43595     43597     43598     43599     43598     43600
     43601     43602     43601     43603     43604     43605     43604     43606
     43607     43608     43607     43609     43610     43611     43610     43612
     43613     43614     43613     43615     43616     43617     43616     43618
     43619     43620     43619     43621     43622     43623     43622     43624
     43625     43626     43625     43627     43628     43629     43628     43630
     43631     43632     43631     43633     43634     43635     43634     43636
     43637     43638     43637     43639     43640     43641     43640     43642
     43643     43644     43643     43645     43646     43647     43646     43648
     43649     43650     43649     43651     43652     43653     43652     43654
     43655     43656     43655     43657     43658     43659     43658     43660
     43661     43662     43661     43663     43664     43665     43664     43666
     43667     43668     43667     43669     43670     43671     43670     43672
     43673     43674     43673     43675     43676     43677     43676     43678
     43679     43680     43679     43681     43682     43683     43682     43684
     43685     43686     43685     43687     43688     43689     43688     43690
     43691     43692     43691     43693     43694     43695     43694     43696
     43697     43698     43697     43699     43700     43701     43700     43702
     43703     43704     43703     43705     43706     43707     43706     43708
     43709     43710     43709     43711     43712     43713     43712     43714
     43715     43716     43715     43717     43718     43719     43718     43720
     43721     43722     43721     43723     43724     43725     43724     43726
     43727     43728     43727     43729     43730     43731     43730     43732
     43733     43734     43733     43735     43736     43737     43736     43738
     43739     43740     43739     43741     43742     43743     43742     43744
     43745     43746     43745     43747     43748     43749     43748     43750
     43751     43752     43751     43753     43754     43755     43754     43756
     43757     43758     43757     43759     43760     43761     43760     43762
     43763     43764     43763     43765     43766     43767     43766     43768
     43769     43770     43769     43771     43772     43773     43772     43774
     43775     43776     43775     43777     43778     43779     43778     43780
     43781     43782     43781     43783     43784     43785     43784     43786
     43787     43788     43787     43789     43790     43791     43790     43792
     43793     43794     43793     43795     43796     43797     43796     43798
     43799     43800     43799     43801     43802     43803     43802     43804
     43805     43806     43805     43807     43808     43809     43808     43810
     43811     43812     43811     43813     43814     43815     43814     43816
     43817     43818     43817     43819     43820     43821     43820     43822
     43823     43824     43823     43825     43826     43827     43826     43828
     43829     43830     43829     43831     43832     43833     43832     43834
     43835     43836     43835     43837     43838     43839     43838     43840
     43841     43842     43841     43843     43844     43845     43844     43846
     43847     43848     43847     43849     43850     43851     43850     43852
     43853     43854     43853     43855     43856     43857     43856     43858
     43859     43860     43859     43861     43862     43863     43862     43864
     43865     43866     43865     43867     43868     43869     43868     43870
     43871     43872     43871     43873     43874     43875     43874     43876
     43877     43878     43877     43879     43880     43881     43880     43882
     43883     43884     43883     43885     43886     43887     43886     43888
     43889     43890     43889     43891     43892     43893     43892     43894
     43895     43896     43895     43897     43898     43899     43898     43900
     43901     43902     43901     43903     43904     43905     43904     43906
     43907     43908     43907     43909     43910     43911     43910     43912
     43913     43914     43913     43915     43916     43917     43916     43918
     43919     43920     43919     43921     43922     43923     43922     43924
     43925     43926     43925     43927     43928     43929     43928     43930
     43931     43932     43931     43933     43934     43935     43934     43936
     43937     43938     43937     43939     43940     43941     43940     43942
     43943     43944     43943     43945     43946     43947     43946     43948
     43949     43950     43949     43951     43952     43953     43952     43954
     43955     43956     43955     43957     43958     43959     43958     43960
     43961     43962     43961     43963     43964     43965     43964     43966
     43967     43968     43967     43969     43970     43971     43970     43972
     43973     43974     43973     43975     43976     43977     43976     43978
     43979     43980     43979     43981     43982     43983     43982     43984
     43985     43986     43985     43987     43988     43989     43988     43990
     43991     43992     43991     43993     43994     43995     43994     43996
     43997     43998     43997     43999     44000     44001     44000     44002
     44003     44004     44003     44005     44006     44007     44006     44008
     44009     44010     44009     44011     44012     44013     44012     44014
     44015     44016     44015     44017     44018     44019     44018     44020
     44021     44022     44021     44023     44024     44025     44024     44026
     44027     44028     44027     44029     44030     44031     44030     44032
     44033     44034     44033     44035     44036     44037     44036     44038
     44039     44040     44039     44041     44042     44043     44042     44044
     44045     44046     44045     44047     44048     44049     44048     44050
     44051     44052     44051     44053     44054     44055     44054     44056
     44057     44058     44057     44059     44060     44061     44060     44062
     44063     44064     44063     44065     44066     44067     44066     44068
     44069     44070     44069     44071     44072     44073     44072     44074
     44075     44076     44075     44077     44078     44079     44078     44080
     44081     44082     44081     44083     44084     44085     44084     44086
     44087     44088     44087     44089     44090     44091     44090     44092
     44093     44094     44093     44095     44096     44097     44096     44098
     44099     44100     44099     44101     44102     44103     44102     44104
     44105     44106     44105     44107     44108     44109     44108     44110
     44111     44112     44111     44113     44114     44115     44114     44116
     44117     44118     44117     44119     44120     44121     44120     44122
     44123     44124     44123     44125     44126     44127     44126     44128
     44129     44130     44129     44131     44132     44133     44132     44134
     44135     44136     44135     44137     44138     44139     44138     44140
     44141     44142     44141     44143     44144     44145     44144     44146
     44147     44148     44147     44149     44150     44151     44150     44152
     44153     44154     44153     44155     44156     44157     44156     44158
     44159     44160     44159     44161     44162     44163     44162     44164
     44165     44166     44165     44167     44168     44169     44168     44170
     44171     44172     44171     44173     44174     44175     44174     44176
     44177     44178     44177     44179     44180     44181     44180     44182
     44183     44184     44183     44185     44186     44187     44186     44188
     44189     44190     44189     44191     44192     44193     44192     44194
     44195     44196     44195     44197     44198     44199     44198     44200
     44201     44202     44201     44203     44204     44205     44204     44206
     44207     44208     44207     44209     44210     44211     44210     44212
     44213     44214     44213     44215     44216     44217     44216     44218
     44219     44220     44219     44221     44222     44223     44222     44224
     44225     44226     44225     44227     44228     44229     44228     44230
     44231     44232     44231     44233     44234     44235     44234     44236
     44237     44238     44237     44239     44240     44241     44240     44242
     44243     44244     44243     44245     44246     44247     44246     44248
     44249     44250     44249     44251     44252     44253     44252     44254
     44255     44256     44255     44257     44258     44259     44258     44260
     44261     44262     44261     44263     44264     44265     44264     44266
     44267     44268     44267     44269     44270     44271     44270     44272
     44273     44274     44273     44275     44276     44277     44276     44278
     44279     44280     44279     44281     44282     44283     44282     44284
     44285     44286     44285     44287     44288     44289     44288     44290
     44291     44292     44291     44293     44294     44295     44294     44296
     44297     44298     44297     44299     44300     44301     44300     44302
     44303     44304     44303     44305     44306     44307     44306     44308
     44309     44310     44309     44311     44312     44313     44312     44314
     44315     44316     44315     44317     44318     44319     44318     44320
     44321     44322     44321     44323     44324     44325     44324     44326
     44327     44328     44327     44329     44330     44331     44330     44332
     44333     44334     44333     44335     44336     44337     44336     44338
     44339     44340     44339     44341     44342     44343     44342     44344
     44345     44346     44345     44347     44348     44349     44348     44350
     44351     44352     44351     44353     44354     44355     44354     44356
     44357     44358     44357     44359     44360     44361     44360     44362
     44363     44364     44363     44365     44366     44367     44366     44368
     44369     44370     44369     44371     44372     44373     44372     44374
     44375     44376     44375     44377     44378     44379     44378     44380
     44381     44382     44381     44383     44384     44385     44384     44386
     44387     44388     44387     44389     44390     44391     44390     44392
     44393     44394     44393     44395     44396     44397     44396     44398
     44399     44400     44399     44401     44402     44403     44402     44404
     44405     44406     44405     44407     44408     44409     44408     44410
     44411     44412     44411     44413     44414     44415     44414     44416
     44417     44418     44417     44419     44420     44421     44420     44422
     44423     44424     44423     44425     44426     44427     44426     44428
     44429     44430     44429     44431     44432     44433     44432     44434
     44435     44436     44435     44437     44438     44439     44438     44440
     44441     44442     44441     44443     44444     44445     44444     44446
     44447     44448     44447     44449     44450     44451     44450     44452
     44453     44454     44453     44455     44456     44457     44456     44458
     44459     44460     44459     44461     44462     44463     44462     44464
     44465     44466     44465     44467     44468     44469     44468     44470
     44471     44472     44471     44473     44474     44475     44474     44476
     44477     44478     44477     44479     44480     44481     44480     44482
     44483     44484     44483     44485     44486     44487     44486     44488
     44489     44490     44489     44491     44492     44493     44492     44494
     44495     44496     44495     44497     44498     44499     44498     44500
     44501     44502     44501     44503     44504     44505     44504     44506
     44507     44508     44507     44509     44510     44511     44510     44512
     44513     44514     44513     44515     44516     44517     44516     44518
     44519     44520     44519     44521     44522     44523     44522     44524
     44525     44526     44525     44527     44528     44529     44528     44530
     44531     44532     44531     44533     44534     44535     44534     44536
     44537     44538     44537     44539     44540     44541     44540     44542
     44543     44544     44543     44545     44546     44547     44546     44548
     44549     44550     44549     44551     44552     44553     44552     44554
     44555     44556     44555     44557     44558     44559     44558     44560
     44561     44562     44561     44563     44564     44565     44564     44566
     44567     44568     44567     44569     44570     44571     44570     44572
     44573     44574     44573     44575     44576     44577     44576     44578
     44579     44580     44579     44581     44582     44583     44582     44584
     44585     44586     44585     44587     44588     44589     44588     44590
     44591     44592     44591     44593     44594     44595     44594     44596
     44597     44598     44597     44599     44600     44601     44600     44602
     44603     44604     44603     44605     44606     44607     44606     44608
     44609     44610     44609     44611     44612     44613     44612     44614
     44615     44616     44615     44617     44618     44619     44618     44620
     44621     44622     44621     44623     44624     44625     44624     44626
     44627     44628     44627     44629     44630     44631     44630     44632
     44633     44634     44633     44635     44636     44637     44636     44638
     44639     44640     44639     44641     44642     44643     44642     44644
     44645     44646     44645     44647     44648     44649     44648     44650
     44651     44652     44651     44653     44654     44655     44654     44656
     44657     44658     44657     44659     44660     44661     44660     44662
     44663     44664     44663     44665     44666     44667     44666     44668
     44669     44670     44669     44671     44672     44673     44672     44674
     44675     44676     44675     44677     44678     44679     44678     44680
     44681     44682     44681     44683     44684     44685     44684     44686
     44687     44688     44687     44689     44690     44691     44690     44692
     44693     44694     44693     44695     44696     44697     44696     44698
     44699     44700     44699     44701     44702     44703     44702     44704
     44705     44706     44705     44707     44708     44709     44708     44710
     44711     44712     44711     44713     44714     44715     44714     44716
     44717     44718     44717     44719     44720     44721     44720     44722
     44723     44724     44723     44725     44726     44727     44726     44728
     44729     44730     44729     44731     44732     44733     44732     44734
     44735     44736     44735     44737     44738     44739     44738     44740
     44741     44742     44741     44743     44744     44745     44744     44746
     44747     44748     44747     44749     44750     44751     44750     44752
     44753     44754     44753     44755     44756     44757     44756     44758
     44759     44760     44759     44761     44762     44763     44762     44764
     44765     44766     44765     44767     44768     44769     44768     44770
     44771     44772     44771     44773     44774     44775     44774     44776
     44777     44778     44777     44779     44780     44781     44780     44782
     44783     44784     44783     44785     44786     44787     44786     44788
     44789     44790     44789     44791     44792     44793     44792     44794
     44795     44796     44795     44797     44798     44799     44798     44800
     44801     44802     44801     44803     44804     44805     44804     44806
     44807     44808     44807     44809     44810     44811     44810     44812
     44813     44814     44813     44815     44816     44817     44816     44818
     44819     44820     44819     44821     44822     44823     44822     44824
     44825     44826     44825     44827     44828     44829     44828     44830
     44831     44832     44831     44833     44834     44835     44834     44836
     44837     44838     44837     44839     44840     44841     44840     44842
     44843     44844     44843     44845     44846     44847     44846     44848
     44849     44850     44849     44851     44852     44853     44852     44854
     44855     44856     44855     44857     44858     44859     44858     44860
     44861     44862     44861     44863     44864     44865     44864     44866
     44867     44868     44867     44869     44870     44871     44870     44872
     44873     44874     44873     44875     44876     44877     44876     44878
     44879     44880     44879     44881     44882     44883     44882     44884
     44885     44886     44885     44887     44888     44889     44888     44890
     44891     44892     44891     44893     44894     44895     44894     44896
     44897     44898     44897     44899     44900     44901     44900     44902
     44903     44904     44903     44905     44906     44907     44906     44908
     44909     44910     44909     44911     44912     44913     44912     44914
     44915     44916     44915     44917     44918     44919     44918     44920
     44921     44922     44921     44923     44924     44925     44924     44926
     44927     44928     44927     44929     44930     44931     44930     44932
     44933     44934     44933     44935     44936     44937     44936     44938
     44939     44940     44939     44941     44942     44943     44942     44944
     44945     44946     44945     44947     44948     44949     44948     44950
     44951     44952     44951     44953     44954     44955     44954     44956
     44957     44958     44957     44959     44960     44961     44960     44962
     44963     44964     44963     44965     44966     44967     44966     44968
     44969     44970     44969     44971     44972     44973     44972     44974
     44975     44976     44975     44977     44978     44979     44978     44980
     44981     44982     44981     44983     44984     44985     44984     44986
     44987     44988     44987     44989     44990     44991     44990     44992
     44993     44994     44993     44995     44996     44997     44996     44998
     44999     45000     44999     45001     45002     45003     45002     45004
     45005     45006     45005     45007     45008     45009     45008     45010
     45011     45012     45011     45013     45014     45015     45014     45016
     45017     45018     45017     45019     45020     45021     45020     45022
     45023     45024     45023     45025     45026     45027     45026     45028
     45029     45030     45029     45031     45032     45033     45032     45034
     45035     45036     45035     45037     45038     45039     45038     45040
     45041     45042     45041     45043     45044     45045     45044     45046
     45047     45048     45047     45049     45050     45051     45050     45052
     45053     45054     45053     45055     45056     45057     45056     45058
     45059     45060     45059     45061     45062     45063     45062     45064
     45065     45066     45065     45067     45068     45069     45068     45070
     45071     45072     45071     45073     45074     45075     45074     45076
     45077     45078     45077     45079     45080     45081     45080     45082
     45083     45084     45083     45085     45086     45087     45086     45088
     45089     45090     45089     45091     45092     45093     45092     45094
     45095     45096     45095     45097     45098     45099     45098     45100
     45101     45102     45101     45103     45104     45105     45104     45106
     45107     45108     45107     45109     45110     45111     45110     45112
     45113     45114     45113     45115     45116     45117     45116     45118
     45119     45120     45119     45121     45122     45123     45122     45124
     45125     45126     45125     45127     45128     45129     45128     45130
     45131     45132     45131     45133     45134     45135     45134     45136
     45137     45138     45137     45139     45140     45141     45140     45142
     45143     45144     45143     45145     45146     45147     45146     45148
     45149     45150     45149     45151     45152     45153     45152     45154
     45155     45156     45155     45157     45158     45159     45158     45160
     45161     45162     45161     45163     45164     45165     45164     45166
     45167     45168     45167     45169     45170     45171     45170     45172
     45173     45174     45173     45175     45176     45177     45176     45178
     45179     45180     45179     45181     45182     45183     45182     45184
     45185     45186     45185     45187     45188     45189     45188     45190
     45191     45192     45191     45193     45194     45195     45194     45196
     45197     45198     45197     45199     45200     45201     45200     45202
     45203     45204     45203     45205     45206     45207     45206     45208
     45209     45210     45209     45211     45212     45213     45212     45214
     45215     45216     45215     45217     45218     45219     45218     45220
     45221     45222     45221     45223     45224     45225     45224     45226
     45227     45228     45227     45229     45230     45231     45230     45232
     45233     45234     45233     45235     45236     45237     45236     45238
     45239     45240     45239     45241     45242     45243     45242     45244
     45245     45246     45245     45247     45248     45249     45248     45250
     45251     45252     45251     45253     45254     45255     45254     45256
     45257     45258     45257     45259     45260     45261     45260     45262
     45263     45264     45263     45265     45266     45267     45266     45268
     45269     45270     45269     45271     45272     45273     45272     45274
     45275     45276     45275     45277     45278     45279     45278     45280
     45281     45282     45281     45283     45284     45285     45284     45286
     45287     45288     45287     45289     45290     45291     45290     45292
     45293     45294     45293     45295     45296     45297     45296     45298
     45299     45300     45299     45301     45302     45303     45302     45304
     45305     45306     45305     45307     45308     45309     45308     45310
     45311     45312     45311     45313     45314     45315     45314     45316
     45317     45318     45317     45319     45320     45321     45320     45322
     45323     45324     45323     45325     45326     45327     45326     45328
     45329     45330     45329     45331     45332     45333     45332     45334
     45335     45336     45335     45337     45338     45339     45338     45340
     45341     45342     45341     45343     45344     45345     45344     45346
     45347     45348     45347     45349     45350     45351     45350     45352
     45353     45354     45353     45355     45356     45357     45356     45358
     45359     45360     45359     45361     45362     45363     45362     45364
     45365     45366     45365     45367     45368     45369     45368     45370
     45371     45372     45371     45373     45374     45375     45374     45376
     45377     45378     45377     45379     45380     45381     45380     45382
     45383     45384     45383     45385     45386     45387     45386     45388
     45389     45390     45389     45391     45392     45393     45392     45394
     45395     45396     45395     45397     45398     45399     45398     45400
     45401     45402     45401     45403     45404     45405     45404     45406
     45407     45408     45407     45409     45410     45411     45410     45412
     45413     45414     45413     45415     45416     45417     45416     45418
     45419     45420     45419     45421     45422     45423     45422     45424
     45425     45426     45425     45427     45428     45429     45428     45430
     45431     45432     45431     45433     45434     45435     45434     45436
     45437     45438     45437     45439     45440     45441     45440     45442
     45443     45444     45443     45445     45446     45447     45446     45448
     45449     45450     45449     45451     45452     45453     45452     45454
     45455     45456     45455     45457     45458     45459     45458     45460
     45461     45462     45461     45463     45464     45465     45464     45466
     45467     45468     45467     45469     45470     45471     45470     45472
     45473     45474     45473     45475     45476     45477     45476     45478
     45479     45480     45479     45481     45482     45483     45482     45484
     45485     45486     45485     45487     45488     45489     45488     45490
     45491     45492     45491     45493     45494     45495     45494     45496
     45497     45498     45497     45499     45500     45501     45500     45502
     45503     45504     45503     45505     45506     45507     45506     45508
     45509     45510     45509     45511     45512     45513     45512     45514
     45515     45516     45515     45517     45518     45519     45518     45520
     45521     45522     45521     45523     45524     45525     45524     45526
     45527     45528     45527     45529     45530     45531     45530     45532
     45533     45534     45533     45535     45536     45537     45536     45538
     45539     45540     45539     45541     45542     45543     45542     45544
     45545     45546     45545     45547     45548     45549     45548     45550
     45551     45552     45551     45553     45554     45555     45554     45556
     45557     45558     45557     45559     45560     45561     45560     45562
     45563     45564     45563     45565     45566     45567     45566     45568
     45569     45570     45569     45571     45572     45573     45572     45574
     45575     45576     45575     45577     45578     45579     45578     45580
     45581     45582     45581     45583     45584     45585     45584     45586
     45587     45588     45587     45589     45590     45591     45590     45592
     45593     45594     45593     45595     45596     45597     45596     45598
     45599     45600     45599     45601     45602     45603     45602     45604
     45605     45606     45605     45607     45608     45609     45608     45610
     45611     45612     45611     45613     45614     45615     45614     45616
     45617     45618     45617     45619     45620     45621     45620     45622
     45623     45624     45623     45625     45626     45627     45626     45628
     45629     45630     45629     45631     45632     45633     45632     45634
     45635     45636     45635     45637     45638     45639     45638     45640
     45641     45642     45641     45643     45644     45645     45644     45646
     45647     45648     45647     45649     45650     45651     45650     45652
     45653     45654     45653     45655     45656     45657     45656     45658
     45659     45660     45659     45661     45662     45663     45662     45664
     45665     45666     45665     45667     45668     45669     45668     45670
     45671     45672     45671     45673     45674     45675     45674     45676
     45677     45678     45677     45679     45680     45681     45680     45682
     45683     45684     45683     45685     45686     45687     45686     45688
     45689     45690     45689     45691     45692     45693     45692     45694
     45695     45696     45695     45697     45698     45699     45698     45700
     45701     45702     45701     45703     45704     45705     45704     45706
     45707     45708     45707     45709     45710     45711     45710     45712
     45713     45714     45713     45715     45716     45717     45716     45718
     45719     45720     45719     45721     45722     45723     45722     45724
     45725     45726     45725     45727     45728     45729     45728     45730
     45731     45732     45731     45733     45734     45735     45734     45736
     45737     45738     45737     45739     45740     45741     45740     45742
     45743     45744     45743     45745     45746     45747     45746     45748
     45749     45750     45749     45751     45752     45753     45752     45754
     45755     45756     45755     45757     45758     45759     45758     45760
     45761     45762     45761     45763     45764     45765     45764     45766
     45767     45768     45767     45769     45770     45771     45770     45772
     45773     45774     45773     45775     45776     45777     45776     45778
     45779     45780     45779     45781     45782     45783     45782     45784
     45785     45786     45785     45787     45788     45789     45788     45790
     45791     45792     45791     45793     45794     45795     45794     45796
     45797     45798     45797     45799     45800     45801     45800     45802
     45803     45804     45803     45805     45806     45807     45806     45808
     45809     45810     45809     45811     45812     45813     45812     45814
     45815     45816     45815     45817     45818     45819     45818     45820
     45821     45822     45821     45823     45824     45825     45824     45826
     45827     45828     45827     45829     45830     45831     45830     45832
     45833     45834     45833     45835     45836     45837     45836     45838
     45839     45840     45839     45841     45842     45843     45842     45844
     45845     45846     45845     45847     45848     45849     45848     45850
     45851     45852     45851     45853     45854     45855     45854     45856
     45857     45858     45857     45859     45860     45861     45860     45862
     45863     45864     45863     45865     45866     45867     45866     45868
     45869     45870     45869     45871     45872     45873     45872     45874
     45875     45876     45875     45877     45878     45879     45878     45880
     45881     45882     45881     45883     45884     45885     45884     45886
     45887     45888     45887     45889     45890     45891     45890     45892
     45893     45894     45893     45895     45896     45897     45896     45898
     45899     45900     45899     45901     45902     45903     45902     45904
     45905     45906     45905     45907     45908     45909     45908     45910
     45911     45912     45911     45913     45914     45915     45914     45916
     45917     45918     45917     45919     45920     45921     45920     45922
     45923     45924     45923     45925     45926     45927     45926     45928
     45929     45930     45929     45931     45932     45933     45932     45934
     45935     45936     45935     45937     45938     45939     45938     45940
     45941     45942     45941     45943     45944     45945     45944     45946
     45947     45948     45947     45949     45950     45951     45950     45952
     45953     45954     45953     45955     45956     45957     45956     45958
     45959     45960     45959     45961     45962     45963     45962     45964
     45965     45966     45965     45967     45968     45969     45968     45970
     45971     45972     45971     45973     45974     45975     45974     45976
     45977     45978     45977     45979     45980     45981     45980     45982
     45983     45984     45983     45985     45986     45987     45986     45988
     45989     45990     45989     45991     45992     45993     45992     45994
     45995     45996     45995     45997     45998     45999     45998     46000
     46001     46002     46001     46003     46004     46005     46004     46006
     46007     46008     46007     46009     46010     46011     46010     46012
     46013     46014     46013     46015     46016     46017     46016     46018
     46019     46020     46019     46021     46022     46023     46022     46024
     46025     46026     46025     46027     46028     46029     46028     46030
     46031     46032     46031     46033     46034     46035     46034     46036
     46037     46038     46037     46039     46040     46041     46040     46042
     46043     46044     46043     46045     46046     46047     46046     46048
     46049     46050     46049     46051     46052     46053     46052     46054
     46055     46056     46055     46057     46058     46059     46058     46060
     46061     46062     46061     46063     46064     46065     46064     46066
     46067     46068     46067     46069     46070     46071     46070     46072
     46073     46074     46073     46075     46076     46077     46076     46078
     46079     46080     46079     46081     46082     46083     46082     46084
     46085     46086     46085     46087     46088     46089     46088     46090
     46091     46092     46091     46093     46094     46095     46094     46096
     46097     46098     46097     46099     46100     46101     46100     46102
     46103     46104     46103     46105     46106     46107     46106     46108
     46109     46110     46109     46111     46112     46113     46112     46114
     46115     46116     46115     46117     46118     46119     46118     46120
     46121     46122     46121     46123     46124     46125     46124     46126
     46127     46128     46127     46129     46130     46131     46130     46132
     46133     46134     46133     46135     46136     46137     46136     46138
     46139     46140     46139     46141     46142     46143     46142     46144
     46145     46146     46145     46147     46148     46149     46148     46150
     46151     46152     46151     46153     46154     46155     46154     46156
     46157     46158     46157     46159     46160     46161     46160     46162
     46163     46164     46163     46165     46166     46167     46166     46168
     46169     46170     46169     46171     46172     46173     46172     46174
     46175     46176     46175     46177     46178     46179     46178     46180
     46181     46182     46181     46183     46184     46185     46184     46186
     46187     46188     46187     46189     46190     46191     46190     46192
     46193     46194     46193     46195     46196     46197     46196     46198
     46199     46200     46199     46201     46202     46203     46202     46204
     46205     46206     46205     46207     46208     46209     46208     46210
     46211     46212     46211     46213     46214     46215     46214     46216
     46217     46218     46217     46219     46220     46221     46220     46222
     46223     46224     46223     46225     46226     46227     46226     46228
     46229     46230     46229     46231     46232     46233     46232     46234
     46235     46236     46235     46237     46238     46239     46238     46240
     46241     46242     46241     46243     46244     46245     46244     46246
     46247     46248     46247     46249     46250     46251     46250     46252
     46253     46254     46253     46255     46256     46257     46256     46258
     46259     46260     46259     46261     46262     46263     46262     46264
     46265     46266     46265     46267     46268     46269     46268     46270
     46271     46272     46271     46273     46274     46275     46274     46276
     46277     46278     46277     46279     46280     46281     46280     46282
     46283     46284     46283     46285     46286     46287     46286     46288
     46289     46290     46289     46291     46292     46293     46292     46294
     46295     46296     46295     46297     46298     46299     46298     46300
     46301     46302     46301     46303     46304     46305     46304     46306
     46307     46308     46307     46309     46310     46311     46310     46312
     46313     46314     46313     46315     46316     46317     46316     46318
     46319     46320     46319     46321     46322     46323     46322     46324
     46325     46326     46325     46327     46328     46329     46328     46330
     46331     46332     46331     46333     46334     46335     46334     46336
     46337     46338     46337     46339     46340     46341     46340     46342
     46343     46344     46343     46345     46346     46347     46346     46348
     46349     46350     46349     46351     46352     46353     46352     46354
     46355     46356     46355     46357     46358     46359     46358     46360
     46361     46362     46361     46363     46364     46365     46364     46366
     46367     46368     46367     46369     46370     46371     46370     46372
     46373     46374     46373     46375     46376     46377     46376     46378
     46379     46380     46379     46381     46382     46383     46382     46384
     46385     46386     46385     46387     46388     46389     46388     46390
     46391     46392     46391     46393     46394     46395     46394     46396
     46397     46398     46397     46399     46400     46401     46400     46402
     46403     46404     46403     46405     46406     46407     46406     46408
     46409     46410     46409     46411     46412     46413     46412     46414
     46415     46416     46415     46417     46418     46419     46418     46420
     46421     46422     46421     46423     46424     46425     46424     46426
     46427     46428     46427     46429     46430     46431     46430     46432

      5932 !NACC: acceptors
     28637     28636     28640     28636     28643     28636     28646     28636
     28649     28636     28652     28636     28655     28636     28658     28636
     28661     28636     28664     28636     28667     28636     28670     28636
     28673     28636     28676     28636     28679     28636     28682     28636
     28685     28636     28688     28636     28691     28636     28694     28636
     28697     28636     28700     28636     28703     28636     28706     28636
     28709     28636     28712     28636     28715     28636     28718     28636
     28721     28636     28724     28636     28727     28636     28730     28636
     28733     28636     28736     28636     28739     28636     28742     28636
     28745     28636     28748     28636     28751     28636     28754     28636
     28757     28636     28760     28636     28763     28636     28766     28636
     28769     28636     28772     28636     28775     28636     28778     28636
     28781     28636     28784     28636     28787     28636     28790     28636
     28793     28636     28796     28636     28799     28636     28802     28636
     28805     28636     28808     28636     28811     28636     28814     28636
     28817     28636     28820     28636     28823     28636     28826     28636
     28829     28636     28832     28636     28835     28636     28838     28636
     28841     28636     28844     28636     28847     28636     28850     28636
     28853     28636     28856     28636     28859     28636     28862     28636
     28865     28636     28868     28636     28871     28636     28874     28636
     28877     28636     28880     28636     28883     28636     28886     28636
     28889     28636     28892     28636     28895     28636     28898     28636
     28901     28636     28904     28636     28907     28636     28910     28636
     28913     28636     28916     28636     28919     28636     28922     28636
     28925     28636     28928     28636     28931     28636     28934     28636
     28937     28636     28940     28636     28943     28636     28946     28636
     28949     28636     28952     28636     28955     28636     28958     28636
     28961     28636     28964     28636     28967     28636     28970     28636
     28973     28636     28976     28636     28979     28636     28982     28636
     28985     28636     28988     28636     28991     28636     28994     28636
     28997     28636     29000     28636     29003     28636     29006     28636
     29009     28636     29012     28636     29015     28636     29018     28636
     29021     28636     29024     28636     29027     28636     29030     28636
     29033     28636     29036     28636     29039     28636     29042     28636
     29045     28636     29048     28636     29051     28636     29054     28636
     29057     28636     29060     28636     29063     28636     29066     28636
     29069     28636     29072     28636     29075     28636     29078     28636
     29081     28636     29084     28636     29087     28636     29090     28636
     29093     28636     29096     28636     29099     28636     29102     28636
     29105     28636     29108     28636     29111     28636     29114     28636
     29117     28636     29120     28636     29123     28636     29126     28636
     29129     28636     29132     28636     29135     28636     29138     28636
     29141     28636     29144     28636     29147     28636     29150     28636
     29153     28636     29156     28636     29159     28636     29162     28636
     29165     28636     29168     28636     29171     28636     29174     28636
     29177     28636     29180     28636     29183     28636     29186     28636
     29189     28636     29192     28636     29195     28636     29198     28636
     29201     28636     29204     28636     29207     28636     29210     28636
     29213     28636     29216     28636     29219     28636     29222     28636
     29225     28636     29228     28636     29231     28636     29234     28636
     29237     28636     29240     28636     29243     28636     29246     28636
     29249     28636     29252     28636     29255     28636     29258     28636
     29261     28636     29264     28636     29267     28636     29270     28636
     29273     28636     29276     28636     29279     28636     29282     28636
     29285     28636     29288     28636     29291     28636     29294     28636
     29297     28636     29300     28636     29303     28636     29306     28636
     29309     28636     29312     28636     29315     28636     29318     28636
     29321     28636     29324     28636     29327     28636     29330     28636
     29333     28636     29336     28636     29339     28636     29342     28636
     29345     28636     29348     28636     29351     28636     29354     28636
     29357     28636     29360     28636     29363     28636     29366     28636
     29369     28636     29372     28636     29375     28636     29378     28636
     29381     28636     29384     28636     29387     28636     29390     28636
     29393     28636     29396     28636     29399     28636     29402     28636
     29405     28636     29408     28636     29411     28636     29414     28636
     29417     28636     29420     28636     29423     28636     29426     28636
     29429     28636     29432     28636     29435     28636     29438     28636
     29441     28636     29444     28636     29447     28636     29450     28636
     29453     28636     29456     28636     29459     28636     29462     28636
     29465     28636     29468     28636     29471     28636     29474     28636
     29477     28636     29480     28636     29483     28636     29486     28636
     29489     28636     29492     28636     29495     28636     29498     28636
     29501     28636     29504     28636     29507     28636     29510     28636
     29513     28636     29516     28636     29519     28636     29522     28636
     29525     28636     29528     28636     29531     28636     29534     28636
     29537     28636     29540     28636     29543     28636     29546     28636
     29549     28636     29552     28636     29555     28636     29558     28636
     29561     28636     29564     28636     29567     28636     29570     28636
     29573     28636     29576     28636     29579     28636     29582     28636
     29585     28636     29588     28636     29591     28636     29594     28636
     29597     28636     29600     28636     29603     28636     29606     28636
     29609     28636     29612     28636     29615     28636     29618     28636
     29621     28636     29624     28636     29627     28636     29630     28636
     29633     28636     29636     28636     29639     28636     29642     28636
     29645     28636     29648     28636     29651     28636     29654     28636
     29657     28636     29660     28636     29663     28636     29666     28636
     29669     28636     29672     28636     29675     28636     29678     28636
     29681     28636     29684     28636     29687     28636     29690     28636
     29693     28636     29696     28636     29699     28636     29702     28636
     29705     28636     29708     28636     29711     28636     29714     28636
     29717     28636     29720     28636     29723     28636     29726     28636
     29729     28636     29732     28636     29735     28636     29738     28636
     29741     28636     29744     28636     29747     28636     29750     28636
     29753     28636     29756     28636     29759     28636     29762     28636
     29765     28636     29768     28636     29771     28636     29774     28636
     29777     28636     29780     28636     29783     28636     29786     28636
     29789     28636     29792     28636     29795     28636     29798     28636
     29801     28636     29804     28636     29807     28636     29810     28636
     29813     28636     29816     28636     29819     28636     29822     28636
     29825     28636     29828     28636     29831     28636     29834     28636
     29837     28636     29840     28636     29843     28636     29846     28636
     29849     28636     29852     28636     29855     28636     29858     28636
     29861     28636     29864     28636     29867     28636     29870     28636
     29873     28636     29876     28636     29879     28636     29882     28636
     29885     28636     29888     28636     29891     28636     29894     28636
     29897     28636     29900     28636     29903     28636     29906     28636
     29909     28636     29912     28636     29915     28636     29918     28636
     29921     28636     29924     28636     29927     28636     29930     28636
     29933     28636     29936     28636     29939     28636     29942     28636
     29945     28636     29948     28636     29951     28636     29954     28636
     29957     28636     29960     28636     29963     28636     29966     28636
     29969     28636     29972     28636     29975     28636     29978     28636
     29981     28636     29984     28636     29987     28636     29990     28636
     29993     28636     29996     28636     29999     28636     30002     28636
     30005     28636     30008     28636     30011     28636     30014     28636
     30017     28636     30020     28636     30023     28636     30026     28636
     30029     28636     30032     28636     30035     28636     30038     28636
     30041     28636     30044     28636     30047     28636     30050     28636
     30053     28636     30056     28636     30059     28636     30062     28636
     30065     28636     30068     28636     30071     28636     30074     28636
     30077     28636     30080     28636     30083     28636     30086     28636
     30089     28636     30092     28636     30095     28636     30098     28636
     30101     28636     30104     28636     30107     28636     30110     28636
     30113     28636     30116     28636     30119     28636     30122     28636
     30125     28636     30128     28636     30131     28636     30134     28636
     30137     28636     30140     28636     30143     28636     30146     28636
     30149     28636     30152     28636     30155     28636     30158     28636
     30161     28636     30164     28636     30167     28636     30170     28636
     30173     28636     30176     28636     30179     28636     30182     28636
     30185     28636     30188     28636     30191     28636     30194     28636
     30197     28636     30200     28636     30203     28636     30206     28636
     30209     28636     30212     28636     30215     28636     30218     28636
     30221     28636     30224     28636     30227     28636     30230     28636
     30233     28636     30236     28636     30239     28636     30242     28636
     30245     28636     30248     28636     30251     28636     30254     28636
     30257     28636     30260     28636     30263     28636     30266     28636
     30269     28636     30272     28636     30275     28636     30278     28636
     30281     28636     30284     28636     30287     28636     30290     28636
     30293     28636     30296     28636     30299     28636     30302     28636
     30305     28636     30308     28636     30311     28636     30314     28636
     30317     28636     30320     28636     30323     28636     30326     28636
     30329     28636     30332     28636     30335     28636     30338     28636
     30341     28636     30344     28636     30347     28636     30350     28636
     30353     28636     30356     28636     30359     28636     30362     28636
     30365     28636     30368     28636     30371     28636     30374     28636
     30377     28636     30380     28636     30383     28636     30386     28636
     30389     28636     30392     28636     30395     28636     30398     28636
     30401     28636     30404     28636     30407     28636     30410     28636
     30413     28636     30416     28636     30419     28636     30422     28636
     30425     28636     30428     28636     30431     28636     30434     28636
     30437     28636     30440     28636     30443     28636     30446     28636
     30449     28636     30452     28636     30455     28636     30458     28636
     30461     28636     30464     28636     30467     28636     30470     28636
     30473     28636     30476     28636     30479     28636     30482     28636
     30485     28636     30488     28636     30491     28636     30494     28636
     30497     28636     30500     28636     30503     28636     30506     28636
     30509     28636     30512     28636     30515     28636     30518     28636
     30521     28636     30524     28636     30527     28636     30530     28636
     30533     28636     30536     28636     30539     28636     30542     28636
     30545     28636     30548     28636     30551     28636     30554     28636
     30557     28636     30560     28636     30563     28636     30566     28636
     30569     28636     30572     28636     30575     28636     30578     28636
     30581     28636     30584     28636     30587     28636     30590     28636
     30593     28636     30596     28636     30599     28636     30602     28636
     30605     28636     30608     28636     30611     28636     30614     28636
     30617     28636     30620     28636     30623     28636     30626     28636
     30629     28636     30632     28636     30635     28636     30638     28636
     30641     28636     30644     28636     30647     28636     30650     28636
     30653     28636     30656     28636     30659     28636     30662     28636
     30665     28636     30668     28636     30671     28636     30674     28636
     30677     28636     30680     28636     30683     28636     30686     28636
     30689     28636     30692     28636     30695     28636     30698     28636
     30701     28636     30704     28636     30707     28636     30710     28636
     30713     28636     30716     28636     30719     28636     30722     28636
     30725     28636     30728     28636     30731     28636     30734     28636
     30737     28636     30740     28636     30743     28636     30746     28636
     30749     28636     30752     28636     30755     28636     30758     28636
     30761     28636     30764     28636     30767     28636     30770     28636
     30773     28636     30776     28636     30779     28636     30782     28636
     30785     28636     30788     28636     30791     28636     30794     28636
     30797     28636     30800     28636     30803     28636     30806     28636
     30809     28636     30812     28636     30815     28636     30818     28636
     30821     28636     30824     28636     30827     28636     30830     28636
     30833     28636     30836     28636     30839     28636     30842     28636
     30845     28636     30848     28636     30851     28636     30854     28636
     30857     28636     30860     28636     30863     28636     30866     28636
     30869     28636     30872     28636     30875     28636     30878     28636
     30881     28636     30884     28636     30887     28636     30890     28636
     30893     28636     30896     28636     30899     28636     30902     28636
     30905     28636     30908     28636     30911     28636     30914     28636
     30917     28636     30920     28636     30923     28636     30926     28636
     30929     28636     30932     28636     30935     28636     30938     28636
     30941     28636     30944     28636     30947     28636     30950     28636
     30953     28636     30956     28636     30959     28636     30962     28636
     30965     28636     30968     28636     30971     28636     30974     28636
     30977     28636     30980     28636     30983     28636     30986     28636
     30989     28636     30992     28636     30995     28636     30998     28636
     31001     28636     31004     28636     31007     28636     31010     28636
     31013     28636     31016     28636     31019     28636     31022     28636
     31025     28636     31028     28636     31031     28636     31034     28636
     31037     28636     31040     28636     31043     28636     31046     28636
     31049     28636     31052     28636     31055     28636     31058     28636
     31061     28636     31064     28636     31067     28636     31070     28636
     31073     28636     31076     28636     31079     28636     31082     28636
     31085     28636     31088     28636     31091     28636     31094     28636
     31097     28636     31100     28636     31103     28636     31106     28636
     31109     28636     31112     28636     31115     28636     31118     28636
     31121     28636     31124     28636     31127     28636     31130     28636
     31133     28636     31136     28636     31139     28636     31142     28636
     31145     28636     31148     28636     31151     28636     31154     28636
     31157     28636     31160     28636     31163     28636     31166     28636
     31169     28636     31172     28636     31175     28636     31178     28636
     31181     28636     31184     28636     31187     28636     31190     28636
     31193     28636     31196     28636     31199     28636     31202     28636
     31205     28636     31208     28636     31211     28636     31214     28636
     31217     28636     31220     28636     31223     28636     31226     28636
     31229     28636     31232     28636     31235     28636     31238     28636
     31241     28636     31244     28636     31247     28636     31250     28636
     31253     28636     31256     28636     31259     28636     31262     28636
     31265     28636     31268     28636     31271     28636     31274     28636
     31277     28636     31280     28636     31283     28636     31286     28636
     31289     28636     31292     28636     31295     28636     31298     28636
     31301     28636     31304     28636     31307     28636     31310     28636
     31313     28636     31316     28636     31319     28636     31322     28636
     31325     28636     31328     28636     31331     28636     31334     28636
     31337     28636     31340     28636     31343     28636     31346     28636
     31349     28636     31352     28636     31355     28636     31358     28636
     31361     28636     31364     28636     31367     28636     31370     28636
     31373     28636     31376     28636     31379     28636     31382     28636
     31385     28636     31388     28636     31391     28636     31394     28636
     31397     28636     31400     28636     31403     28636     31406     28636
     31409     28636     31412     28636     31415     28636     31418     28636
     31421     28636     31424     28636     31427     28636     31430     28636
     31433     28636     31436     28636     31439     28636     31442     28636
     31445     28636     31448     28636     31451     28636     31454     28636
     31457     28636     31460     28636     31463     28636     31466     28636
     31469     28636     31472     28636     31475     28636     31478     28636
     31481     28636     31484     28636     31487     28636     31490     28636
     31493     28636     31496     28636     31499     28636     31502     28636
     31505     28636     31508     28636     31511     28636     31514     28636
     31517     28636     31520     28636     31523     28636     31526     28636
     31529     28636     31532     28636     31535     28636     31538     28636
     31541     28636     31544     28636     31547     28636     31550     28636
     31553     28636     31556     28636     31559     28636     31562     28636
     31565     28636     31568     28636     31571     28636     31574     28636
     31577     28636     31580     28636     31583     28636     31586     28636
     31589     28636     31592     28636     31595     28636     31598     28636
     31601     28636     31604     28636     31607     28636     31610     28636
     31613     28636     31616     28636     31619     28636     31622     28636
     31625     28636     31628     28636     31631     28636     31634     28636
     31637     28636     31640     28636     31643     28636     31646     28636
     31649     28636     31652     28636     31655     28636     31658     28636
     31661     28636     31664     28636     31667     28636     31670     28636
     31673     28636     31676     28636     31679     28636     31682     28636
     31685     28636     31688     28636     31691     28636     31694     28636
     31697     28636     31700     28636     31703     28636     31706     28636
     31709     28636     31712     28636     31715     28636     31718     28636
     31721     28636     31724     28636     31727     28636     31730     28636
     31733     28636     31736     28636     31739     28636     31742     28636
     31745     28636     31748     28636     31751     28636     31754     28636
     31757     28636     31760     28636     31763     28636     31766     28636
     31769     28636     31772     28636     31775     28636     31778     28636
     31781     28636     31784     28636     31787     28636     31790     28636
     31793     28636     31796     28636     31799     28636     31802     28636
     31805     28636     31808     28636     31811     28636     31814     28636
     31817     28636     31820     28636     31823     28636     31826     28636
     31829     28636     31832     28636     31835     28636     31838     28636
     31841     28636     31844     28636     31847     28636     31850     28636
     31853     28636     31856     28636     31859     28636     31862     28636
     31865     28636     31868     28636     31871     28636     31874     28636
     31877     28636     31880     28636     31883     28636     31886     28636
     31889     28636     31892     28636     31895     28636     31898     28636
     31901     28636     31904     28636     31907     28636     31910     28636
     31913     28636     31916     28636     31919     28636     31922     28636
     31925     28636     31928     28636     31931     28636     31934     28636
     31937     28636     31940     28636     31943     28636     31946     28636
     31949     28636     31952     28636     31955     28636     31958     28636
     31961     28636     31964     28636     31967     28636     31970     28636
     31973     28636     31976     28636     31979     28636     31982     28636
     31985     28636     31988     28636     31991     28636     31994     28636
     31997     28636     32000     28636     32003     28636     32006     28636
     32009     28636     32012     28636     32015     28636     32018     28636
     32021     28636     32024     28636     32027     28636     32030     28636
     32033     28636     32036     28636     32039     28636     32042     28636
     32045     28636     32048     28636     32051     28636     32054     28636
     32057     28636     32060     28636     32063     28636     32066     28636
     32069     28636     32072     28636     32075     28636     32078     28636
     32081     28636     32084     28636     32087     28636     32090     28636
     32093     28636     32096     28636     32099     28636     32102     28636
     32105     28636     32108     28636     32111     28636     32114     28636
     32117     28636     32120     28636     32123     28636     32126     28636
     32129     28636     32132     28636     32135     28636     32138     28636
     32141     28636     32144     28636     32147     28636     32150     28636
     32153     28636     32156     28636     32159     28636     32162     28636
     32165     28636     32168     28636     32171     28636     32174     28636
     32177     28636     32180     28636     32183     28636     32186     28636
     32189     28636     32192     28636     32195     28636     32198     28636
     32201     28636     32204     28636     32207     28636     32210     28636
     32213     28636     32216     28636     32219     28636     32222     28636
     32225     28636     32228     28636     32231     28636     32234     28636
     32237     28636     32240     28636     32243     28636     32246     28636
     32249     28636     32252     28636     32255     28636     32258     28636
     32261     28636     32264     28636     32267     28636     32270     28636
     32273     28636     32276     28636     32279     28636     32282     28636
     32285     28636     32288     28636     32291     28636     32294     28636
     32297     28636     32300     28636     32303     28636     32306     28636
     32309     28636     32312     28636     32315     28636     32318     28636
     32321     28636     32324     28636     32327     28636     32330     28636
     32333     28636     32336     28636     32339     28636     32342     28636
     32345     28636     32348     28636     32351     28636     32354     28636
     32357     28636     32360     28636     32363     28636     32366     28636
     32369     28636     32372     28636     32375     28636     32378     28636
     32381     28636     32384     28636     32387     28636     32390     28636
     32393     28636     32396     28636     32399     28636     32402     28636
     32405     28636     32408     28636     32411     28636     32414     28636
     32417     28636     32420     28636     32423     28636     32426     28636
     32429     28636     32432     28636     32435     28636     32438     28636
     32441     28636     32444     28636     32447     28636     32450     28636
     32453     28636     32456     28636     32459     28636     32462     28636
     32465     28636     32468     28636     32471     28636     32474     28636
     32477     28636     32480     28636     32483     28636     32486     28636
     32489     28636     32492     28636     32495     28636     32498     28636
     32501     28636     32504     28636     32507     28636     32510     28636
     32513     28636     32516     28636     32519     28636     32522     28636
     32525     28636     32528     28636     32531     28636     32534     28636
     32537     28636     32540     28636     32543     28636     32546     28636
     32549     28636     32552     28636     32555     28636     32558     28636
     32561     28636     32564     28636     32567     28636     32570     28636
     32573     28636     32576     28636     32579     28636     32582     28636
     32585     28636     32588     28636     32591     28636     32594     28636
     32597     28636     32600     28636     32603     28636     32606     28636
     32609     28636     32612     28636     32615     28636     32618     28636
     32621     28636     32624     28636     32627     28636     32630     28636
     32633     28636     32636     28636     32639     28636     32642     28636
     32645     28636     32648     28636     32651     28636     32654     28636
     32657     28636     32660     28636     32663     28636     32666     28636
     32669     28636     32672     28636     32675     28636     32678     28636
     32681     28636     32684     28636     32687     28636     32690     28636
     32693     28636     32696     28636     32699     28636     32702     28636
     32705     28636     32708     28636     32711     28636     32714     28636
     32717     28636     32720     28636     32723     28636     32726     28636
     32729     28636     32732     28636     32735     28636     32738     28636
     32741     28636     32744     28636     32747     28636     32750     28636
     32753     28636     32756     28636     32759     28636     32762     28636
     32765     28636     32768     28636     32771     28636     32774     28636
     32777     28636     32780     28636     32783     28636     32786     28636
     32789     28636     32792     28636     32795     28636     32798     28636
     32801     28636     32804     28636     32807     28636     32810     28636
     32813     28636     32816     28636     32819     28636     32822     28636
     32825     28636     32828     28636     32831     28636     32834     28636
     32837     28636     32840     28636     32843     28636     32846     28636
     32849     28636     32852     28636     32855     28636     32858     28636
     32861     28636     32864     28636     32867     28636     32870     28636
     32873     28636     32876     28636     32879     28636     32882     28636
     32885     28636     32888     28636     32891     28636     32894     28636
     32897     28636     32900     28636     32903     28636     32906     28636
     32909     28636     32912     28636     32915     28636     32918     28636
     32921     28636     32924     28636     32927     28636     32930     28636
     32933     28636     32936     28636     32939     28636     32942     28636
     32945     28636     32948     28636     32951     28636     32954     28636
     32957     28636     32960     28636     32963     28636     32966     28636
     32969     28636     32972     28636     32975     28636     32978     28636
     32981     28636     32984     28636     32987     28636     32990     28636
     32993     28636     32996     28636     32999     28636     33002     28636
     33005     28636     33008     28636     33011     28636     33014     28636
     33017     28636     33020     28636     33023     28636     33026     28636
     33029     28636     33032     28636     33035     28636     33038     28636
     33041     28636     33044     28636     33047     28636     33050     28636
     33053     28636     33056     28636     33059     28636     33062     28636
     33065     28636     33068     28636     33071     28636     33074     28636
     33077     28636     33080     28636     33083     28636     33086     28636
     33089     28636     33092     28636     33095     28636     33098     28636
     33101     28636     33104     28636     33107     28636     33110     28636
     33113     28636     33116     28636     33119     28636     33122     28636
     33125     28636     33128     28636     33131     28636     33134     28636
     33137     28636     33140     28636     33143     28636     33146     28636
     33149     28636     33152     28636     33155     28636     33158     28636
     33161     28636     33164     28636     33167     28636     33170     28636
     33173     28636     33176     28636     33179     28636     33182     28636
     33185     28636     33188     28636     33191     28636     33194     28636
     33197     28636     33200     28636     33203     28636     33206     28636
     33209     28636     33212     28636     33215     28636     33218     28636
     33221     28636     33224     28636     33227     28636     33230     28636
     33233     28636     33236     28636     33239     28636     33242     28636
     33245     28636     33248     28636     33251     28636     33254     28636
     33257     28636     33260     28636     33263     28636     33266     28636
     33269     28636     33272     28636     33275     28636     33278     28636
     33281     28636     33284     28636     33287     28636     33290     28636
     33293     28636     33296     28636     33299     28636     33302     28636
     33305     28636     33308     28636     33311     28636     33314     28636
     33317     28636     33320     28636     33323     28636     33326     28636
     33329     28636     33332     28636     33335     28636     33338     28636
     33341     28636     33344     28636     33347     28636     33350     28636
     33353     28636     33356     28636     33359     28636     33362     28636
     33365     28636     33368     28636     33371     28636     33374     28636
     33377     28636     33380     28636     33383     28636     33386     28636
     33389     28636     33392     28636     33395     28636     33398     28636
     33401     28636     33404     28636     33407     28636     33410     28636
     33413     28636     33416     28636     33419     28636     33422     28636
     33425     28636     33428     28636     33431     28636     33434     28636
     33437     28636     33440     28636     33443     28636     33446     28636
     33449     28636     33452     28636     33455     28636     33458     28636
     33461     28636     33464     28636     33467     28636     33470     28636
     33473     28636     33476     28636     33479     28636     33482     28636
     33485     28636     33488     28636     33491     28636     33494     28636
     33497     28636     33500     28636     33503     28636     33506     28636
     33509     28636     33512     28636     33515     28636     33518     28636
     33521     28636     33524     28636     33527     28636     33530     28636
     33533     28636     33536     28636     33539     28636     33542     28636
     33545     28636     33548     28636     33551     28636     33554     28636
     33557     28636     33560     28636     33563     28636     33566     28636
     33569     28636     33572     28636     33575     28636     33578     28636
     33581     28636     33584     28636     33587     28636     33590     28636
     33593     28636     33596     28636     33599     28636     33602     28636
     33605     28636     33608     28636     33611     28636     33614     28636
     33617     28636     33620     28636     33623     28636     33626     28636
     33629     28636     33632     28636     33635     28636     33638     28636
     33641     28636     33644     28636     33647     28636     33650     28636
     33653     28636     33656     28636     33659     28636     33662     28636
     33665     28636     33668     28636     33671     28636     33674     28636
     33677     28636     33680     28636     33683     28636     33686     28636
     33689     28636     33692     28636     33695     28636     33698     28636
     33701     28636     33704     28636     33707     28636     33710     28636
     33713     28636     33716     28636     33719     28636     33722     28636
     33725     28636     33728     28636     33731     28636     33734     28636
     33737     28636     33740     28636     33743     28636     33746     28636
     33749     28636     33752     28636     33755     28636     33758     28636
     33761     28636     33764     28636     33767     28636     33770     28636
     33773     28636     33776     28636     33779     28636     33782     28636
     33785     28636     33788     28636     33791     28636     33794     28636
     33797     28636     33800     28636     33803     28636     33806     28636
     33809     28636     33812     28636     33815     28636     33818     28636
     33821     28636     33824     28636     33827     28636     33830     28636
     33833     28636     33836     28636     33839     28636     33842     28636
     33845     28636     33848     28636     33851     28636     33854     28636
     33857     28636     33860     28636     33863     28636     33866     28636
     33869     28636     33872     28636     33875     28636     33878     28636
     33881     28636     33884     28636     33887     28636     33890     28636
     33893     28636     33896     28636     33899     28636     33902     28636
     33905     28636     33908     28636     33911     28636     33914     28636
     33917     28636     33920     28636     33923     28636     33926     28636
     33929     28636     33932     28636     33935     28636     33938     28636
     33941     28636     33944     28636     33947     28636     33950     28636
     33953     28636     33956     28636     33959     28636     33962     28636
     33965     28636     33968     28636     33971     28636     33974     28636
     33977     28636     33980     28636     33983     28636     33986     28636
     33989     28636     33992     28636     33995     28636     33998     28636
     34001     28636     34004     28636     34007     28636     34010     28636
     34013     28636     34016     28636     34019     28636     34022     28636
     34025     28636     34028     28636     34031     28636     34034     28636
     34037     28636     34040     28636     34043     28636     34046     28636
     34049     28636     34052     28636     34055     28636     34058     28636
     34061     28636     34064     28636     34067     28636     34070     28636
     34073     28636     34076     28636     34079     28636     34082     28636
     34085     28636     34088     28636     34091     28636     34094     28636
     34097     28636     34100     28636     34103     28636     34106     28636
     34109     28636     34112     28636     34115     28636     34118     28636
     34121     28636     34124     28636     34127     28636     34130     28636
     34133     28636     34136     28636     34139     28636     34142     28636
     34145     28636     34148     28636     34151     28636     34154     28636
     34157     28636     34160     28636     34163     28636     34166     28636
     34169     28636     34172     28636     34175     28636     34178     28636
     34181     28636     34184     28636     34187     28636     34190     28636
     34193     28636     34196     28636     34199     28636     34202     28636
     34205     28636     34208     28636     34211     28636     34214     28636
     34217     28636     34220     28636     34223     28636     34226     28636
     34229     28636     34232     28636     34235     28636     34238     28636
     34241     28636     34244     28636     34247     28636     34250     28636
     34253     28636     34256     28636     34259     28636     34262     28636
     34265     28636     34268     28636     34271     28636     34274     28636
     34277     28636     34280     28636     34283     28636     34286     28636
     34289     28636     34292     28636     34295     28636     34298     28636
     34301     28636     34304     28636     34307     28636     34310     28636
     34313     28636     34316     28636     34319     28636     34322     28636
     34325     28636     34328     28636     34331     28636     34334     28636
     34337     28636     34340     28636     34343     28636     34346     28636
     34349     28636     34352     28636     34355     28636     34358     28636
     34361     28636     34364     28636     34367     28636     34370     28636
     34373     28636     34376     28636     34379     28636     34382     28636
     34385     28636     34388     28636     34391     28636     34394     28636
     34397     28636     34400     28636     34403     28636     34406     28636
     34409     28636     34412     28636     34415     28636     34418     28636
     34421     28636     34424     28636     34427     28636     34430     28636
     34433     28636     34436     28636     34439     28636     34442     28636
     34445     28636     34448     28636     34451     28636     34454     28636
     34457     28636     34460     28636     34463     28636     34466     28636
     34469     28636     34472     28636     34475     28636     34478     28636
     34481     28636     34484     28636     34487     28636     34490     28636
     34493     28636     34496     28636     34499     28636     34502     28636
     34505     28636     34508     28636     34511     28636     34514     28636
     34517     28636     34520     28636     34523     28636     34526     28636
     34529     28636     34532     28636     34535     28636     34538     28636
     34541     28636     34544     28636     34547     28636     34550     28636
     34553     28636     34556     28636     34559     28636     34562     28636
     34565     28636     34568     28636     34571     28636     34574     28636
     34577     28636     34580     28636     34583     28636     34586     28636
     34589     28636     34592     28636     34595     28636     34598     28636
     34601     28636     34604     28636     34607     28636     34610     28636
     34613     28636     34616     28636     34619     28636     34622     28636
     34625     28636     34628     28636     34631     28636     34634     28636
     34637     28636     34640     28636     34643     28636     34646     28636
     34649     28636     34652     28636     34655     28636     34658     28636
     34661     28636     34664     28636     34667     28636     34670     28636
     34673     28636     34676     28636     34679     28636     34682     28636
     34685     28636     34688     28636     34691     28636     34694     28636
     34697     28636     34700     28636     34703     28636     34706     28636
     34709     28636     34712     28636     34715     28636     34718     28636
     34721     28636     34724     28636     34727     28636     34730     28636
     34733     28636     34736     28636     34739     28636     34742     28636
     34745     28636     34748     28636     34751     28636     34754     28636
     34757     28636     34760     28636     34763     28636     34766     28636
     34769     28636     34772     28636     34775     28636     34778     28636
     34781     28636     34784     28636     34787     28636     34790     28636
     34793     28636     34796     28636     34799     28636     34802     28636
     34805     28636     34808     28636     34811     28636     34814     28636
     34817     28636     34820     28636     34823     28636     34826     28636
     34829     28636     34832     28636     34835     28636     34838     28636
     34841     28636     34844     28636     34847     28636     34850     28636
     34853     28636     34856     28636     34859     28636     34862     28636
     34865     28636     34868     28636     34871     28636     34874     28636
     34877     28636     34880     28636     34883     28636     34886     28636
     34889     28636     34892     28636     34895     28636     34898     28636
     34901     28636     34904     28636     34907     28636     34910     28636
     34913     28636     34916     28636     34919     28636     34922     28636
     34925     28636     34928     28636     34931     28636     34934     28636
     34937     28636     34940     28636     34943     28636     34946     28636
     34949     28636     34952     28636     34955     28636     34958     28636
     34961     28636     34964     28636     34967     28636     34970     28636
     34973     28636     34976     28636     34979     28636     34982     28636
     34985     28636     34988     28636     34991     28636     34994     28636
     34997     28636     35000     28636     35003     28636     35006     28636
     35009     28636     35012     28636     35015     28636     35018     28636
     35021     28636     35024     28636     35027     28636     35030     28636
     35033     28636     35036     28636     35039     28636     35042     28636
     35045     28636     35048     28636     35051     28636     35054     28636
     35057     28636     35060     28636     35063     28636     35066     28636
     35069     28636     35072     28636     35075     28636     35078     28636
     35081     28636     35084     28636     35087     28636     35090     28636
     35093     28636     35096     28636     35099     28636     35102     28636
     35105     28636     35108     28636     35111     28636     35114     28636
     35117     28636     35120     28636     35123     28636     35126     28636
     35129     28636     35132     28636     35135     28636     35138     28636
     35141     28636     35144     28636     35147     28636     35150     28636
     35153     28636     35156     28636     35159     28636     35162     28636
     35165     28636     35168     28636     35171     28636     35174     28636
     35177     28636     35180     28636     35183     28636     35186     28636
     35189     28636     35192     28636     35195     28636     35198     28636
     35201     28636     35204     28636     35207     28636     35210     28636
     35213     28636     35216     28636     35219     28636     35222     28636
     35225     28636     35228     28636     35231     28636     35234     28636
     35237     28636     35240     28636     35243     28636     35246     28636
     35249     28636     35252     28636     35255     28636     35258     28636
     35261     28636     35264     28636     35267     28636     35270     28636
     35273     28636     35276     28636     35279     28636     35282     28636
     35285     28636     35288     28636     35291     28636     35294     28636
     35297     28636     35300     28636     35303     28636     35306     28636
     35309     28636     35312     28636     35315     28636     35318     28636
     35321     28636     35324     28636     35327     28636     35330     28636
     35333     28636     35336     28636     35339     28636     35342     28636
     35345     28636     35348     28636     35351     28636     35354     28636
     35357     28636     35360     28636     35363     28636     35366     28636
     35369     28636     35372     28636     35375     28636     35378     28636
     35381     28636     35384     28636     35387     28636     35390     28636
     35393     28636     35396     28636     35399     28636     35402     28636
     35405     28636     35408     28636     35411     28636     35414     28636
     35417     28636     35420     28636     35423     28636     35426     28636
     35429     28636     35432     28636     35435     28636     35438     28636
     35441     28636     35444     28636     35447     28636     35450     28636
     35453     28636     35456     28636     35459     28636     35462     28636
     35465     28636     35468     28636     35471     28636     35474     28636
     35477     28636     35480     28636     35483     28636     35486     28636
     35489     28636     35492     28636     35495     28636     35498     28636
     35501     28636     35504     28636     35507     28636     35510     28636
     35513     28636     35516     28636     35519     28636     35522     28636
     35525     28636     35528     28636     35531     28636     35534     28636
     35537     28636     35540     28636     35543     28636     35546     28636
     35549     28636     35552     28636     35555     28636     35558     28636
     35561     28636     35564     28636     35567     28636     35570     28636
     35573     28636     35576     28636     35579     28636     35582     28636
     35585     28636     35588     28636     35591     28636     35594     28636
     35597     28636     35600     28636     35603     28636     35606     28636
     35609     28636     35612     28636     35615     28636     35618     28636
     35621     28636     35624     28636     35627     28636     35630     28636
     35633     28636     35636     28636     35639     28636     35642     28636
     35645     28636     35648     28636     35651     28636     35654     28636
     35657     28636     35660     28636     35663     28636     35666     28636
     35669     28636     35672     28636     35675     28636     35678     28636
     35681     28636     35684     28636     35687     28636     35690     28636
     35693     28636     35696     28636     35699     28636     35702     28636
     35705     28636     35708     28636     35711     28636     35714     28636
     35717     28636     35720     28636     35723     28636     35726     28636
     35729     28636     35732     28636     35735     28636     35738     28636
     35741     28636     35744     28636     35747     28636     35750     28636
     35753     28636     35756     28636     35759     28636     35762     28636
     35765     28636     35768     28636     35771     28636     35774     28636
     35777     28636     35780     28636     35783     28636     35786     28636
     35789     28636     35792     28636     35795     28636     35798     28636
     35801     28636     35804     28636     35807     28636     35810     28636
     35813     28636     35816     28636     35819     28636     35822     28636
     35825     28636     35828     28636     35831     28636     35834     28636
     35837     28636     35840     28636     35843     28636     35846     28636
     35849     28636     35852     28636     35855     28636     35858     28636
     35861     28636     35864     28636     35867     28636     35870     28636
     35873     28636     35876     28636     35879     28636     35882     28636
     35885     28636     35888     28636     35891     28636     35894     28636
     35897     28636     35900     28636     35903     28636     35906     28636
     35909     28636     35912     28636     35915     28636     35918     28636
     35921     28636     35924     28636     35927     28636     35930     28636
     35933     28636     35936     28636     35939     28636     35942     28636
     35945     28636     35948     28636     35951     28636     35954     28636
     35957     28636     35960     28636     35963     28636     35966     28636
     35969     28636     35972     28636     35975     28636     35978     28636
     35981     28636     35984     28636     35987     28636     35990     28636
     35993     28636     35996     28636     35999     28636     36002     28636
     36005     28636     36008     28636     36011     28636     36014     28636
     36017     28636     36020     28636     36023     28636     36026     28636
     36029     28636     36032     28636     36035     28636     36038     28636
     36041     28636     36044     28636     36047     28636     36050     28636
     36053     28636     36056     28636     36059     28636     36062     28636
     36065     28636     36068     28636     36071     28636     36074     28636
     36077     28636     36080     28636     36083     28636     36086     28636
     36089     28636     36092     28636     36095     28636     36098     28636
     36101     28636     36104     28636     36107     28636     36110     28636
     36113     28636     36116     28636     36119     28636     36122     28636
     36125     28636     36128     28636     36131     28636     36134     28636
     36137     28636     36140     28636     36143     28636     36146     28636
     36149     28636     36152     28636     36155     28636     36158     28636
     36161     28636     36164     28636     36167     28636     36170     28636
     36173     28636     36176     28636     36179     28636     36182     28636
     36185     28636     36188     28636     36191     28636     36194     28636
     36197     28636     36200     28636     36203     28636     36206     28636
     36209     28636     36212     28636     36215     28636     36218     28636
     36221     28636     36224     28636     36227     28636     36230     28636
     36233     28636     36236     28636     36239     28636     36242     28636
     36245     28636     36248     28636     36251     28636     36254     28636
     36257     28636     36260     28636     36263     28636     36266     28636
     36269     28636     36272     28636     36275     28636     36278     28636
     36281     28636     36284     28636     36287     28636     36290     28636
     36293     28636     36296     28636     36299     28636     36302     28636
     36305     28636     36308     28636     36311     28636     36314     28636
     36317     28636     36320     28636     36323     28636     36326     28636
     36329     28636     36332     28636     36335     28636     36338     28636
     36341     28636     36344     28636     36347     28636     36350     28636
     36353     28636     36356     28636     36359     28636     36362     28636
     36365     28636     36368     28636     36371     28636     36374     28636
     36377     28636     36380     28636     36383     28636     36386     28636
     36389     28636     36392     28636     36395     28636     36398     28636
     36401     28636     36404     28636     36407     28636     36410     28636
     36413     28636     36416     28636     36419     28636     36422     28636
     36425     28636     36428     28636     36431     28636     36434     28636
     36437     28636     36440     28636     36443     28636     36446     28636
     36449     28636     36452     28636     36455     28636     36458     28636
     36461     28636     36464     28636     36467     28636     36470     28636
     36473     28636     36476     28636     36479     28636     36482     28636
     36485     28636     36488     28636     36491     28636     36494     28636
     36497     28636     36500     28636     36503     28636     36506     28636
     36509     28636     36512     28636     36515     28636     36518     28636
     36521     28636     36524     28636     36527     28636     36530     28636
     36533     28636     36536     28636     36539     28636     36542     28636
     36545     28636     36548     28636     36551     28636     36554     28636
     36557     28636     36560     28636     36563     28636     36566     28636
     36569     28636     36572     28636     36575     28636     36578     28636
     36581     28636     36584     28636     36587     28636     36590     28636
     36593     28636     36596     28636     36599     28636     36602     28636
     36605     28636     36608     28636     36611     28636     36614     28636
     36617     28636     36620     28636     36623     28636     36626     28636
     36629     28636     36632     28636     36635     28636     36638     28636
     36641     28636     36644     28636     36647     28636     36650     28636
     36653     28636     36656     28636     36659     28636     36662     28636
     36665     28636     36668     28636     36671     28636     36674     28636
     36677     28636     36680     28636     36683     28636     36686     28636
     36689     28636     36692     28636     36695     28636     36698     28636
     36701     28636     36704     28636     36707     28636     36710     28636
     36713     28636     36716     28636     36719     28636     36722     28636
     36725     28636     36728     28636     36731     28636     36734     28636
     36737     28636     36740     28636     36743     28636     36746     28636
     36749     28636     36752     28636     36755     28636     36758     28636
     36761     28636     36764     28636     36767     28636     36770     28636
     36773     28636     36776     28636     36779     28636     36782     28636
     36785     28636     36788     28636     36791     28636     36794     28636
     36797     28636     36800     28636     36803     28636     36806     28636
     36809     28636     36812     28636     36815     28636     36818     28636
     36821     28636     36824     28636     36827     28636     36830     28636
     36833     28636     36836     28636     36839     28636     36842     28636
     36845     28636     36848     28636     36851     28636     36854     28636
     36857     28636     36860     28636     36863     28636     36866     28636
     36869     28636     36872     28636     36875     28636     36878     28636
     36881     28636     36884     28636     36887     28636     36890     28636
     36893     28636     36896     28636     36899     28636     36902     28636
     36905     28636     36908     28636     36911     28636     36914     28636
     36917     28636     36920     28636     36923     28636     36926     28636
     36929     28636     36932     28636     36935     28636     36938     28636
     36941     28636     36944     28636     36947     28636     36950     28636
     36953     28636     36956     28636     36959     28636     36962     28636
     36965     28636     36968     28636     36971     28636     36974     28636
     36977     28636     36980     28636     36983     28636     36986     28636
     36989     28636     36992     28636     36995     28636     36998     28636
     37001     28636     37004     28636     37007     28636     37010     28636
     37013     28636     37016     28636     37019     28636     37022     28636
     37025     28636     37028     28636     37031     28636     37034     28636
     37037     28636     37040     28636     37043     28636     37046     28636
     37049     28636     37052     28636     37055     28636     37058     28636
     37061     28636     37064     28636     37067     28636     37070     28636
     37073     28636     37076     28636     37079     28636     37082     28636
     37085     28636     37088     28636     37091     28636     37094     28636
     37097     28636     37100     28636     37103     28636     37106     28636
     37109     28636     37112     28636     37115     28636     37118     28636
     37121     28636     37124     28636     37127     28636     37130     28636
     37133     28636     37136     28636     37139     28636     37142     28636
     37145     28636     37148     28636     37151     28636     37154     28636
     37157     28636     37160     28636     37163     28636     37166     28636
     37169     28636     37172     28636     37175     28636     37178     28636
     37181     28636     37184     28636     37187     28636     37190     28636
     37193     28636     37196     28636     37199     28636     37202     28636
     37205     28636     37208     28636     37211     28636     37214     28636
     37217     28636     37220     28636     37223     28636     37226     28636
     37229     28636     37232     28636     37235     28636     37238     28636
     37241     28636     37244     28636     37247     28636     37250     28636
     37253     28636     37256     28636     37259     28636     37262     28636
     37265     28636     37268     28636     37271     28636     37274     28636
     37277     28636     37280     28636     37283     28636     37286     28636
     37289     28636     37292     28636     37295     28636     37298     28636
     37301     28636     37304     28636     37307     28636     37310     28636
     37313     28636     37316     28636     37319     28636     37322     28636
     37325     28636     37328     28636     37331     28636     37334     28636
     37337     28636     37340     28636     37343     28636     37346     28636
     37349     28636     37352     28636     37355     28636     37358     28636
     37361     28636     37364     28636     37367     28636     37370     28636
     37373     28636     37376     28636     37379     28636     37382     28636
     37385     28636     37388     28636     37391     28636     37394     28636
     37397     28636     37400     28636     37403     28636     37406     28636
     37409     28636     37412     28636     37415     28636     37418     28636
     37421     28636     37424     28636     37427     28636     37430     28636
     37433     28636     37436     28636     37439     28636     37442     28636
     37445     28636     37448     28636     37451     28636     37454     28636
     37457     28636     37460     28636     37463     28636     37466     28636
     37469     28636     37472     28636     37475     28636     37478     28636
     37481     28636     37484     28636     37487     28636     37490     28636
     37493     28636     37496     28636     37499     28636     37502     28636
     37505     28636     37508     28636     37511     28636     37514     28636
     37517     28636     37520     28636     37523     28636     37526     28636
     37529     28636     37532     28636     37535     28636     37538     28636
     37541     28636     37544     28636     37547     28636     37550     28636
     37553     28636     37556     28636     37559     28636     37562     28636
     37565     28636     37568     28636     37571     28636     37574     28636
     37577     28636     37580     28636     37583     28636     37586     28636
     37589     28636     37592     28636     37595     28636     37598     28636
     37601     28636     37604     28636     37607     28636     37610     28636
     37613     28636     37616     28636     37619     28636     37622     28636
     37625     28636     37628     28636     37631     28636     37634     28636
     37637     28636     37640     28636     37643     28636     37646     28636
     37649     28636     37652     28636     37655     28636     37658     28636
     37661     28636     37664     28636     37667     28636     37670     28636
     37673     28636     37676     28636     37679     28636     37682     28636
     37685     28636     37688     28636     37691     28636     37694     28636
     37697     28636     37700     37699     37703     37699     37706     37699
     37709     37699     37712     37699     37715     37699     37718     37699
     37721     37699     37724     37699     37727     37699     37730     37699
     37733     37699     37736     37699     37739     37699     37742     37699
     37745     37699     37748     37699     37751     37699     37754     37699
     37757     37699     37760     37699     37763     37699     37766     37699
     37769     37699     37772     37699     37775     37699     37778     37699
     37781     37699     37784     37699     37787     37699     37790     37699
     37793     37699     37796     37699     37799     37699     37802     37699
     37805     37699     37808     37699     37811     37699     37814     37699
     37817     37699     37820     37699     37823     37699     37826     37699
     37829     37699     37832     37699     37835     37699     37838     37699
     37841     37699     37844     37699     37847     37699     37850     37699
     37853     37699     37856     37699     37859     37699     37862     37699
     37865     37699     37868     37699     37871     37699     37874     37699
     37877     37699     37880     37699     37883     37699     37886     37699
     37889     37699     37892     37699     37895     37699     37898     37699
     37901     37699     37904     37699     37907     37699     37910     37699
     37913     37699     37916     37699     37919     37699     37922     37699
     37925     37699     37928     37699     37931     37699     37934     37699
     37937     37699     37940     37699     37943     37699     37946     37699
     37949     37699     37952     37699     37955     37699     37958     37699
     37961     37699     37964     37699     37967     37699     37970     37699
     37973     37699     37976     37699     37979     37699     37982     37699
     37985     37699     37988     37699     37991     37699     37994     37699
     37997     37699     38000     37699     38003     37699     38006     37699
     38009     37699     38012     37699     38015     37699     38018     37699
     38021     37699     38024     37699     38027     37699     38030     37699
     38033     37699     38036     37699     38039     37699     38042     37699
     38045     37699     38048     37699     38051     37699     38054     37699
     38057     37699     38060     37699     38063     37699     38066     37699
     38069     37699     38072     37699     38075     37699     38078     37699
     38081     37699     38084     37699     38087     37699     38090     37699
     38093     37699     38096     37699     38099     37699     38102     37699
     38105     37699     38108     37699     38111     37699     38114     37699
     38117     37699     38120     37699     38123     37699     38126     37699
     38129     37699     38132     37699     38135     37699     38138     37699
     38141     37699     38144     37699     38147     37699     38150     37699
     38153     37699     38156     37699     38159     37699     38162     37699
     38165     37699     38168     37699     38171     37699     38174     37699
     38177     37699     38180     37699     38183     37699     38186     37699
     38189     37699     38192     37699     38195     37699     38198     37699
     38201     37699     38204     37699     38207     37699     38210     37699
     38213     37699     38216     37699     38219     37699     38222     37699
     38225     37699     38228     37699     38231     37699     38234     37699
     38237     37699     38240     37699     38243     37699     38246     37699
     38249     37699     38252     37699     38255     37699     38258     37699
     38261     37699     38264     37699     38267     37699     38270     37699
     38273     37699     38276     37699     38279     37699     38282     37699
     38285     37699     38288     37699     38291     37699     38294     37699
     38297     37699     38300     37699     38303     37699     38306     37699
     38309     37699     38312     37699     38315     37699     38318     37699
     38321     37699     38324     37699     38327     37699     38330     37699
     38333     37699     38336     37699     38339     37699     38342     37699
     38345     37699     38348     37699     38351     37699     38354     37699
     38357     37699     38360     37699     38363     37699     38366     37699
     38369     37699     38372     37699     38375     37699     38378     37699
     38381     37699     38384     37699     38387     37699     38390     37699
     38393     37699     38396     37699     38399     37699     38402     37699
     38405     37699     38408     37699     38411     37699     38414     37699
     38417     37699     38420     37699     38423     37699     38426     37699
     38429     37699     38432     37699     38435     37699     38438     37699
     38441     37699     38444     37699     38447     37699     38450     37699
     38453     37699     38456     37699     38459     37699     38462     37699
     38465     37699     38468     37699     38471     37699     38474     37699
     38477     37699     38480     37699     38483     37699     38486     37699
     38489     37699     38492     37699     38495     37699     38498     37699
     38501     37699     38504     37699     38507     37699     38510     37699
     38513     37699     38516     37699     38519     37699     38522     37699
     38525     37699     38528     37699     38531     37699     38534     37699
     38537     37699     38540     37699     38543     37699     38546     37699
     38549     37699     38552     37699     38555     37699     38558     37699
     38561     37699     38564     37699     38567     37699     38570     37699
     38573     37699     38576     37699     38579     37699     38582     37699
     38585     37699     38588     37699     38591     37699     38594     37699
     38597     37699     38600     37699     38603     37699     38606     37699
     38609     37699     38612     37699     38615     37699     38618     37699
     38621     37699     38624     37699     38627     37699     38630     37699
     38633     37699     38636     37699     38639     37699     38642     37699
     38645     37699     38648     37699     38651     37699     38654     37699
     38657     37699     38660     37699     38663     37699     38666     37699
     38669     37699     38672     37699     38675     37699     38678     37699
     38681     37699     38684     37699     38687     37699     38690     37699
     38693     37699     38696     37699     38699     37699     38702     37699
     38705     37699     38708     37699     38711     37699     38714     37699
     38717     37699     38720     37699     38723     37699     38726     37699
     38729     37699     38732     37699     38735     37699     38738     37699
     38741     37699     38744     37699     38747     37699     38750     37699
     38753     37699     38756     37699     38759     37699     38762     37699
     38765     37699     38768     37699     38771     37699     38774     37699
     38777     37699     38780     37699     38783     37699     38786     37699
     38789     37699     38792     37699     38795     37699     38798     37699
     38801     37699     38804     37699     38807     37699     38810     37699
     38813     37699     38816     37699     38819     37699     38822     37699
     38825     37699     38828     37699     38831     37699     38834     37699
     38837     37699     38840     37699     38843     37699     38846     37699
     38849     37699     38852     37699     38855     37699     38858     37699
     38861     37699     38864     37699     38867     37699     38870     37699
     38873     37699     38876     37699     38879     37699     38882     37699
     38885     37699     38888     37699     38891     37699     38894     37699
     38897     37699     38900     37699     38903     37699     38906     37699
     38909     37699     38912     37699     38915     37699     38918     37699
     38921     37699     38924     37699     38927     37699     38930     37699
     38933     37699     38936     37699     38939     37699     38942     37699
     38945     37699     38948     37699     38951     37699     38954     37699
     38957     37699     38960     37699     38963     37699     38966     37699
     38969     37699     38972     37699     38975     37699     38978     37699
     38981     37699     38984     37699     38987     37699     38990     37699
     38993     37699     38996     37699     38999     37699     39002     37699
     39005     37699     39008     37699     39011     37699     39014     37699
     39017     37699     39020     37699     39023     37699     39026     37699
     39029     37699     39032     37699     39035     37699     39038     37699
     39041     37699     39044     37699     39047     37699     39050     37699
     39053     37699     39056     37699     39059     37699     39062     37699
     39065     37699     39068     37699     39071     37699     39074     37699
     39077     37699     39080     37699     39083     37699     39086     37699
     39089     37699     39092     37699     39095     37699     39098     37699
     39101     37699     39104     37699     39107     37699     39110     37699
     39113     37699     39116     37699     39119     37699     39122     37699
     39125     37699     39128     37699     39131     37699     39134     37699
     39137     37699     39140     37699     39143     37699     39146     37699
     39149     37699     39152     37699     39155     37699     39158     37699
     39161     37699     39164     37699     39167     37699     39170     37699
     39173     37699     39176     37699     39179     37699     39182     37699
     39185     37699     39188     37699     39191     37699     39194     37699
     39197     37699     39200     37699     39203     37699     39206     37699
     39209     37699     39212     37699     39215     37699     39218     37699
     39221     37699     39224     37699     39227     37699     39230     37699
     39233     37699     39236     37699     39239     37699     39242     37699
     39245     37699     39248     37699     39251     37699     39254     37699
     39257     37699     39260     37699     39263     37699     39266     37699
     39269     37699     39272     37699     39275     37699     39278     37699
     39281     37699     39284     37699     39287     37699     39290     37699
     39293     37699     39296     37699     39299     37699     39302     37699
     39305     37699     39308     37699     39311     37699     39314     37699
     39317     37699     39320     37699     39323     37699     39326     37699
     39329     37699     39332     37699     39335     37699     39338     37699
     39341     37699     39344     37699     39347     37699     39350     37699
     39353     37699     39356     37699     39359     37699     39362     37699
     39365     37699     39368     37699     39371     37699     39374     37699
     39377     37699     39380     37699     39383     37699     39386     37699
     39389     37699     39392     37699     39395     37699     39398     37699
     39401     37699     39404     37699     39407     37699     39410     37699
     39413     37699     39416     37699     39419     37699     39422     37699
     39425     37699     39428     37699     39431     37699     39434     37699
     39437     37699     39440     37699     39443     37699     39446     37699
     39449     37699     39452     37699     39455     37699     39458     37699
     39461     37699     39464     37699     39467     37699     39470     37699
     39473     37699     39476     37699     39479     37699     39482     37699
     39485     37699     39488     37699     39491     37699     39494     37699
     39497     37699     39500     37699     39503     37699     39506     37699
     39509     37699     39512     37699     39515     37699     39518     37699
     39521     37699     39524     37699     39527     37699     39530     37699
     39533     37699     39536     37699     39539     37699     39542     37699
     39545     37699     39548     37699     39551     37699     39554     37699
     39557     37699     39560     37699     39563     37699     39566     37699
     39569     37699     39572     37699     39575     37699     39578     37699
     39581     37699     39584     37699     39587     37699     39590     37699
     39593     37699     39596     37699     39599     37699     39602     37699
     39605     37699     39608     37699     39611     37699     39614     37699
     39617     37699     39620     37699     39623     37699     39626     37699
     39629     37699     39632     37699     39635     37699     39638     37699
     39641     37699     39644     37699     39647     37699     39650     37699
     39653     37699     39656     37699     39659     37699     39662     37699
     39665     37699     39668     37699     39671     37699     39674     37699
     39677     37699     39680     37699     39683     37699     39686     37699
     39689     37699     39692     37699     39695     37699     39698     37699
     39701     37699     39704     37699     39707     37699     39710     37699
     39713     37699     39716     37699     39719     37699     39722     37699
     39725     37699     39728     37699     39731     37699     39734     37699
     39737     37699     39740     37699     39743     37699     39746     37699
     39749     37699     39752     37699     39755     37699     39758     37699
     39761     37699     39764     37699     39767     37699     39770     37699
     39773     37699     39776     37699     39779     37699     39782     37699
     39785     37699     39788     37699     39791     37699     39794     37699
     39797     37699     39800     37699     39803     37699     39806     37699
     39809     37699     39812     37699     39815     37699     39818     37699
     39821     37699     39824     37699     39827     37699     39830     37699
     39833     37699     39836     37699     39839     37699     39842     37699
     39845     37699     39848     37699     39851     37699     39854     37699
     39857     37699     39860     37699     39863     37699     39866     37699
     39869     37699     39872     37699     39875     37699     39878     37699
     39881     37699     39884     37699     39887     37699     39890     37699
     39893     37699     39896     37699     39899     37699     39902     37699
     39905     37699     39908     37699     39911     37699     39914     37699
     39917     37699     39920     37699     39923     37699     39926     37699
     39929     37699     39932     37699     39935     37699     39938     37699
     39941     37699     39944     37699     39947     37699     39950     37699
     39953     37699     39956     37699     39959     37699     39962     37699
     39965     37699     39968     37699     39971     37699     39974     37699
     39977     37699     39980     37699     39983     37699     39986     37699
     39989     37699     39992     37699     39995     37699     39998     37699
     40001     37699     40004     37699     40007     37699     40010     37699
     40013     37699     40016     37699     40019     37699     40022     37699
     40025     37699     40028     37699     40031     37699     40034     37699
     40037     37699     40040     37699     40043     37699     40046     37699
     40049     37699     40052     37699     40055     37699     40058     37699
     40061     37699     40064     37699     40067     37699     40070     37699
     40073     37699     40076     37699     40079     37699     40082     37699
     40085     37699     40088     37699     40091     37699     40094     37699
     40097     37699     40100     37699     40103     37699     40106     37699
     40109     37699     40112     37699     40115     37699     40118     37699
     40121     37699     40124     37699     40127     37699     40130     37699
     40133     37699     40136     37699     40139     37699     40142     37699
     40145     37699     40148     37699     40151     37699     40154     37699
     40157     37699     40160     37699     40163     37699     40166     37699
     40169     37699     40172     37699     40175     37699     40178     37699
     40181     37699     40184     37699     40187     37699     40190     37699
     40193     37699     40196     37699     40199     37699     40202     37699
     40205     37699     40208     37699     40211     37699     40214     37699
     40217     37699     40220     37699     40223     37699     40226     37699
     40229     37699     40232     37699     40235     37699     40238     37699
     40241     37699     40244     37699     40247     37699     40250     37699
     40253     37699     40256     37699     40259     37699     40262     37699
     40265     37699     40268     37699     40271     37699     40274     37699
     40277     37699     40280     37699     40283     37699     40286     37699
     40289     37699     40292     37699     40295     37699     40298     37699
     40301     37699     40304     37699     40307     37699     40310     37699
     40313     37699     40316     37699     40319     37699     40322     37699
     40325     37699     40328     37699     40331     37699     40334     37699
     40337     37699     40340     37699     40343     37699     40346     37699
     40349     37699     40352     37699     40355     37699     40358     37699
     40361     37699     40364     37699     40367     37699     40370     37699
     40373     37699     40376     37699     40379     37699     40382     37699
     40385     37699     40388     37699     40391     37699     40394     37699
     40397     37699     40400     37699     40403     37699     40406     37699
     40409     37699     40412     37699     40415     37699     40418     37699
     40421     37699     40424     37699     40427     37699     40430     37699
     40433     37699     40436     37699     40439     37699     40442     37699
     40445     37699     40448     37699     40451     37699     40454     37699
     40457     37699     40460     37699     40463     37699     40466     37699
     40469     37699     40472     37699     40475     37699     40478     37699
     40481     37699     40484     37699     40487     37699     40490     37699
     40493     37699     40496     37699     40499     37699     40502     37699
     40505     37699     40508     37699     40511     37699     40514     37699
     40517     37699     40520     37699     40523     37699     40526     37699
     40529     37699     40532     37699     40535     37699     40538     37699
     40541     37699     40544     37699     40547     37699     40550     37699
     40553     37699     40556     37699     40559     37699     40562     37699
     40565     37699     40568     37699     40571     37699     40574     37699
     40577     37699     40580     37699     40583     37699     40586     37699
     40589     37699     40592     37699     40595     37699     40598     37699
     40601     37699     40604     37699     40607     37699     40610     37699
     40613     37699     40616     37699     40619     37699     40622     37699
     40625     37699     40628     37699     40631     37699     40634     37699
     40637     37699     40640     37699     40643     37699     40646     37699
     40649     37699     40652     37699     40655     37699     40658     37699
     40661     37699     40664     37699     40667     37699     40670     37699
     40673     37699     40676     37699     40679     37699     40682     37699
     40685     37699     40688     37699     40691     37699     40694     37699
     40697     37699     40700     37699     40703     37699     40706     37699
     40709     37699     40712     37699     40715     37699     40718     37699
     40721     37699     40724     37699     40727     37699     40730     37699
     40733     37699     40736     37699     40739     37699     40742     37699
     40745     37699     40748     37699     40751     37699     40754     37699
     40757     37699     40760     37699     40763     37699     40766     37699
     40769     37699     40772     37699     40775     37699     40778     37699
     40781     37699     40784     37699     40787     37699     40790     37699
     40793     37699     40796     37699     40799     37699     40802     37699
     40805     37699     40808     37699     40811     37699     40814     37699
     40817     37699     40820     37699     40823     37699     40826     37699
     40829     37699     40832     37699     40835     37699     40838     37699
     40841     37699     40844     37699     40847     37699     40850     37699
     40853     37699     40856     37699     40859     37699     40862     37699
     40865     37699     40868     37699     40871     37699     40874     37699
     40877     37699     40880     37699     40883     37699     40886     37699
     40889     37699     40892     37699     40895     37699     40898     37699
     40901     37699     40904     37699     40907     37699     40910     37699
     40913     37699     40916     37699     40919     37699     40922     37699
     40925     37699     40928     37699     40931     37699     40934     37699
     40937     37699     40940     37699     40943     37699     40946     37699
     40949     37699     40952     37699     40955     37699     40958     37699
     40961     37699     40964     37699     40967     37699     40970     37699
     40973     37699     40976     37699     40979     37699     40982     37699
     40985     37699     40988     37699     40991     37699     40994     37699
     40997     37699     41000     37699     41003     37699     41006     37699
     41009     37699     41012     37699     41015     37699     41018     37699
     41021     37699     41024     37699     41027     37699     41030     37699
     41033     37699     41036     37699     41039     37699     41042     37699
     41045     37699     41048     37699     41051     37699     41054     37699
     41057     37699     41060     37699     41063     37699     41066     37699
     41069     37699     41072     37699     41075     37699     41078     37699
     41081     37699     41084     37699     41087     37699     41090     37699
     41093     37699     41096     37699     41099     37699     41102     37699
     41105     37699     41108     37699     41111     37699     41114     37699
     41117     37699     41120     37699     41123     37699     41126     37699
     41129     37699     41132     37699     41135     37699     41138     37699
     41141     37699     41144     37699     41147     37699     41150     37699
     41153     37699     41156     37699     41159     37699     41162     37699
     41165     37699     41168     37699     41171     37699     41174     37699
     41177     37699     41180     37699     41183     37699     41186     37699
     41189     37699     41192     37699     41195     37699     41198     37699
     41201     37699     41204     37699     41207     37699     41210     37699
     41213     37699     41216     37699     41219     37699     41222     37699
     41225     37699     41228     37699     41231     37699     41234     37699
     41237     37699     41240     37699     41243     37699     41246     37699
     41249     37699     41252     37699     41255     37699     41258     37699
     41261     37699     41264     37699     41267     37699     41270     37699
     41273     37699     41276     37699     41279     37699     41282     37699
     41285     37699     41288     37699     41291     37699     41294     37699
     41297     37699     41300     37699     41303     37699     41306     37699
     41309     37699     41312     37699     41315     37699     41318     37699
     41321     37699     41324     37699     41327     37699     41330     37699
     41333     37699     41336     37699     41339     37699     41342     37699
     41345     37699     41348     37699     41351     37699     41354     37699
     41357     37699     41360     37699     41363     37699     41366     37699
     41369     37699     41372     37699     41375     37699     41378     37699
     41381     37699     41384     37699     41387     37699     41390     37699
     41393     37699     41396     37699     41399     37699     41402     37699
     41405     37699     41408     37699     41411     37699     41414     37699
     41417     37699     41420     37699     41423     37699     41426     37699
     41429     37699     41432     37699     41435     37699     41438     37699
     41441     37699     41444     37699     41447     37699     41450     37699
     41453     37699     41456     37699     41459     37699     41462     37699
     41465     37699     41468     37699     41471     37699     41474     37699
     41477     37699     41480     37699     41483     37699     41486     37699
     41489     37699     41492     37699     41495     37699     41498     37699
     41501     37699     41504     37699     41507     37699     41510     37699
     41513     37699     41516     37699     41519     37699     41522     37699
     41525     37699     41528     37699     41531     37699     41534     37699
     41537     37699     41540     37699     41543     37699     41546     37699
     41549     37699     41552     37699     41555     37699     41558     37699
     41561     37699     41564     37699     41567     37699     41570     37699
     41573     37699     41576     37699     41579     37699     41582     37699
     41585     37699     41588     37699     41591     37699     41594     37699
     41597     37699     41600     37699     41603     37699     41606     37699
     41609     37699     41612     37699     41615     37699     41618     37699
     41621     37699     41624     37699     41627     37699     41630     37699
     41633     37699     41636     37699     41639     37699     41642     37699
     41645     37699     41648     37699     41651     37699     41654     37699
     41657     37699     41660     37699     41663     37699     41666     37699
     41669     37699     41672     37699     41675     37699     41678     37699
     41681     37699     41684     37699     41687     37699     41690     37699
     41693     37699     41696     37699     41699     37699     41702     37699
     41705     37699     41708     37699     41711     37699     41714     37699
     41717     37699     41720     37699     41723     37699     41726     37699
     41729     37699     41732     37699     41735     37699     41738     37699
     41741     37699     41744     37699     41747     37699     41750     37699
     41753     37699     41756     37699     41759     37699     41762     37699
     41765     37699     41768     37699     41771     37699     41774     37699
     41777     37699     41780     37699     41783     37699     41786     37699
     41789     37699     41792     37699     41795     37699     41798     37699
     41801     37699     41804     37699     41807     37699     41810     37699
     41813     37699     41816     37699     41819     37699     41822     37699
     41825     37699     41828     37699     41831     37699     41834     37699
     41837     37699     41840     37699     41843     37699     41846     37699
     41849     37699     41852     37699     41855     37699     41858     37699
     41861     37699     41864     37699     41867     37699     41870     37699
     41873     37699     41876     37699     41879     37699     41882     37699
     41885     37699     41888     37699     41891     37699     41894     37699
     41897     37699     41900     37699     41903     37699     41906     37699
     41909     37699     41912     37699     41915     37699     41918     37699
     41921     37699     41924     37699     41927     37699     41930     37699
     41933     37699     41936     37699     41939     37699     41942     37699
     41945     37699     41948     37699     41951     37699     41954     37699
     41957     37699     41960     37699     41963     37699     41966     37699
     41969     37699     41972     37699     41975     37699     41978     37699
     41981     37699     41984     37699     41987     37699     41990     37699
     41993     37699     41996     37699     41999     37699     42002     37699
     42005     37699     42008     37699     42011     37699     42014     37699
     42017     37699     42020     37699     42023     37699     42026     37699
     42029     37699     42032     37699     42035     37699     42038     37699
     42041     37699     42044     37699     42047     37699     42050     37699
     42053     37699     42056     37699     42059     37699     42062     37699
     42065     37699     42068     37699     42071     37699     42074     37699
     42077     37699     42080     37699     42083     37699     42086     37699
     42089     37699     42092     37699     42095     37699     42098     37699
     42101     37699     42104     37699     42107     37699     42110     37699
     42113     37699     42116     37699     42119     37699     42122     37699
     42125     37699     42128     37699     42131     37699     42134     37699
     42137     37699     42140     37699     42143     37699     42146     37699
     42149     37699     42152     37699     42155     37699     42158     37699
     42161     37699     42164     37699     42167     37699     42170     37699
     42173     37699     42176     37699     42179     37699     42182     37699
     42185     37699     42188     37699     42191     37699     42194     37699
     42197     37699     42200     37699     42203     37699     42206     37699
     42209     37699     42212     37699     42215     37699     42218     37699
     42221     37699     42224     37699     42227     37699     42230     37699
     42233     37699     42236     37699     42239     37699     42242     37699
     42245     37699     42248     37699     42251     37699     42254     37699
     42257     37699     42260     37699     42263     37699     42266     37699
     42269     37699     42272     37699     42275     37699     42278     37699
     42281     37699     42284     37699     42287     37699     42290     37699
     42293     37699     42296     37699     42299     37699     42302     37699
     42305     37699     42308     37699     42311     37699     42314     37699
     42317     37699     42320     37699     42323     37699     42326     37699
     42329     37699     42332     37699     42335     37699     42338     37699
     42341     37699     42344     37699     42347     37699     42350     37699
     42353     37699     42356     37699     42359     37699     42362     37699
     42365     37699     42368     37699     42371     37699     42374     37699
     42377     37699     42380     37699     42383     37699     42386     37699
     42389     37699     42392     37699     42395     37699     42398     37699
     42401     37699     42404     37699     42407     37699     42410     37699
     42413     37699     42416     37699     42419     37699     42422     37699
     42425     37699     42428     37699     42431     37699     42434     37699
     42437     37699     42440     37699     42443     37699     42446     37699
     42449     37699     42452     37699     42455     37699     42458     37699
     42461     37699     42464     37699     42467     37699     42470     37699
     42473     37699     42476     37699     42479     37699     42482     37699
     42485     37699     42488     37699     42491     37699     42494     37699
     42497     37699     42500     37699     42503     37699     42506     37699
     42509     37699     42512     37699     42515     37699     42518     37699
     42521     37699     42524     37699     42527     37699     42530     37699
     42533     37699     42536     37699     42539     37699     42542     37699
     42545     37699     42548     37699     42551     37699     42554     37699
     42557     37699     42560     37699     42563     37699     42566     37699
     42569     37699     42572     37699     42575     37699     42578     37699
     42581     37699     42584     37699     42587     37699     42590     37699
     42593     37699     42596     37699     42599     37699     42602     37699
     42605     37699     42608     37699     42611     37699     42614     37699
     42617     37699     42620     37699     42623     37699     42626     37699
     42629     37699     42632     37699     42635     37699     42638     37699
     42641     37699     42644     37699     42647     37699     42650     37699
     42653     37699     42656     37699     42659     37699     42662     37699
     42665     37699     42668     37699     42671     37699     42674     37699
     42677     37699     42680     37699     42683     37699     42686     37699
     42689     37699     42692     37699     42695     37699     42698     37699
     42701     37699     42704     37699     42707     37699     42710     37699
     42713     37699     42716     37699     42719     37699     42722     37699
     42725     37699     42728     37699     42731     37699     42734     37699
     42737     37699     42740     37699     42743     37699     42746     37699
     42749     37699     42752     37699     42755     37699     42758     37699
     42761     37699     42764     37699     42767     37699     42770     37699
     42773     37699     42776     37699     42779     37699     42782     37699
     42785     37699     42788     37699     42791     37699     42794     37699
     42797     37699     42800     37699     42803     37699     42806     37699
     42809     37699     42812     37699     42815     37699     42818     37699
     42821     37699     42824     37699     42827     37699     42830     37699
     42833     37699     42836     37699     42839     37699     42842     37699
     42845     37699     42848     37699     42851     37699     42854     37699
     42857     37699     42860     37699     42863     37699     42866     37699
     42869     37699     42872     37699     42875     37699     42878     37699
     42881     37699     42884     37699     42887     37699     42890     37699
     42893     37699     42896     37699     42899     37699     42902     37699
     42905     37699     42908     37699     42911     37699     42914     37699
     42917     37699     42920     37699     42923     37699     42926     37699
     42929     37699     42932     37699     42935     37699     42938     37699
     42941     37699     42944     37699     42947     37699     42950     37699
     42953     37699     42956     37699     42959     37699     42962     37699
     42965     37699     42968     37699     42971     37699     42974     37699
     42977     37699     42980     37699     42983     37699     42986     37699
     42989     37699     42992     37699     42995     37699     42998     37699
     43001     37699     43004     37699     43007     37699     43010     37699
     43013     37699     43016     37699     43019     37699     43022     37699
     43025     37699     43028     37699     43031     37699     43034     37699
     43037     37699     43040     37699     43043     37699     43046     37699
     43049     37699     43052     37699     43055     37699     43058     37699
     43061     37699     43064     37699     43067     37699     43070     37699
     43073     37699     43076     37699     43079     37699     43082     37699
     43085     37699     43088     37699     43091     37699     43094     37699
     43097     37699     43100     37699     43103     37699     43106     37699
     43109     37699     43112     37699     43115     37699     43118     37699
     43121     37699     43124     37699     43127     37699     43130     37699
     43133     37699     43136     37699     43139     37699     43142     37699
     43145     37699     43148     37699     43151     37699     43154     37699
     43157     37699     43160     37699     43163     37699     43166     37699
     43169     37699     43172     37699     43175     37699     43178     37699
     43181     37699     43184     37699     43187     37699     43190     37699
     43193     37699     43196     37699     43199     37699     43202     37699
     43205     37699     43208     37699     43211     37699     43214     37699
     43217     37699     43220     37699     43223     37699     43226     37699
     43229     37699     43232     37699     43235     37699     43238     37699
     43241     37699     43244     37699     43247     37699     43250     37699
     43253     37699     43256     37699     43259     37699     43262     37699
     43265     37699     43268     37699     43271     37699     43274     37699
     43277     37699     43280     37699     43283     37699     43286     37699
     43289     37699     43292     37699     43295     37699     43298     37699
     43301     37699     43304     37699     43307     37699     43310     37699
     43313     37699     43316     37699     43319     37699     43322     37699
     43325     37699     43328     37699     43331     37699     43334     37699
     43337     37699     43340     37699     43343     37699     43346     37699
     43349     37699     43352     37699     43355     37699     43358     37699
     43361     37699     43364     37699     43367     37699     43370     37699
     43373     37699     43376     37699     43379     37699     43382     37699
     43385     37699     43388     37699     43391     37699     43394     37699
     43397     37699     43400     37699     43403     37699     43406     37699
     43409     37699     43412     37699     43415     37699     43418     37699
     43421     37699     43424     37699     43427     37699     43430     37699
     43433     37699     43436     37699     43439     37699     43442     37699
     43445     37699     43448     37699     43451     37699     43454     37699
     43457     37699     43460     37699     43463     37699     43466     37699
     43469     37699     43472     37699     43475     37699     43478     37699
     43481     37699     43484     37699     43487     37699     43490     37699
     43493     37699     43496     37699     43499     37699     43502     37699
     43505     37699     43508     37699     43511     37699     43514     37699
     43517     37699     43520     37699     43523     37699     43526     37699
     43529     37699     43532     37699     43535     37699     43538     37699
     43541     37699     43544     37699     43547     37699     43550     37699
     43553     37699     43556     37699     43559     37699     43562     37699
     43565     37699     43568     37699     43571     37699     43574     37699
     43577     37699     43580     37699     43583     37699     43586     37699
     43589     37699     43592     37699     43595     37699     43598     37699
     43601     37699     43604     37699     43607     37699     43610     37699
     43613     37699     43616     37699     43619     37699     43622     37699
     43625     37699     43628     37699     43631     37699     43634     37699
     43637     37699     43640     37699     43643     37699     43646     37699
     43649     37699     43652     37699     43655     37699     43658     37699
     43661     37699     43664     37699     43667     37699     43670     37699
     43673     37699     43676     37699     43679     37699     43682     37699
     43685     37699     43688     37699     43691     37699     43694     37699
     43697     37699     43700     37699     43703     37699     43706     37699
     43709     37699     43712     37699     43715     37699     43718     37699
     43721     37699     43724     37699     43727     37699     43730     37699
     43733     37699     43736     37699     43739     37699     43742     37699
     43745     37699     43748     37699     43751     37699     43754     37699
     43757     37699     43760     37699     43763     37699     43766     37699
     43769     37699     43772     37699     43775     37699     43778     37699
     43781     37699     43784     37699     43787     37699     43790     37699
     43793     37699     43796     37699     43799     37699     43802     37699
     43805     37699     43808     37699     43811     37699     43814     37699
     43817     37699     43820     37699     43823     37699     43826     37699
     43829     37699     43832     37699     43835     37699     43838     37699
     43841     37699     43844     37699     43847     37699     43850     37699
     43853     37699     43856     37699     43859     37699     43862     37699
     43865     37699     43868     37699     43871     37699     43874     37699
     43877     37699     43880     37699     43883     37699     43886     37699
     43889     37699     43892     37699     43895     37699     43898     37699
     43901     37699     43904     37699     43907     37699     43910     37699
     43913     37699     43916     37699     43919     37699     43922     37699
     43925     37699     43928     37699     43931     37699     43934     37699
     43937     37699     43940     37699     43943     37699     43946     37699
     43949     37699     43952     37699     43955     37699     43958     37699
     43961     37699     43964     37699     43967     37699     43970     37699
     43973     37699     43976     37699     43979     37699     43982     37699
     43985     37699     43988     37699     43991     37699     43994     37699
     43997     37699     44000     37699     44003     37699     44006     37699
     44009     37699     44012     37699     44015     37699     44018     37699
     44021     37699     44024     37699     44027     37699     44030     37699
     44033     37699     44036     37699     44039     37699     44042     37699
     44045     37699     44048     37699     44051     37699     44054     37699
     44057     37699     44060     37699     44063     37699     44066     37699
     44069     37699     44072     37699     44075     37699     44078     37699
     44081     37699     44084     37699     44087     37699     44090     37699
     44093     37699     44096     37699     44099     37699     44102     37699
     44105     37699     44108     37699     44111     37699     44114     37699
     44117     37699     44120     37699     44123     37699     44126     37699
     44129     37699     44132     37699     44135     37699     44138     37699
     44141     37699     44144     37699     44147     37699     44150     37699
     44153     37699     44156     37699     44159     37699     44162     37699
     44165     37699     44168     37699     44171     37699     44174     37699
     44177     37699     44180     37699     44183     37699     44186     37699
     44189     37699     44192     37699     44195     37699     44198     37699
     44201     37699     44204     37699     44207     37699     44210     37699
     44213     37699     44216     37699     44219     37699     44222     37699
     44225     37699     44228     37699     44231     37699     44234     37699
     44237     37699     44240     37699     44243     37699     44246     37699
     44249     37699     44252     37699     44255     37699     44258     37699
     44261     37699     44264     37699     44267     37699     44270     37699
     44273     37699     44276     37699     44279     37699     44282     37699
     44285     37699     44288     37699     44291     37699     44294     37699
     44297     37699     44300     37699     44303     37699     44306     37699
     44309     37699     44312     37699     44315     37699     44318     37699
     44321     37699     44324     37699     44327     37699     44330     37699
     44333     37699     44336     37699     44339     37699     44342     37699
     44345     37699     44348     37699     44351     37699     44354     37699
     44357     37699     44360     37699     44363     37699     44366     37699
     44369     37699     44372     37699     44375     37699     44378     37699
     44381     37699     44384     37699     44387     37699     44390     37699
     44393     37699     44396     37699     44399     37699     44402     37699
     44405     37699     44408     37699     44411     37699     44414     37699
     44417     37699     44420     37699     44423     37699     44426     37699
     44429     37699     44432     37699     44435     37699     44438     37699
     44441     37699     44444     37699     44447     37699     44450     37699
     44453     37699     44456     37699     44459     37699     44462     37699
     44465     37699     44468     37699     44471     37699     44474     37699
     44477     37699     44480     37699     44483     37699     44486     37699
     44489     37699     44492     37699     44495     37699     44498     37699
     44501     37699     44504     37699     44507     37699     44510     37699
     44513     37699     44516     37699     44519     37699     44522     37699
     44525     37699     44528     37699     44531     37699     44534     37699
     44537     37699     44540     37699     44543     37699     44546     37699
     44549     37699     44552     37699     44555     37699     44558     37699
     44561     37699     44564     37699     44567     37699     44570     37699
     44573     37699     44576     37699     44579     37699     44582     37699
     44585     37699     44588     37699     44591     37699     44594     37699
     44597     37699     44600     37699     44603     37699     44606     37699
     44609     37699     44612     37699     44615     37699     44618     37699
     44621     37699     44624     37699     44627     37699     44630     37699
     44633     37699     44636     37699     44639     37699     44642     37699
     44645     37699     44648     37699     44651     37699     44654     37699
     44657     37699     44660     37699     44663     37699     44666     37699
     44669     37699     44672     37699     44675     37699     44678     37699
     44681     37699     44684     37699     44687     37699     44690     37699
     44693     37699     44696     37699     44699     37699     44702     37699
     44705     37699     44708     37699     44711     37699     44714     37699
     44717     37699     44720     37699     44723     37699     44726     37699
     44729     37699     44732     37699     44735     37699     44738     37699
     44741     37699     44744     37699     44747     37699     44750     37699
     44753     37699     44756     37699     44759     37699     44762     37699
     44765     37699     44768     37699     44771     37699     44774     37699
     44777     37699     44780     37699     44783     37699     44786     37699
     44789     37699     44792     37699     44795     37699     44798     37699
     44801     37699     44804     37699     44807     37699     44810     37699
     44813     37699     44816     37699     44819     37699     44822     37699
     44825     37699     44828     37699     44831     37699     44834     37699
     44837     37699     44840     37699     44843     37699     44846     37699
     44849     37699     44852     37699     44855     37699     44858     37699
     44861     37699     44864     37699     44867     37699     44870     37699
     44873     37699     44876     37699     44879     37699     44882     37699
     44885     37699     44888     37699     44891     37699     44894     37699
     44897     37699     44900     37699     44903     37699     44906     37699
     44909     37699     44912     37699     44915     37699     44918     37699
     44921     37699     44924     37699     44927     37699     44930     37699
     44933     37699     44936     37699     44939     37699     44942     37699
     44945     37699     44948     37699     44951     37699     44954     37699
     44957     37699     44960     37699     44963     37699     44966     37699
     44969     37699     44972     37699     44975     37699     44978     37699
     44981     37699     44984     37699     44987     37699     44990     37699
     44993     37699     44996     37699     44999     37699     45002     37699
     45005     37699     45008     37699     45011     37699     45014     37699
     45017     37699     45020     37699     45023     37699     45026     37699
     45029     37699     45032     37699     45035     37699     45038     37699
     45041     37699     45044     37699     45047     37699     45050     37699
     45053     37699     45056     37699     45059     37699     45062     37699
     45065     37699     45068     37699     45071     37699     45074     37699
     45077     37699     45080     37699     45083     37699     45086     37699
     45089     37699     45092     37699     45095     37699     45098     37699
     45101     37699     45104     37699     45107     37699     45110     37699
     45113     37699     45116     37699     45119     37699     45122     37699
     45125     37699     45128     37699     45131     37699     45134     37699
     45137     37699     45140     37699     45143     37699     45146     37699
     45149     37699     45152     37699     45155     37699     45158     37699
     45161     37699     45164     37699     45167     37699     45170     37699
     45173     37699     45176     37699     45179     37699     45182     37699
     45185     37699     45188     37699     45191     37699     45194     37699
     45197     37699     45200     37699     45203     37699     45206     37699
     45209     37699     45212     37699     45215     37699     45218     37699
     45221     37699     45224     37699     45227     37699     45230     37699
     45233     37699     45236     37699     45239     37699     45242     37699
     45245     37699     45248     37699     45251     37699     45254     37699
     45257     37699     45260     37699     45263     37699     45266     37699
     45269     37699     45272     37699     45275     37699     45278     37699
     45281     37699     45284     37699     45287     37699     45290     37699
     45293     37699     45296     37699     45299     37699     45302     37699
     45305     37699     45308     37699     45311     37699     45314     37699
     45317     37699     45320     37699     45323     37699     45326     37699
     45329     37699     45332     37699     45335     37699     45338     37699
     45341     37699     45344     37699     45347     37699     45350     37699
     45353     37699     45356     37699     45359     37699     45362     37699
     45365     37699     45368     37699     45371     37699     45374     37699
     45377     37699     45380     37699     45383     37699     45386     37699
     45389     37699     45392     37699     45395     37699     45398     37699
     45401     37699     45404     37699     45407     37699     45410     37699
     45413     37699     45416     37699     45419     37699     45422     37699
     45425     37699     45428     37699     45431     37699     45434     37699
     45437     37699     45440     37699     45443     37699     45446     37699
     45449     37699     45452     37699     45455     37699     45458     37699
     45461     37699     45464     37699     45467     37699     45470     37699
     45473     37699     45476     37699     45479     37699     45482     37699
     45485     37699     45488     37699     45491     37699     45494     37699
     45497     37699     45500     37699     45503     37699     45506     37699
     45509     37699     45512     37699     45515     37699     45518     37699
     45521     37699     45524     37699     45527     37699     45530     37699
     45533     37699     45536     37699     45539     37699     45542     37699
     45545     37699     45548     37699     45551     37699     45554     37699
     45557     37699     45560     37699     45563     37699     45566     37699
     45569     37699     45572     37699     45575     37699     45578     37699
     45581     37699     45584     37699     45587     37699     45590     37699
     45593     37699     45596     37699     45599     37699     45602     37699
     45605     37699     45608     37699     45611     37699     45614     37699
     45617     37699     45620     37699     45623     37699     45626     37699
     45629     37699     45632     37699     45635     37699     45638     37699
     45641     37699     45644     37699     45647     37699     45650     37699
     45653     37699     45656     37699     45659     37699     45662     37699
     45665     37699     45668     37699     45671     37699     45674     37699
     45677     37699     45680     37699     45683     37699     45686     37699
     45689     37699     45692     37699     45695     37699     45698     37699
     45701     37699     45704     37699     45707     37699     45710     37699
     45713     37699     45716     37699     45719     37699     45722     37699
     45725     37699     45728     37699     45731     37699     45734     37699
     45737     37699     45740     37699     45743     37699     45746     37699
     45749     37699     45752     37699     45755     37699     45758     37699
     45761     37699     45764     37699     45767     37699     45770     37699
     45773     37699     45776     37699     45779     37699     45782     37699
     45785     37699     45788     37699     45791     37699     45794     37699
     45797     37699     45800     37699     45803     37699     45806     37699
     45809     37699     45812     37699     45815     37699     45818     37699
     45821     37699     45824     37699     45827     37699     45830     37699
     45833     37699     45836     37699     45839     37699     45842     37699
     45845     37699     45848     37699     45851     37699     45854     37699
     45857     37699     45860     37699     45863     37699     45866     37699
     45869     37699     45872     37699     45875     37699     45878     37699
     45881     37699     45884     37699     45887     37699     45890     37699
     45893     37699     45896     37699     45899     37699     45902     37699
     45905     37699     45908     37699     45911     37699     45914     37699
     45917     37699     45920     37699     45923     37699     45926     37699
     45929     37699     45932     37699     45935     37699     45938     37699
     45941     37699     45944     37699     45947     37699     45950     37699
     45953     37699     45956     37699     45959     37699     45962     37699
     45965     37699     45968     37699     45971     37699     45974     37699
     45977     37699     45980     37699     45983     37699     45986     37699
     45989     37699     45992     37699     45995     37699     45998     37699
     46001     37699     46004     37699     46007     37699     46010     37699
     46013     37699     46016     37699     46019     37699     46022     37699
     46025     37699     46028     37699     46031     37699     46034     37699
     46037     37699     46040     37699     46043     37699     46046     37699
     46049     37699     46052     37699     46055     37699     46058     37699
     46061     37699     46064     37699     46067     37699     46070     37699
     46073     37699     46076     37699     46079     37699     46082     37699
     46085     37699     46088     37699     46091     37699     46094     37699
     46097     37699     46100     37699     46103     37699     46106     37699
     46109     37699     46112     37699     46115     37699     46118     37699
     46121     37699     46124     37699     46127     37699     46130     37699
     46133     37699     46136     37699     46139     37699     46142     37699
     46145     37699     46148     37699     46151     37699     46154     37699
     46157     37699     46160     37699     46163     37699     46166     37699
     46169     37699     46172     37699     46175     37699     46178     37699
     46181     37699     46184     37699     46187     37699     46190     37699
     46193     37699     46196     37699     46199     37699     46202     37699
     46205     37699     46208     37699     46211     37699     46214     37699
     46217     37699     46220     37699     46223     37699     46226     37699
     46229     37699     46232     37699     46235     37699     46238     37699
     46241     37699     46244     37699     46247     37699     46250     37699
     46253     37699     46256     37699     46259     37699     46262     37699
     46265     37699     46268     37699     46271     37699     46274     37699
     46277     37699     46280     37699     46283     37699     46286     37699
     46289     37699     46292     37699     46295     37699     46298     37699
     46301     37699     46304     37699     46307     37699     46310     37699
     46313     37699     46316     37699     46319     37699     46322     37699
     46325     37699     46328     37699     46331     37699     46334     37699
     46337     37699     46340     37699     46343     37699     46346     37699
     46349     37699     46352     37699     46355     37699     46358     37699
     46361     37699     46364     37699     46367     37699     46370     37699
     46373     37699     46376     37699     46379     37699     46382     37699
     46385     37699     46388     37699     46391     37699     46394     37699
     46397     37699     46400     37699     46403     37699     46406     37699
     46409     37699     46412     37699     46415     37699     46418     37699
     46421     37699     46424     37699     46427     37699     46430     37699

         0 !NNB

         0         0         0         0         0         0         0         0
         0         0         0         0         0         0         0         0
         0         0         0         0         0         0         0         0
         0         0         0         0         0         0         0         0
         0         0         0         0         0         0         0         0
         0         0         0         0         0         0         0         0
         0         0         0         0         0         0         0         0
         0         0         0         0         0         0         0         0
         0         0         0         0         0         0         0         0
         0         0         0         0         0         0         0         0
         0         0         0         0         0         0         0         0
         0         0         0         0         0         0         0         0
         0         0         0         0         0         0         0         0
         0         0         0         0         0         0         0         0
         0         0         0         0         0         0         0         0
         0         0         0         0         0         0         0         0
         0         0         0         0         0         0         0         0
         0         0         0         0         0         0         0         0
         0         0         0         0         0         0         0         0
         0         0         0         0         0         0         0         0
         0         0         0         0         0         0         0         0
         0         0         0         0         0         0         0         0
         0         0         0         0         0         0         0         0
         0         0         0         0         0         0         0         0
         0         0         0         0         0         0         0         0
         0         0         0         0         0         0         0         0
         0         0         0         0         0         0         0         0
         0         0         0         0         0         0         0         0
         0         0         0         0         0         0         0         0
         0         0         0         0         0         0         0         0
         0         0         0         0         0         0         0         0
         0         0         0         0         0         0         0         0
         0         0         0         0         0         0         0         0
         0         0         0         0         0         0         0         0
         0         0         0         0         0         0         0         0
         0         0         0         0         0         0         0         0
         0         0         0         0         0         0         0         0
         0         0         0         0         0         0         0         0
         0         0         0         0         0         0         0         0
         0         0         0         0         0         0         0         0
         0         0         0         0         0         0         0         0
         0         0         0         0         0         0         0         0
         0         0         0         0         0         0         0         0
         0         0         0         0         0         0         0         0
         0         0         0         0         0         0         0         0
         0         0         0         0         0         0         0         0
         0         0         0         0         0         0         0         0
         0         0         0         0         0         0         0         0
         0         0         0         0         0         0         0         0
         0         0         0         0         0         0         0         0
         0         0         0         0         0         0         0         0
         0         0         0         0         0         0         0         0
         0         0         0         0         0         0         0         0
         0         0         0         0         0         0         0         0
         0         0         0         0         0         0         0         0
         0         0         0         0         0         0         0         0
         0         0         0         0         0         0         0         0
         0         0         0         0         0         0         0         0
         0         0         0         0         0         0         0         0
         0         0         0         0         0         0         0         0
         0         0         0         0         0         0         0         0
         0         0         0         0         0         0         0         0
         0         0         0         0         0         0         0         0
         0         0         0         0         0         0         0         0
         0         0         0         0         0         0         0         0
         0         0         0         0         0         0         0         0
         0         0         0         0         0         0         0         0
         0         0         0         0         0         0         0         0
         0         0         0         0         0         0         0         0
         0         0         0         0         0         0         0         0
         0         0         0         0         0         0         0         0
         0         0         0         0         0         0         0         0
         0         0         0         0         0         0         0         0
         0         0         0         0         0         0         0         0
         0         0         0         0         0         0         0         0
         0         0         0         0         0         0         0         0
         0         0         0         0         0         0         0         0
         0         0         0         0         0         0         0         0
         0         0         0         0         0         0         0         0
         0         0         0         0         0         0         0         0
         0         0         0         0         0         0         0         0
         0         0         0         0         0         0         0         0
         0         0         0         0         0         0         0         0
         0         0         0         0         0         0         0         0
         0         0         0         0         0         0         0         0
         0         0         0         0         0         0         0         0
         0         0         0         0         0         0         0         0
         0         0         0         0         0         0         0         0
         0         0         0         0         0         0         0         0
         0         0         0         0         0         0         0         0
         0         0         0         0         0         0         0         0
         0         0         0         0         0         0         0         0
         0         0         0         0         0         0         0         0
         0         0         0         0         0         0         0         0
         0         0         0         0         0         0         0         0
         0         0         0         0         0         0         0         0
         0         0         0         0         0         0         0         0
         0         0         0         0         0         0         0         0
         0         0         0         0         0         0         0         0
         0         0         0         0         0         0         0         0
         0         0         0         0         0         0         0         0
         0         0         0         0         0         0         0         0
         0         0         0         0         0         0         0         0
         0         0         0         0         0         0         0         0
         0         0         0         0         0         0         0         0
         0         0         0         0         0         0         0         0
         0         0         0         0         0         0         0         0
         0         0         0         0         0         0         0         0
         0         0         0         0         0         0         0         0
         0         0         0         0         0         0         0         0
         0         0         0         0         0         0         0         0
         0         0         0         0         0         0         0         0
         0         0         0         0         0         0         0         0
         0         0         0         0         0         0         0         0
         0         0         0         0         0         0         0         0
         0         0         0         0         0         0         0         0
         0         0         0         0         0         0         0         0
         0         0         0         0         0         0         0         0
         0         0         0         0         0         0         0         0
         0         0         0         0         0         0         0         0
         0         0         0         0         0         0         0         0
         0         0         0         0         0         0         0         0
         0         0         0         0         0         0         0         0
         0         0         0         0         0         0         0         0
         0         0         0         0         0         0         0         0
         0         0         0         0         0         0         0         0
         0         0         0         0         0         0         0         0
         0         0         0         0         0         0         0         0
         0         0         0         0         0         0         0         0
         0         0         0         0         0         0         0         0
         0         0         0         0         0         0         0         0
         0         0         0         0         0         0         0         0
         0         0         0         0         0         0         0         0
         0         0         0         0         0         0         0         0
         0         0         0         0         0         0         0         0
         0         0         0         0         0         0         0         0
         0         0         0         0         0         0         0         0
         0         0         0         0         0         0         0         0
         0         0         0         0         0         0         0         0
         0         0         0         0         0         0         0         0
         0         0         0         0         0         0         0         0
         0         0         0         0         0         0         0         0
         0         0         0         0         0         0         0         0
         0         0         0         0         0         0         0         0
         0         0         0         0         0         0         0         0
         0         0         0         0         0         0         0         0
         0         0         0         0         0         0         0         0
         0         0         0         0         0         0         0         0
         0         0         0         0         0         0         0         0
         0         0         0         0         0         0         0         0
         0         0         0         0         0         0         0         0
         0         0         0         0         0         0         0         0
         0         0         0         0         0         0         0         0
         0         0         0         0         0         0         0         0
         0         0         0         0         0         0         0         0
         0         0         0         0         0         0         0         0
         0         0         0         0         0         0         0         0
         0         0         0         0         0         0         0         0
         0         0         0         0         0         0         0         0
         0         0         0         0         0         0         0         0
         0         0         0         0         0         0         0         0
         0         0         0         0         0         0         0         0
         0         0         0         0         0         0         0         0
         0         0         0         0         0         0         0         0
         0         0         0         0         0         0         0         0
         0         0         0         0         0         0         0         0
         0         0         0         0         0         0         0         0
         0         0         0         0         0         0         0         0
         0         0         0         0         0         0         0         0
         0         0         0         0         0         0         0         0
         0         0         0         0         0         0         0         0
         0         0         0         0         0         0         0         0
         0         0         0         0         0         0         0         0
         0         0         0         0         0         0         0         0
         0         0         0         0         0         0         0         0
         0         0         0         0         0         0         0         0
         0         0         0         0         0         0         0         0
         0         0         0         0         0         0         0         0
         0         0         0         0         0         0         0         0
         0         0         0         0         0         0         0         0
         0         0         0         0         0         0         0         0
         0         0         0         0         0         0         0         0
         0         0         0         0         0         0         0         0
         0         0         0         0         0         0         0         0
         0         0         0         0         0         0         0         0
         0         0         0         0         0         0         0         0
         0         0         0         0         0         0         0         0
         0         0         0         0         0         0         0         0
         0         0         0         0         0         0         0         0
         0         0         0         0         0         0         0         0
         0         0         0         0         0         0         0         0
         0         0         0         0         0         0         0         0
         0         0         0         0         0         0         0         0
         0         0         0         0         0         0         0         0
         0         0         0         0         0         0         0         0
         0         0         0         0         0         0         0         0
         0         0         0         0         0         0         0         0
         0         0         0         0         0         0         0         0
         0         0         0         0         0         0         0         0
         0         0         0         0         0         0         0         0
         0         0         0         0         0         0         0         0
         0         0         0         0         0         0         0         0
         0         0         0         0         0         0         0         0
         0         0         0         0         0         0         0         0
         0         0         0         0         0         0         0         0
         0         0         0         0         0         0         0         0
         0         0         0         0         0         0         0         0
         0         0         0         0         0         0         0         0
         0         0         0         0         0         0         0         0
         0         0         0         0         0         0         0         0
         0         0         0         0         0         0         0         0
         0         0         0         0         0         0         0         0
         0         0         0         0         0         0         0         0
         0         0         0         0         0         0         0         0
         0         0         0         0         0         0         0         0
         0         0         0         0         0         0         0         0
         0         0         0         0         0         0         0         0
         0         0         0         0         0         0         0         0
         0         0         0         0         0         0         0         0
         0         0         0         0         0         0         0         0
         0         0         0         0         0         0         0         0
         0         0         0         0         0         0         0         0
         0         0         0         0         0         0         0         0
         0         0         0         0         0         0         0         0
         0         0         0         0         0         0         0         0
         0         0         0         0         0         0         0         0
         0         0         0         0         0         0         0         0
         0         0         0         0         0         0         0         0
         0         0         0         0         0         0         0         0
         0         0         0         0         0         0         0         0
         0         0         0         0         0         0         0         0
         0         0         0         0         0         0         0         0
         0         0         0         0         0         0         0         0
         0         0         0         0         0         0         0         0
         0         0         0         0         0         0         0         0
         0         0         0         0         0         0         0         0
         0         0         0         0         0         0         0         0
         0         0         0         0         0         0         0         0
         0         0         0         0         0         0         0         0
         0         0         0         0         0         0         0         0
         0         0         0         0         0         0         0         0
         0         0         0         0         0         0         0         0
         0         0         0         0         0         0         0         0
         0         0         0         0         0         0         0         0
         0         0         0         0         0         0         0         0
         0         0         0         0         0         0         0         0
         0         0         0         0         0         0         0         0
         0         0         0         0         0         0         0         0
         0         0         0         0         0         0         0         0
         0         0         0         0         0         0         0         0
         0         0         0         0         0         0         0         0
         0         0         0         0         0         0         0         0
         0         0         0         0         0         0         0         0
         0         0         0         0         0         0         0         0
         0         0         0         0         0         0         0         0
         0         0         0         0         0         0         0         0
         0         0         0         0         0         0         0         0
         0         0         0         0         0         0         0         0
         0         0         0         0         0         0         0         0
         0         0         0         0         0         0         0         0
         0         0         0         0         0         0         0         0
         0         0         0         0         0         0         0         0
         0         0         0         0         0         0         0         0
         0         0         0         0         0         0         0         0
         0         0         0         0         0         0         0         0
         0         0         0         0         0         0         0         0
         0         0         0         0         0         0         0         0
         0         0         0         0         0         0         0         0
         0         0         0         0         0         0         0         0
         0         0         0         0         0         0         0         0
         0         0         0         0         0         0         0         0
         0         0         0         0         0         0         0         0
         0         0         0         0         0         0         0         0
         0         0         0         0         0         0         0         0
         0         0         0         0         0         0         0         0
         0         0         0         0         0         0         0         0
         0         0         0         0         0         0         0         0
         0         0         0         0         0         0         0         0
         0         0         0         0         0         0         0         0
         0         0         0         0         0         0         0         0
         0         0         0         0         0         0         0         0
         0         0         0         0         0         0         0         0
         0         0         0         0         0         0         0         0
         0         0         0         0         0         0         0         0
         0         0         0         0         0         0         0         0
         0         0         0         0         0         0         0         0
         0         0         0         0         0         0         0         0
         0         0         0         0         0         0         0         0
         0         0         0         0         0         0         0         0
         0         0         0         0         0         0         0         0
         0         0         0         0         0         0         0         0
         0         0         0         0         0         0         0         0
         0         0         0         0         0         0         0         0
         0         0         0         0         0         0         0         0
         0         0         0         0         0         0         0         0
         0         0         0         0         0         0         0         0
         0         0         0         0         0         0         0         0
         0         0         0         0         0         0         0         0
         0         0         0         0         0         0         0         0
         0         0         0         0         0         0         0         0
         0         0         0         0         0         0         0         0
         0         0         0         0         0         0         0         0
         0         0         0         0         0         0         0         0
         0         0         0         0         0         0         0         0
         0         0         0         0         0         0         0         0
         0         0         0         0         0         0         0         0
         0         0         0         0         0         0         0         0
         0         0         0         0         0         0         0         0
         0         0         0         0         0         0         0         0
         0         0         0         0         0         0         0         0
         0         0         0         0         0         0         0         0
         0         0         0         0         0         0         0         0
         0         0         0         0         0         0         0         0
         0         0         0         0         0         0         0         0
         0         0         0         0         0         0         0         0
         0         0         0         0         0         0         0         0
         0         0         0         0         0         0         0         0
         0         0         0         0         0         0         0         0
         0         0         0         0         0         0         0         0
         0         0         0         0         0         0         0         0
         0         0         0         0         0         0         0         0
         0         0         0         0         0         0         0         0
         0         0         0         0         0         0         0         0
         0         0         0         0         0         0         0         0
         0         0         0         0         0         0         0         0
         0         0         0         0         0         0         0         0
         0         0         0         0         0         0         0         0
         0         0         0         0         0         0         0         0
         0         0         0         0         0         0         0         0
         0         0         0         0         0         0         0         0
         0         0         0         0         0         0         0         0
         0         0         0         0         0         0         0         0
         0         0         0         0         0         0         0         0
         0         0         0         0         0         0         0         0
         0         0         0         0         0         0         0         0
         0         0         0         0         0         0         0         0
         0         0         0         0         0         0         0         0
         0         0         0         0         0         0         0         0
         0         0         0         0         0         0         0         0
         0         0         0         0         0         0         0         0
         0         0         0         0         0         0         0         0
         0         0         0         0         0         0         0         0
         0         0         0         0         0         0         0         0
         0         0         0         0         0         0         0         0
         0         0         0         0         0         0         0         0
         0         0         0         0         0         0         0         0
         0         0         0         0         0         0         0         0
         0         0         0         0         0         0         0         0
         0         0         0         0         0         0         0         0
         0         0         0         0         0         0         0         0
         0         0         0         0         0         0         0         0
         0         0         0         0         0         0         0         0
         0         0         0         0         0         0         0         0
         0         0         0         0         0         0         0         0
         0         0         0         0         0         0         0         0
         0         0         0         0         0         0         0         0
         0         0         0         0         0         0         0         0
         0         0         0         0         0         0         0         0
         0         0         0         0         0         0         0         0
         0         0         0         0         0         0         0         0
         0         0         0         0         0         0         0         0
         0         0         0         0         0         0         0         0
         0         0         0         0         0         0         0         0
         0         0         0         0         0         0         0         0
         0         0         0         0         0         0         0         0
         0         0         0         0         0         0         0         0
         0         0         0         0         0         0         0         0
         0         0         0         0         0         0         0         0
         0         0         0         0         0         0         0         0
         0         0         0         0         0         0         0         0
         0         0         0         0         0         0         0         0
         0         0         0         0         0         0         0         0
         0         0         0         0         0         0         0         0
         0         0         0         0         0         0         0         0
         0         0         0         0         0         0         0         0
         0         0         0         0         0         0         0         0
         0         0         0         0         0         0         0         0
         0         0         0         0         0         0         0         0
         0         0         0         0         0         0         0         0
         0         0         0         0         0         0         0         0
         0         0         0         0         0         0         0         0
         0         0         0         0         0         0         0         0
         0         0         0         0         0         0         0         0
         0         0         0         0         0         0         0         0
         0         0         0         0         0         0         0         0
         0         0         0         0         0         0         0         0
         0         0         0         0         0         0         0         0
         0         0         0         0         0         0         0         0
         0         0         0         0         0         0         0         0
         0         0         0         0         0         0         0         0
         0         0         0         0         0         0         0         0
         0         0         0         0         0         0         0         0
         0         0         0         0         0         0         0         0
         0         0         0         0         0         0         0         0
         0         0         0         0         0         0         0         0
         0         0         0         0         0         0         0         0
         0         0         0         0         0         0         0         0
         0         0         0         0         0         0         0         0
         0         0         0         0         0         0         0         0
         0         0         0         0         0         0         0         0
         0         0         0         0         0         0         0         0
         0         0         0         0         0         0         0         0
         0         0         0         0         0         0         0         0
         0         0         0         0         0         0         0         0
         0         0         0         0         0         0         0         0
         0         0         0         0         0         0         0         0
         0         0         0         0         0         0         0         0
         0         0         0         0         0         0         0         0
         0         0         0         0         0         0         0         0
         0         0         0         0         0         0         0         0
         0         0         0         0         0         0         0         0
         0         0         0         0         0         0         0         0
         0         0         0         0         0         0         0         0
         0         0         0         0         0         0         0         0
         0         0         0         0         0         0         0         0
         0         0         0         0         0         0         0         0
         0         0         0         0         0         0         0         0
         0         0         0         0         0         0         0         0
         0         0         0         0         0         0         0         0
         0         0         0         0         0         0         0         0
         0         0         0         0         0         0         0         0
         0         0         0         0         0         0         0         0
         0         0         0         0         0         0         0         0
         0         0         0         0         0         0         0         0
         0         0         0         0         0         0         0         0
         0         0         0         0         0         0         0         0
         0         0         0         0         0         0         0         0
         0         0         0         0         0         0         0         0
         0         0         0         0         0         0         0         0
         0         0         0         0         0         0         0         0
         0         0         0         0         0         0         0         0
         0         0         0         0         0         0         0         0
         0         0         0         0         0         0         0         0
         0         0         0         0         0         0         0         0
         0         0         0         0         0         0         0         0
         0         0         0         0         0         0         0         0
         0         0         0         0         0         0         0         0
         0         0         0         0         0         0         0         0
         0         0         0         0         0         0         0         0
         0         0         0         0         0         0         0         0
         0         0         0         0         0         0         0         0
         0         0         0         0         0         0         0         0
         0         0         0         0         0         0         0         0
         0         0         0         0         0         0         0         0
         0         0         0         0         0         0         0         0
         0         0         0         0         0         0         0         0
         0         0         0         0         0         0         0         0
         0         0         0         0         0         0         0         0
         0         0         0         0         0         0         0         0
         0         0         0         0         0         0         0         0
         0         0         0         0         0         0         0         0
         0         0         0         0         0         0         0         0
         0         0         0         0         0         0         0         0
         0         0         0         0         0         0         0         0
         0         0         0         0         0         0         0         0
         0         0         0         0         0         0         0         0
         0         0         0         0         0         0         0         0
         0         0         0         0         0         0         0         0
         0         0         0         0         0         0         0         0
         0         0         0         0         0         0         0         0
         0         0         0         0         0         0         0         0
         0         0         0         0         0         0         0         0
         0         0         0         0         0         0         0         0
         0         0         0         0         0         0         0         0
         0         0         0         0         0         0         0         0
         0         0         0         0         0         0         0         0
         0         0         0         0         0         0         0         0
         0         0         0         0         0         0         0         0
         0         0         0         0         0         0         0         0
         0         0         0         0         0         0         0         0
         0         0         0         0         0         0         0         0
         0         0         0         0         0         0         0         0
         0         0         0         0         0         0         0         0
         0         0         0         0         0         0         0         0
         0         0         0         0         0         0         0         0
         0         0         0         0         0         0         0         0
         0         0         0         0         0         0         0         0
         0         0         0         0         0         0         0         0
         0         0         0         0         0         0         0         0
         0         0         0         0         0         0         0         0
         0         0         0         0         0         0         0         0
         0         0         0         0         0         0         0         0
         0         0         0         0         0         0         0         0
         0         0         0         0         0         0         0         0
         0         0         0         0         0         0         0         0
         0         0         0         0         0         0         0         0
         0         0         0         0         0         0         0         0
         0         0         0         0         0         0         0         0
         0         0         0         0         0         0         0         0
         0         0         0         0         0         0         0         0
         0         0         0         0         0         0         0         0
         0         0         0         0         0         0         0         0
         0         0         0         0         0         0         0         0
         0         0         0         0         0         0         0         0
         0         0         0         0         0         0         0         0
         0         0         0         0         0         0         0         0
         0         0         0         0         0         0         0         0
         0         0         0         0         0         0         0         0
         0         0         0         0         0         0         0         0
         0         0         0         0         0         0         0         0
         0         0         0         0         0         0         0         0
         0         0         0         0         0         0         0         0
         0         0         0         0         0         0         0         0
         0         0         0         0         0         0         0         0
         0         0         0         0         0         0         0         0
         0         0         0         0         0         0         0         0
         0         0         0         0         0         0         0         0
         0         0         0         0         0         0         0         0
         0         0         0         0         0         0         0         0
         0         0         0         0         0         0         0         0
         0         0         0         0         0         0         0         0
         0         0         0         0         0         0         0         0
         0         0         0         0         0         0         0         0
         0         0         0         0         0         0         0         0
         0         0         0         0         0         0         0         0
         0         0         0         0         0         0         0         0
         0         0         0         0         0         0         0         0
         0         0         0         0         0         0         0         0
         0         0         0         0         0         0         0         0
         0         0         0         0         0         0         0         0
         0         0         0         0         0         0         0         0
         0         0         0         0         0         0         0         0
         0         0         0         0         0         0         0         0
         0         0         0         0         0         0         0         0
         0         0         0         0         0         0         0         0
         0         0         0         0         0         0         0         0
         0         0         0         0         0         0         0         0
         0         0         0         0         0         0         0         0
         0         0         0         0         0         0         0         0
         0         0         0         0         0         0         0         0
         0         0         0         0         0         0         0         0
         0         0         0         0         0         0         0         0
         0         0         0         0         0         0         0         0
         0         0         0         0         0         0         0         0
         0         0         0         0         0         0         0         0
         0         0         0         0         0         0         0         0
         0         0         0         0         0         0         0         0
         0         0         0         0         0         0         0         0
         0         0         0         0         0         0         0         0
         0         0         0         0         0         0         0         0
         0         0         0         0         0         0         0         0
         0         0         0         0         0         0         0         0
         0         0         0         0         0         0         0         0
         0         0         0         0         0         0         0         0
         0         0         0         0         0         0         0         0
         0         0         0         0         0         0         0         0
         0         0         0         0         0         0         0         0
         0         0         0         0         0         0         0         0
         0         0         0         0         0         0         0         0
         0         0         0         0         0         0         0         0
         0         0         0         0         0         0         0         0
         0         0         0         0         0         0         0         0
         0         0         0         0         0         0         0         0
         0         0         0         0         0         0         0         0
         0         0         0         0         0         0         0         0
         0         0         0         0         0         0         0         0
         0         0         0         0         0         0         0         0
         0         0         0         0         0         0         0         0
         0         0         0         0         0         0         0         0
         0         0         0         0         0         0         0         0
         0         0         0         0         0         0         0         0
         0         0         0         0         0         0         0         0
         0         0         0         0         0         0         0         0
         0         0         0         0         0         0         0         0
         0         0         0         0         0         0         0         0
         0         0         0         0         0         0         0         0
         0         0         0         0         0         0         0         0
         0         0         0         0         0         0         0         0
         0         0         0         0         0         0         0         0
         0         0         0         0         0         0         0         0
         0         0         0         0         0         0         0         0
         0         0         0         0         0         0         0         0
         0         0         0         0         0         0         0         0
         0         0         0         0         0         0         0         0
         0         0         0         0         0         0         0         0
         0         0         0         0         0         0         0         0
         0         0         0         0         0         0         0         0
         0         0         0         0         0         0         0         0
         0         0         0         0         0         0         0         0
         0         0         0         0         0         0         0         0
         0         0         0         0         0         0         0         0
         0         0         0         0         0         0         0         0
         0         0         0         0         0         0         0         0
         0         0         0         0         0         0         0         0
         0         0         0         0         0         0         0         0
         0         0         0         0         0         0         0         0
         0         0         0         0         0         0         0         0
         0         0         0         0         0         0         0         0
         0         0         0         0         0         0         0         0
         0         0         0         0         0         0         0         0
         0         0         0         0         0         0         0         0
         0         0         0         0         0         0         0         0
         0         0         0         0         0         0         0         0
         0         0         0         0         0         0         0         0
         0         0         0         0         0         0         0         0
         0         0         0         0         0         0         0         0
         0         0         0         0         0         0         0         0
         0         0         0         0         0         0         0         0
         0         0         0         0         0         0         0         0
         0         0         0         0         0         0         0         0
         0         0         0         0         0         0         0         0
         0         0         0         0         0         0         0         0
         0         0         0         0         0         0         0         0
         0         0         0         0         0         0         0         0
         0         0         0         0         0         0         0         0
         0         0         0         0         0         0         0         0
         0         0         0         0         0         0         0         0
         0         0         0         0         0         0         0         0
         0         0         0         0         0         0         0         0
         0         0         0         0         0         0         0         0
         0         0         0         0         0         0         0         0
         0         0         0         0         0         0         0         0
         0         0         0         0         0         0         0         0
         0         0         0         0         0         0         0         0
         0         0         0         0         0         0         0         0
         0         0         0         0         0         0         0         0
         0         0         0         0         0         0         0         0
         0         0         0         0         0         0         0         0
         0         0         0         0         0         0         0         0
         0         0         0         0         0         0         0         0
         0         0         0         0         0         0         0         0
         0         0         0         0         0         0         0         0
         0         0         0         0         0         0         0         0
         0         0         0         0         0         0         0         0
         0         0         0         0         0         0         0         0
         0         0         0         0         0         0         0         0
         0         0         0         0         0         0         0         0
         0         0         0         0         0         0         0         0
         0         0         0         0         0         0         0         0
         0         0         0         0         0         0         0         0
         0         0         0         0         0         0         0         0
         0         0         0         0         0         0         0         0
         0         0         0         0         0         0         0         0
         0         0         0         0         0         0         0         0
         0         0         0         0         0         0         0         0
         0         0         0         0         0         0         0         0
         0         0         0         0         0         0         0         0
         0         0         0         0         0         0         0         0
         0         0         0         0         0         0         0         0
         0         0         0         0         0         0         0         0
         0         0         0         0         0         0         0         0
         0         0         0         0         0         0         0         0
         0         0         0         0         0         0         0         0
         0         0         0         0         0         0         0         0
         0         0         0         0         0         0         0         0
         0         0         0         0         0         0         0         0
         0         0         0         0         0         0         0         0
         0         0         0         0         0         0         0         0
         0         0         0         0         0         0         0         0
         0         0         0         0         0         0         0         0
         0         0         0         0         0         0         0         0
         0         0         0         0         0         0         0         0
         0         0         0         0         0         0         0         0
         0         0         0         0         0         0         0         0
         0         0         0         0         0         0         0         0
         0         0         0         0         0         0         0         0
         0         0         0         0         0         0         0         0
         0         0         0         0         0         0         0         0
         0         0         0         0         0         0         0         0
         0         0         0         0         0         0         0         0
         0         0         0         0         0         0         0         0
         0         0         0         0         0         0         0         0
         0         0         0         0         0         0         0         0
         0         0         0         0         0         0         0         0
         0         0         0         0         0         0         0         0
         0         0         0         0         0         0         0         0
         0         0         0         0         0         0         0         0
         0         0         0         0         0         0         0         0
         0         0         0         0         0         0         0         0
         0         0         0         0         0         0         0         0
         0         0         0         0         0         0         0         0
         0         0         0         0         0         0         0         0
         0         0         0         0         0         0         0         0
         0         0         0         0         0         0         0         0
         0         0         0         0         0         0         0         0
         0         0         0         0         0         0         0         0
         0         0         0         0         0         0         0         0
         0         0         0         0         0         0         0         0
         0         0         0         0         0         0         0         0
         0         0         0         0         0         0         0         0
         0         0         0         0         0         0         0         0
         0         0         0         0         0         0         0         0
         0         0         0         0         0         0         0         0
         0         0         0         0         0         0         0         0
         0         0         0         0         0         0         0         0
         0         0         0         0         0         0         0         0
         0         0         0         0         0         0         0         0
         0         0         0         0         0         0         0         0
         0         0         0         0         0         0         0         0
         0         0         0         0         0         0         0         0
         0         0         0         0         0         0         0         0
         0         0         0         0         0         0         0         0
         0         0         0         0         0         0         0         0
         0         0         0         0         0         0         0         0
         0         0         0         0         0         0         0         0
         0         0         0         0         0         0         0         0
         0         0         0         0         0         0         0         0
         0         0         0         0         0         0         0         0
         0         0         0         0         0         0         0         0
         0         0         0         0         0         0         0         0
         0         0         0         0         0         0         0         0
         0         0         0         0         0         0         0         0
         0         0         0         0         0         0         0         0
         0         0         0         0         0         0         0         0
         0         0         0         0         0         0         0         0
         0         0         0         0         0         0         0         0
         0         0         0         0         0         0         0         0
         0         0         0         0         0         0         0         0
         0         0         0         0         0         0         0         0
         0         0         0         0         0         0         0         0
         0         0         0         0         0         0         0         0
         0         0         0         0         0         0         0         0
         0         0         0         0         0         0         0         0
         0         0         0         0         0         0         0         0
         0         0         0         0         0         0         0         0
         0         0         0         0         0         0         0         0
         0         0         0         0         0         0         0         0
         0         0         0         0         0         0         0         0
         0         0         0         0         0         0         0         0
         0         0         0         0         0         0         0         0
         0         0         0         0         0         0         0         0
         0         0         0         0         0         0         0         0
         0         0         0         0         0         0         0         0
         0         0         0         0         0         0         0         0
         0         0         0         0         0         0         0         0
         0         0         0         0         0         0         0         0
         0         0         0         0         0         0         0         0
         0         0         0         0         0         0         0         0
         0         0         0         0         0         0         0         0
         0         0         0         0         0         0         0         0
         0         0         0         0         0         0         0         0
         0         0         0         0         0         0         0         0
         0         0         0         0         0         0         0         0
         0         0         0         0         0         0         0         0
         0         0         0         0         0         0         0         0
         0         0         0         0         0         0         0         0
         0         0         0         0         0         0         0         0
         0         0         0         0         0         0         0         0
         0         0         0         0         0         0         0         0
         0         0         0         0         0         0         0         0
         0         0         0         0         0         0         0         0
         0         0         0         0         0         0         0         0
         0         0         0         0         0         0         0         0
         0         0         0         0         0         0         0         0
         0         0         0         0         0         0         0         0
         0         0         0         0         0         0         0         0
         0         0         0         0         0         0         0         0
         0         0         0         0         0         0         0         0
         0         0         0         0         0         0         0         0
         0         0         0         0         0         0         0         0
         0         0         0         0         0         0         0         0
         0         0         0         0         0         0         0         0
         0         0         0         0         0         0         0         0
         0         0         0         0         0         0         0         0
         0         0         0         0         0         0         0         0
         0         0         0         0         0         0         0         0
         0         0         0         0         0         0         0         0
         0         0         0         0         0         0         0         0
         0         0         0         0         0         0         0         0
         0         0         0         0         0         0         0         0
         0         0         0         0         0         0         0         0
         0         0         0         0         0         0         0         0
         0         0         0         0         0         0         0         0
         0         0         0         0         0         0         0         0
         0         0         0         0         0         0         0         0
         0         0         0         0         0         0         0         0
         0         0         0         0         0         0         0         0
         0         0         0         0         0         0         0         0
         0         0         0         0         0         0         0         0
         0         0         0         0         0         0         0         0
         0         0         0         0         0         0         0         0
         0         0         0         0         0         0         0         0
         0         0         0         0         0         0         0         0
         0         0         0         0         0         0         0         0
         0         0         0         0         0         0         0         0
         0         0         0         0         0         0         0         0
         0         0         0         0         0         0         0         0
         0         0         0         0         0         0         0         0
         0         0         0         0         0         0         0         0
         0         0         0         0         0         0         0         0
         0         0         0         0         0         0         0         0
         0         0         0         0         0         0         0         0
         0         0         0         0         0         0         0         0
         0         0         0         0         0         0         0         0
         0         0         0         0         0         0         0         0
         0         0         0         0         0         0         0         0
         0         0         0         0         0         0         0         0
         0         0         0         0         0         0         0         0
         0         0         0         0         0         0         0         0
         0         0         0         0         0         0         0         0
         0         0         0         0         0         0         0         0
         0         0         0         0         0         0         0         0
         0         0         0         0         0         0         0         0
         0         0         0         0         0         0         0         0
         0         0         0         0         0         0         0         0
         0         0         0         0         0         0         0         0
         0         0         0         0         0         0         0         0
         0         0         0         0         0         0         0         0
         0         0         0         0         0         0         0         0
         0         0         0         0         0         0         0         0
         0         0         0         0         0         0         0         0
         0         0         0         0         0         0         0         0
         0         0         0         0         0         0         0         0
         0         0         0         0         0         0         0         0
         0         0         0         0         0         0         0         0
         0         0         0         0         0         0         0         0
         0         0         0         0         0         0         0         0
         0         0         0         0         0         0         0         0
         0         0         0         0         0         0         0         0
         0         0         0         0         0         0         0         0
         0         0         0         0         0         0         0         0
         0         0         0         0         0         0         0         0
         0         0         0         0         0         0         0         0
         0         0         0         0         0         0         0         0
         0         0         0         0         0         0         0         0
         0         0         0         0         0         0         0         0
         0         0         0         0         0         0         0         0
         0         0         0         0         0         0         0         0
         0         0         0         0         0         0         0         0
         0         0         0         0         0         0         0         0
         0         0         0         0         0         0         0         0
         0         0         0         0         0         0         0         0
         0         0         0         0         0         0         0         0
         0         0         0         0         0         0         0         0
         0         0         0         0         0         0         0         0
         0         0         0         0         0         0         0         0
         0         0         0         0         0         0         0         0
         0         0         0         0         0         0         0         0
         0         0         0         0         0         0         0         0
         0         0         0         0         0         0         0         0
         0         0         0         0         0         0         0         0
         0         0         0         0         0         0         0         0
         0         0         0         0         0         0         0         0
         0         0         0         0         0         0         0         0
         0         0         0         0         0         0         0         0
         0         0         0         0         0         0         0         0
         0         0         0         0         0         0         0         0
         0         0         0         0         0         0         0         0
         0         0         0         0         0         0         0         0
         0         0         0         0         0         0         0         0
         0         0         0         0         0         0         0         0
         0         0         0         0         0         0         0         0
         0         0         0         0         0         0         0         0
         0         0         0         0         0         0         0         0
         0         0         0         0         0         0         0         0
         0         0         0         0         0         0         0         0
         0         0         0         0         0         0         0         0
         0         0         0         0         0         0         0         0
         0         0         0         0         0         0         0         0
         0         0         0         0         0         0         0         0
         0         0         0         0         0         0         0         0
         0         0         0         0         0         0         0         0
         0         0         0         0         0         0         0         0
         0         0         0         0         0         0         0         0
         0         0         0         0         0         0         0         0
         0         0         0         0         0         0         0         0
         0         0         0         0         0         0         0         0
         0         0         0         0         0         0         0         0
         0         0         0         0         0         0         0         0
         0         0         0         0         0         0         0         0
         0         0         0         0         0         0         0         0
         0         0         0         0         0         0         0         0
         0         0         0         0         0         0         0         0
         0         0         0         0         0         0         0         0
         0         0         0         0         0         0         0         0
         0         0         0         0         0         0         0         0
         0         0         0         0         0         0         0         0
         0         0         0         0         0         0         0         0
         0         0         0         0         0         0         0         0
         0         0         0         0         0         0         0         0
         0         0         0         0         0         0         0         0
         0         0         0         0         0         0         0         0
         0         0         0         0         0         0         0         0
         0         0         0         0         0         0         0         0
         0         0         0         0         0         0         0         0
         0         0         0         0         0         0         0         0
         0         0         0         0         0         0         0         0
         0         0         0         0         0         0         0         0
         0         0         0         0         0         0         0         0
         0         0         0         0         0         0         0         0
         0         0         0         0         0         0         0         0
         0         0         0         0         0         0         0         0
         0         0         0         0         0         0         0         0
         0         0         0         0         0         0         0         0
         0         0         0         0         0         0         0         0
         0         0         0         0         0         0         0         0
         0         0         0         0         0         0         0         0
         0         0         0         0         0         0         0         0
         0         0         0         0         0         0         0         0
         0         0         0         0         0         0         0         0
         0         0         0         0         0         0         0         0
         0         0         0         0         0         0         0         0
         0         0         0         0         0         0         0         0
         0         0         0         0         0         0         0         0
         0         0         0         0         0         0         0         0
         0         0         0         0         0         0         0         0
         0         0         0         0         0         0         0         0
         0         0         0         0         0         0         0         0
         0         0         0         0         0         0         0         0
         0         0         0         0         0         0         0         0
         0         0         0         0         0         0         0         0
         0         0         0         0         0         0         0         0
         0         0         0         0         0         0         0         0
         0         0         0         0         0         0         0         0
         0         0         0         0         0         0         0         0
         0         0         0         0         0         0         0         0
         0         0         0         0         0         0         0         0
         0         0         0         0         0         0         0         0
         0         0         0         0         0         0         0         0
         0         0         0         0         0         0         0         0
         0         0         0         0         0         0         0         0
         0         0         0         0         0         0         0         0
         0         0         0         0         0         0         0         0
         0         0         0         0         0         0         0         0
         0         0         0         0         0         0         0         0
         0         0         0         0         0         0         0         0
         0         0         0         0         0         0         0         0
         0         0         0         0         0         0         0         0
         0         0         0         0         0         0         0         0
         0         0         0         0         0         0         0         0
         0         0         0         0         0         0         0         0
         0         0         0         0         0         0         0         0
         0         0         0         0         0         0         0         0
         0         0         0         0         0         0         0         0
         0         0         0         0         0         0         0         0
         0         0         0         0         0         0         0         0
         0         0         0         0         0         0         0         0
         0         0         0         0         0         0         0         0
         0         0         0         0         0         0         0         0
         0         0         0         0         0         0         0         0
         0         0         0         0         0         0         0         0
         0         0         0         0         0         0         0         0
         0         0         0         0         0         0         0         0
         0         0         0         0         0         0         0         0
         0         0         0         0         0         0         0         0
         0         0         0         0         0         0         0         0
         0         0         0         0         0         0         0         0
         0         0         0         0         0         0         0         0
         0         0         0         0         0         0         0         0
         0         0         0         0         0         0         0         0
         0         0         0         0         0         0         0         0
         0         0         0         0         0         0         0         0
         0         0         0         0         0         0         0         0
         0         0         0         0         0         0         0         0
         0         0         0         0         0         0         0         0
         0         0         0         0         0         0         0         0
         0         0         0         0         0         0         0         0
         0         0         0         0         0         0         0         0
         0         0         0         0         0         0         0         0
         0         0         0         0         0         0         0         0
         0         0         0         0         0         0         0         0
         0         0         0         0         0         0         0         0
         0         0         0         0         0         0         0         0
         0         0         0         0         0         0         0         0
         0         0         0         0         0         0         0         0
         0         0         0         0         0         0         0         0
         0         0         0         0         0         0         0         0
         0         0         0         0         0         0         0         0
         0         0         0         0         0         0         0         0
         0         0         0         0         0         0         0         0
         0         0         0         0         0         0         0         0
         0         0         0         0         0         0         0         0
         0         0         0         0         0         0         0         0
         0         0         0         0         0         0         0         0
         0         0         0         0         0         0         0         0
         0         0         0         0         0         0         0         0
         0         0         0         0         0         0         0         0
         0         0         0         0         0         0         0         0
         0         0         0         0         0         0         0         0
         0         0         0         0         0         0         0         0
         0         0         0         0         0         0         0         0
         0         0         0         0         0         0         0         0
         0         0         0         0         0         0         0         0
         0         0         0         0         0         0         0         0
         0         0         0         0         0         0         0         0
         0         0         0         0         0         0         0         0
         0         0         0         0         0         0         0         0
         0         0         0         0         0         0         0         0
         0         0         0         0         0         0         0         0
         0         0         0         0         0         0         0         0
         0         0         0         0         0         0         0         0
         0         0         0         0         0         0         0         0
         0         0         0         0         0         0         0         0
         0         0         0         0         0         0         0         0
         0         0         0         0         0         0         0         0
         0         0         0         0         0         0         0         0
         0         0         0         0         0         0         0         0
         0         0         0         0         0         0         0         0
         0         0         0         0         0         0         0         0
         0         0         0         0         0         0         0         0
         0         0         0         0         0         0         0         0
         0         0         0         0         0         0         0         0
         0         0         0         0         0         0         0         0
         0         0         0         0         0         0         0         0
         0         0         0         0         0         0         0         0
         0         0         0         0         0         0         0         0
         0         0         0         0         0         0         0         0
         0         0         0         0         0         0         0         0
         0         0         0         0         0         0         0         0
         0         0         0         0         0         0         0         0
         0         0         0         0         0         0         0         0
         0         0         0         0         0         0         0         0
         0         0         0         0         0         0         0         0
         0         0         0         0         0         0         0         0
         0         0         0         0         0         0         0         0
         0         0         0         0         0         0         0         0
         0         0         0         0         0         0         0         0
         0         0         0         0         0         0         0         0
         0         0         0         0         0         0         0         0
         0         0         0         0         0         0         0         0
         0         0         0         0         0         0         0         0
         0         0         0         0         0         0         0         0
         0         0         0         0         0         0         0         0
         0         0         0         0         0         0         0         0
         0         0         0         0         0         0         0         0
         0         0         0         0         0         0         0         0
         0         0         0         0         0         0         0         0
         0         0         0         0         0         0         0         0
         0         0         0         0         0         0         0         0
         0         0         0         0         0         0         0         0
         0         0         0         0         0         0         0         0
         0         0         0         0         0         0         0         0
         0         0         0         0         0         0         0         0
         0         0         0         0         0         0         0         0
         0         0         0         0         0         0         0         0
         0         0         0         0         0         0         0         0
         0         0         0         0         0         0         0         0
         0         0         0         0         0         0         0         0
         0         0         0         0         0         0         0         0
         0         0         0         0         0         0         0         0
         0         0         0         0         0         0         0         0
         0         0         0         0         0         0         0         0
         0         0         0         0         0         0         0         0
         0         0         0         0         0         0         0         0
         0         0         0         0         0         0         0         0
         0         0         0         0         0         0         0         0
         0         0         0         0         0         0         0         0
         0         0         0         0         0         0         0         0
         0         0         0         0         0         0         0         0
         0         0         0         0         0         0         0         0
         0         0         0         0         0         0         0         0
         0         0         0         0         0         0         0         0
         0         0         0         0         0         0         0         0
         0         0         0         0         0         0         0         0
         0         0         0         0         0         0         0         0
         0         0         0         0         0         0         0         0
         0         0         0         0         0         0         0         0
         0         0         0         0         0         0         0         0
         0         0         0         0         0         0         0         0
         0         0         0         0         0         0         0         0
         0         0         0         0         0         0         0         0
         0         0         0         0         0         0         0         0
         0         0         0         0         0         0         0         0
         0         0         0         0         0         0         0         0
         0         0         0         0         0         0         0         0
         0         0         0         0         0         0         0         0
         0         0         0         0         0         0         0         0
         0         0         0         0         0         0         0         0
         0         0         0         0         0         0         0         0
         0         0         0         0         0         0         0         0
         0         0         0         0         0         0         0         0
         0         0         0         0         0         0         0         0
         0         0         0         0         0         0         0         0
         0         0         0         0         0         0         0         0
         0         0         0         0         0         0         0         0
         0         0         0         0         0         0         0         0
         0         0         0         0         0         0         0         0
         0         0         0         0         0         0         0         0
         0         0         0         0         0         0         0         0
         0         0         0         0         0         0         0         0
         0         0         0         0         0         0         0         0
         0         0         0         0         0         0         0         0
         0         0         0         0         0         0         0         0
         0         0         0         0         0         0         0         0
         0         0         0         0         0         0         0         0
         0         0         0         0         0         0         0         0
         0         0         0         0         0         0         0         0
         0         0         0         0         0         0         0         0
         0         0         0         0         0         0         0         0
         0         0         0         0         0         0         0         0
         0         0         0         0         0         0         0         0
         0         0         0         0         0         0         0         0
         0         0         0         0         0         0         0         0
         0         0         0         0         0         0         0         0
         0         0         0         0         0         0         0         0
         0         0         0         0         0         0         0         0
         0         0         0         0         0         0         0         0
         0         0         0         0         0         0         0         0
         0         0         0         0         0         0         0         0
         0         0         0         0         0         0         0         0
         0         0         0         0         0         0         0         0
         0         0         0         0         0         0         0         0
         0         0         0         0         0         0         0         0
         0         0         0         0         0         0         0         0
         0         0         0         0         0         0         0         0
         0         0         0         0         0         0         0         0
         0         0         0         0         0         0         0         0
         0         0         0         0         0         0         0         0
         0         0         0         0         0         0         0         0
         0         0         0         0         0         0         0         0
         0         0         0         0         0         0         0         0
         0         0         0         0         0         0         0         0
         0         0         0         0         0         0         0         0
         0         0         0         0         0         0         0         0
         0         0         0         0         0         0         0         0
         0         0         0         0         0         0         0         0
         0         0         0         0         0         0         0         0
         0         0         0         0         0         0         0         0
         0         0         0         0         0         0         0         0
         0         0         0         0         0         0         0         0
         0         0         0         0         0         0         0         0
         0         0         0         0         0         0         0         0
         0         0         0         0         0         0         0         0
         0         0         0         0         0         0         0         0
         0         0         0         0         0         0         0         0
         0         0         0         0         0         0         0         0
         0         0         0         0         0         0         0         0
         0         0         0         0         0         0         0         0
         0         0         0         0         0         0         0         0
         0         0         0         0         0         0         0         0
         0         0         0         0         0         0         0         0
         0         0         0         0         0         0         0         0
         0         0         0         0         0         0         0         0
         0         0         0         0         0         0         0         0
         0         0         0         0         0         0         0         0
         0         0         0         0         0         0         0         0
         0         0         0         0         0         0         0         0
         0         0         0         0         0         0         0         0
         0         0         0         0         0         0         0         0
         0         0         0         0         0         0         0         0
         0         0         0         0         0         0         0         0
         0         0         0         0         0         0         0         0
         0         0         0         0         0         0         0         0
         0         0         0         0         0         0         0         0
         0         0         0         0         0         0         0         0
         0         0         0         0         0         0         0         0
         0         0         0         0         0         0         0         0
         0         0         0         0         0         0         0         0
         0         0         0         0         0         0         0         0
         0         0         0         0         0         0         0         0
         0         0         0         0         0         0         0         0
         0         0         0         0         0         0         0         0
         0         0         0         0         0         0         0         0
         0         0         0         0         0         0         0         0
         0         0         0         0         0         0         0         0
         0         0         0         0         0         0         0         0
         0         0         0         0         0         0         0         0
         0         0         0         0         0         0         0         0
         0         0         0         0         0         0         0         0
         0         0         0         0         0         0         0         0
         0         0         0         0         0         0         0         0
         0         0         0         0         0         0         0         0
         0         0         0         0         0         0         0         0
         0         0         0         0         0         0         0         0
         0         0         0         0         0         0         0         0
         0         0         0         0         0         0         0         0
         0         0         0         0         0         0         0         0
         0         0         0         0         0         0         0         0
         0         0         0         0         0         0         0         0
         0         0         0         0         0         0         0         0
         0         0         0         0         0         0         0         0
         0         0         0         0         0         0         0         0
         0         0         0         0         0         0         0         0
         0         0         0         0         0         0         0         0
         0         0         0         0         0         0         0         0
         0         0         0         0         0         0         0         0
         0         0         0         0         0         0         0         0
         0         0         0         0         0         0         0         0
         0         0         0         0         0         0         0         0
         0         0         0         0         0         0         0         0
         0         0         0         0         0         0         0         0
         0         0         0         0         0         0         0         0
         0         0         0         0         0         0         0         0
         0         0         0         0         0         0         0         0
         0         0         0         0         0         0         0         0
         0         0         0         0         0         0         0         0
         0         0         0         0         0         0         0         0
         0         0         0         0         0         0         0         0
         0         0         0         0         0         0         0         0
         0         0         0         0         0         0         0         0
         0         0         0         0         0         0         0         0
         0         0         0         0         0         0         0         0
         0         0         0         0         0         0         0         0
         0         0         0         0         0         0         0         0
         0         0         0         0         0         0         0         0
         0         0         0         0         0         0         0         0
         0         0         0         0         0         0         0         0
         0         0         0         0         0         0         0         0
         0         0         0         0         0         0         0         0
         0         0         0         0         0         0         0         0
         0         0         0         0         0         0         0         0
         0         0         0         0         0         0         0         0
         0         0         0         0         0         0         0         0
         0         0         0         0         0         0         0         0
         0         0         0         0         0         0         0         0
         0         0         0         0         0         0         0         0
         0         0         0         0         0         0         0         0
         0         0         0         0         0         0         0         0
         0         0         0         0         0         0         0         0
         0         0         0         0         0         0         0         0
         0         0         0         0         0         0         0         0
         0         0         0         0         0         0         0         0
         0         0         0         0         0         0         0         0
         0         0         0         0         0         0         0         0
         0         0         0         0         0         0         0         0
         0         0         0         0         0         0         0         0
         0         0         0         0         0         0         0         0
         0         0         0         0         0         0         0         0
         0         0         0         0         0         0         0         0
         0         0         0         0         0         0         0         0
         0         0         0         0         0         0         0         0
         0         0         0         0         0         0         0         0
         0         0         0         0         0         0         0         0
         0         0         0         0         0         0         0         0
         0         0         0         0         0         0         0         0
         0         0         0         0         0         0         0         0
         0         0         0         0         0         0         0         0
         0         0         0         0         0         0         0         0
         0         0         0         0         0         0         0         0
         0         0         0         0         0         0         0         0
         0         0         0         0         0         0         0         0
         0         0         0         0         0         0         0         0
         0         0         0         0         0         0         0         0
         0         0         0         0         0         0         0         0
         0         0         0         0         0         0         0         0
         0         0         0         0         0         0         0         0
         0         0         0         0         0         0         0         0
         0         0         0         0         0         0         0         0
         0         0         0         0         0         0         0         0
         0         0         0         0         0         0         0         0
         0         0         0         0         0         0         0         0
         0         0         0         0         0         0         0         0
         0         0         0         0         0         0         0         0
         0         0         0         0         0         0         0         0
         0         0         0         0         0         0         0         0
         0         0         0         0         0         0         0         0
         0         0         0         0         0         0         0         0
         0         0         0         0         0         0         0         0
         0         0         0         0         0         0         0         0
         0         0         0         0         0         0         0         0
         0         0         0         0         0         0         0         0
         0         0         0         0         0         0         0         0
         0         0         0         0         0         0         0         0
         0         0         0         0         0         0         0         0
         0         0         0         0         0         0         0         0
         0         0         0         0         0         0         0         0
         0         0         0         0         0         0         0         0
         0         0         0         0         0         0         0         0
         0         0         0         0         0         0         0         0
         0         0         0         0         0         0         0         0
         0         0         0         0         0         0         0         0
         0         0         0         0         0         0         0         0
         0         0         0         0         0         0         0         0
         0         0         0         0         0         0         0         0
         0         0         0         0         0         0         0         0
         0         0         0         0         0         0         0         0
         0         0         0         0         0         0         0         0
         0         0         0         0         0         0         0         0
         0         0         0         0         0         0         0         0
         0         0         0         0         0         0         0         0
         0         0         0         0         0         0         0         0
         0         0         0         0         0         0         0         0
         0         0         0         0         0         0         0         0
         0         0         0         0         0         0         0         0
         0         0         0         0         0         0         0         0
         0         0         0         0         0         0         0         0
         0         0         0         0         0         0         0         0
         0         0         0         0         0         0         0         0
         0         0         0         0         0         0         0         0
         0         0         0         0         0         0         0         0
         0         0         0         0         0         0         0         0
         0         0         0         0         0         0         0         0
         0         0         0         0         0         0         0         0
         0         0         0         0         0         0         0         0
         0         0         0         0         0         0         0         0
         0         0         0         0         0         0         0         0
         0         0         0         0         0         0         0         0
         0         0         0         0         0         0         0         0
         0         0         0         0         0         0         0         0
         0         0         0         0         0         0         0         0
         0         0         0         0         0         0         0         0
         0         0         0         0         0         0         0         0
         0         0         0         0         0         0         0         0
         0         0         0         0         0         0         0         0
         0         0         0         0         0         0         0         0
         0         0         0         0         0         0         0         0
         0         0         0         0         0         0         0         0
         0         0         0         0         0         0         0         0
         0         0         0         0         0         0         0         0
         0         0         0         0         0         0         0         0
         0         0         0         0         0         0         0         0
         0         0         0         0         0         0         0         0
         0         0         0         0         0         0         0         0
         0         0         0         0         0         0         0         0
         0         0         0         0         0         0         0         0
         0         0         0         0         0         0         0         0
         0         0         0         0         0         0         0         0
         0         0         0         0         0         0         0         0
         0         0         0         0         0         0         0         0
         0         0         0         0         0         0         0         0
         0         0         0         0         0         0         0         0
         0         0         0         0         0         0         0         0
         0         0         0         0         0         0         0         0
         0         0         0         0         0         0         0         0
         0         0         0         0         0         0         0         0
         0         0         0         0         0         0         0         0
         0         0         0         0         0         0         0         0
         0         0         0         0         0         0         0         0
         0         0         0         0         0         0         0         0
         0         0         0         0         0         0         0         0
         0         0         0         0         0         0         0         0
         0         0         0         0         0         0         0         0
         0         0         0         0         0         0         0         0
         0         0         0         0         0         0         0         0
         0         0         0         0         0         0         0         0
         0         0         0         0         0         0         0         0
         0         0         0         0         0         0         0         0
         0         0         0         0         0         0         0         0
         0         0         0         0         0         0         0         0
         0         0         0         0         0         0         0         0
         0         0         0         0         0         0         0         0
         0         0         0         0         0         0         0         0
         0         0         0         0         0         0         0         0
         0         0         0         0         0         0         0         0
         0         0         0         0         0         0         0         0
         0         0         0         0         0         0         0         0
         0         0         0         0         0         0         0         0
         0         0         0         0         0         0         0         0
         0         0         0         0         0         0         0         0
         0         0         0         0         0         0         0         0
         0         0         0         0         0         0         0         0
         0         0         0         0         0         0         0         0
         0         0         0         0         0         0         0         0
         0         0         0         0         0         0         0         0
         0         0         0         0         0         0         0         0
         0         0         0         0         0         0         0         0
         0         0         0         0         0         0         0         0
         0         0         0         0         0         0         0         0
         0         0         0         0         0         0         0         0
         0         0         0         0         0         0         0         0
         0         0         0         0         0         0         0         0
         0         0         0         0         0         0         0         0
         0         0         0         0         0         0         0         0
         0         0         0         0         0         0         0         0
         0         0         0         0         0         0         0         0
         0         0         0         0         0         0         0         0
         0         0         0         0         0         0         0         0
         0         0         0         0         0         0         0         0
         0         0         0         0         0         0         0         0
         0         0         0         0         0         0         0         0
         0         0         0         0         0         0         0         0
         0         0         0         0         0         0         0         0
         0         0         0         0         0         0         0         0
         0         0         0         0         0         0         0         0
         0         0         0         0         0         0         0         0
         0         0         0         0         0         0         0         0
         0         0         0         0         0         0         0         0
         0         0         0         0         0         0         0         0
         0         0         0         0         0         0         0         0
         0         0         0         0         0         0         0         0
         0         0         0         0         0         0         0         0
         0         0         0         0         0         0         0         0
         0         0         0         0         0         0         0         0
         0         0         0         0         0         0         0         0
         0         0         0         0         0         0         0         0
         0         0         0         0         0         0         0         0
         0         0         0         0         0         0         0         0
         0         0         0         0         0         0         0         0
         0         0         0         0         0         0         0         0
         0         0         0         0         0         0         0         0
         0         0         0         0         0         0         0         0
         0         0         0         0         0         0         0         0
         0         0         0         0         0         0         0         0
         0         0         0         0         0         0         0         0
         0         0         0         0         0         0         0         0
         0         0         0         0         0         0         0         0
         0         0         0         0         0         0         0         0
         0         0         0         0         0         0         0         0
         0         0         0         0         0         0         0         0
         0         0         0         0         0         0         0         0
         0         0         0         0         0         0         0         0
         0         0         0         0         0         0         0         0
         0         0         0         0         0         0         0         0
         0         0         0         0         0         0         0         0
         0         0         0         0         0         0         0         0
         0         0         0         0         0         0         0         0
         0         0         0         0         0         0         0         0
         0         0         0         0         0         0         0         0
         0         0         0         0         0         0         0         0
         0         0         0         0         0         0         0         0
         0         0         0         0         0         0         0         0
         0         0         0         0         0         0         0         0
         0         0         0         0         0         0         0         0
         0         0         0         0         0         0         0         0
         0         0         0         0         0         0         0         0
         0         0         0         0         0         0         0         0
         0         0         0         0         0         0         0         0
         0         0         0         0         0         0         0         0
         0         0         0         0         0         0         0         0
         0         0         0         0         0         0         0         0
         0         0         0         0         0         0         0         0
         0         0         0         0         0         0         0         0
         0         0         0         0         0         0         0         0
         0         0         0         0         0         0         0         0
         0         0         0         0         0         0         0         0
         0         0         0         0         0         0         0         0
         0         0         0         0         0         0         0         0
         0         0         0         0         0         0         0         0
         0         0         0         0         0         0         0         0
         0         0         0         0         0         0         0         0
         0         0         0         0         0         0         0         0
         0         0         0         0         0         0         0         0
         0         0         0         0         0         0         0         0
         0         0         0         0         0         0         0         0
         0         0         0         0         0         0         0         0
         0         0         0         0         0         0         0         0
         0         0         0         0         0         0         0         0
         0         0         0         0         0         0         0         0
         0         0         0         0         0         0         0         0
         0         0         0         0         0         0         0         0
         0         0         0         0         0         0         0         0
         0         0         0         0         0         0         0         0
         0         0         0         0         0         0         0         0
         0         0         0         0         0         0         0         0
         0         0         0         0         0         0         0         0
         0         0         0         0         0         0         0         0
         0         0         0         0         0         0         0         0
         0         0         0         0         0         0         0         0
         0         0         0         0         0         0         0         0
         0         0         0         0         0         0         0         0
         0         0         0         0         0         0         0         0
         0         0         0         0         0         0         0         0
         0         0         0         0         0         0         0         0
         0         0         0         0         0         0         0         0
         0         0         0         0         0         0         0         0
         0         0         0         0         0         0         0         0
         0         0         0         0         0         0         0         0
         0         0         0         0         0         0         0         0
         0         0         0         0         0         0         0         0
         0         0         0         0         0         0         0         0
         0         0         0         0         0         0         0         0
         0         0         0         0         0         0         0         0
         0         0         0         0         0         0         0         0
         0         0         0         0         0         0         0         0
         0         0         0         0         0         0         0         0
         0         0         0         0         0         0         0         0
         0         0         0         0         0         0         0         0
         0         0         0         0         0         0         0         0
         0         0         0         0         0         0         0         0
         0         0         0         0         0         0         0         0
         0         0         0         0         0         0         0         0
         0         0         0         0         0         0         0         0
         0         0         0         0         0         0         0         0
         0         0         0         0         0         0         0         0
         0         0         0         0         0         0         0         0
         0         0         0         0         0         0         0         0
         0         0         0         0         0         0         0         0
         0         0         0         0         0         0         0         0
         0         0         0         0         0         0         0         0
         0         0         0         0         0         0         0         0
         0         0         0         0         0         0         0         0
         0         0         0         0         0         0         0         0
         0         0         0         0         0         0         0         0
         0         0         0         0         0         0         0         0
         0         0         0         0         0         0         0         0
         0         0         0         0         0         0         0         0
         0         0         0         0         0         0         0         0
         0         0         0         0         0         0         0         0
         0         0         0         0         0         0         0         0
         0         0         0         0         0         0         0         0
         0         0         0         0         0         0         0         0
         0         0         0         0         0         0         0         0
         0         0         0         0         0         0         0         0
         0         0         0         0         0         0         0         0
         0         0         0         0         0         0         0         0
         0         0         0         0         0         0         0         0
         0         0         0         0         0         0         0         0
         0         0         0         0         0         0         0         0
         0         0         0         0         0         0         0         0
         0         0         0         0         0         0         0         0
         0         0         0         0         0         0         0         0
         0         0         0         0         0         0         0         0
         0         0         0         0         0         0         0         0
         0         0         0         0         0         0         0         0
         0         0         0         0         0         0         0         0
         0         0         0         0         0         0         0         0
         0         0         0         0         0         0         0         0
         0         0         0         0         0         0         0         0
         0         0         0         0         0         0         0         0
         0         0         0         0         0         0         0         0
         0         0         0         0         0         0         0         0
         0         0         0         0         0         0         0         0
         0         0         0         0         0         0         0         0
         0         0         0         0         0         0         0         0
         0         0         0         0         0         0         0         0
         0         0         0         0         0         0         0         0
         0         0         0         0         0         0         0         0
         0         0         0         0         0         0         0         0
         0         0         0         0         0         0         0         0
         0         0         0         0         0         0         0         0
         0         0         0         0         0         0         0         0
         0         0         0         0         0         0         0         0
         0         0         0         0         0         0         0         0
         0         0         0         0         0         0         0         0
         0         0         0         0         0         0         0         0
         0         0         0         0         0         0         0         0
         0         0         0         0         0         0         0         0
         0         0         0         0         0         0         0         0
         0         0         0         0         0         0         0         0
         0         0         0         0         0         0         0         0
         0         0         0         0         0         0         0         0
         0         0         0         0         0         0         0         0
         0         0         0         0         0         0         0         0
         0         0         0         0         0         0         0         0
         0         0         0         0         0         0         0         0
         0         0         0         0         0         0         0         0
         0         0         0         0         0         0         0         0
         0         0         0         0         0         0         0         0
         0         0         0         0         0         0         0         0
         0         0         0         0         0         0         0         0
         0         0         0         0         0         0         0         0
         0         0         0         0         0         0         0         0
         0         0         0         0         0         0         0         0
         0         0         0         0         0         0         0         0
         0         0         0         0         0         0         0         0
         0         0         0         0         0         0         0         0
         0         0         0         0         0         0         0         0
         0         0         0         0         0         0         0         0
         0         0         0         0         0         0         0         0
         0         0         0         0         0         0         0         0
         0         0         0         0         0         0         0         0
         0         0         0         0         0         0         0         0
         0         0         0         0         0         0         0         0
         0         0         0         0         0         0         0         0
         0         0         0         0         0         0         0         0
         0         0         0         0         0         0         0         0
         0         0         0         0         0         0         0         0
         0         0         0         0         0         0         0         0
         0         0         0         0         0         0         0         0
         0         0         0         0         0         0         0         0
         0         0         0         0         0         0         0         0
         0         0         0         0         0         0         0         0
         0         0         0         0         0         0         0         0
         0         0         0         0         0         0         0         0
         0         0         0         0         0         0         0         0
         0         0         0         0         0         0         0         0
         0         0         0         0         0         0         0         0
         0         0         0         0         0         0         0         0
         0         0         0         0         0         0         0         0
         0         0         0         0         0         0         0         0
         0         0         0         0         0         0         0         0
         0         0         0         0         0         0         0         0
         0         0         0         0         0         0         0         0
         0         0         0         0         0         0         0         0
         0         0         0         0         0         0         0         0
         0         0         0         0         0         0         0         0
         0         0         0         0         0         0         0         0
         0         0         0         0         0         0         0         0
         0         0         0         0         0         0         0         0
         0         0         0         0         0         0         0         0
         0         0         0         0         0         0         0         0
         0         0         0         0         0         0         0         0
         0         0         0         0         0         0         0         0
         0         0         0         0         0         0         0         0
         0         0         0         0         0         0         0         0
         0         0         0         0         0         0         0         0
         0         0         0         0         0         0         0         0
         0         0         0         0         0         0         0         0
         0         0         0         0         0         0         0         0
         0         0         0         0         0         0         0         0
         0         0         0         0         0         0         0         0
         0         0         0         0         0         0         0         0
         0         0         0         0         0         0         0         0
         0         0         0         0         0         0         0         0
         0         0         0         0         0         0         0         0
         0         0         0         0         0         0         0         0
         0         0         0         0         0         0         0         0
         0         0         0         0         0         0         0         0
         0         0         0         0         0         0         0         0
         0         0         0         0         0         0         0         0
         0         0         0         0         0         0         0         0
         0         0         0         0         0         0         0         0
         0         0         0         0         0         0         0         0
         0         0         0         0         0         0         0         0
         0         0         0         0         0         0         0         0
         0         0         0         0         0         0         0         0
         0         0         0         0         0         0         0         0
         0         0         0         0         0         0         0         0
         0         0         0         0         0         0         0         0
         0         0         0         0         0         0         0         0
         0         0         0         0         0         0         0         0
         0         0         0         0         0         0         0         0
         0         0         0         0         0         0         0         0
         0         0         0         0         0         0         0         0
         0         0         0         0         0         0         0         0
         0         0         0         0         0         0         0         0
         0         0         0         0         0         0         0         0
         0         0         0         0         0         0         0         0
         0         0         0         0         0         0         0         0
         0         0         0         0         0         0         0         0
         0         0         0         0         0         0         0         0
         0         0         0         0         0         0         0         0
         0         0         0         0         0         0         0         0
         0         0         0         0         0         0         0         0
         0         0         0         0         0         0         0         0
         0         0         0         0         0         0         0         0
         0         0         0         0         0         0         0         0
         0         0         0         0         0         0         0         0
         0         0         0         0         0         0         0         0
         0         0         0         0         0         0         0         0
         0         0         0         0         0         0         0         0
         0         0         0         0         0         0         0         0
         0         0         0         0         0         0         0         0
         0         0         0         0         0         0         0         0
         0         0         0         0         0         0         0         0
         0         0         0         0         0         0         0         0
         0         0         0         0         0         0         0         0
         0         0         0         0         0         0         0         0
         0         0         0         0         0         0         0         0
         0         0         0         0         0         0         0         0
         0         0         0         0         0         0         0         0
         0         0         0         0         0         0         0         0
         0         0         0         0         0         0         0         0
         0         0         0         0         0         0         0         0
         0         0         0         0         0         0         0         0
         0         0         0         0         0         0         0         0
         0         0         0         0         0         0         0         0
         0         0         0         0         0         0         0         0
         0         0         0         0         0         0         0         0
         0         0         0         0         0         0         0         0
         0         0         0         0         0         0         0         0
         0         0         0         0         0         0         0         0
         0         0         0         0         0         0         0         0
         0         0         0         0         0         0         0         0
         0         0         0         0         0         0         0         0
         0         0         0         0         0         0         0         0
         0         0         0         0         0         0         0         0
         0         0         0         0         0         0         0         0
         0         0         0         0         0         0         0         0
         0         0         0         0         0         0         0         0
         0         0         0         0         0         0         0         0
         0         0         0         0         0         0         0         0
         0         0         0         0         0         0         0         0
         0         0         0         0         0         0         0         0
         0         0         0         0         0         0         0         0
         0         0         0         0         0         0         0         0
         0         0         0         0         0         0         0         0
         0         0         0         0         0         0         0         0
         0         0         0         0         0         0         0         0
         0         0         0         0         0         0         0         0
         0         0         0         0         0         0         0         0
         0         0         0         0         0         0         0         0
         0         0         0         0         0         0         0         0
         0         0         0         0         0         0         0         0
         0         0         0         0         0         0         0         0
         0         0         0         0         0         0         0         0
         0         0         0         0         0         0         0         0
         0         0         0         0         0         0         0         0
         0         0         0         0         0         0         0         0
         0         0         0         0         0         0         0         0
         0         0         0         0         0         0         0         0
         0         0         0         0         0         0         0         0
         0         0         0         0         0         0         0         0
         0         0         0         0         0         0         0         0
         0         0         0         0         0         0         0         0
         0         0         0         0         0         0         0         0
         0         0         0         0         0         0         0         0
         0         0         0         0         0         0         0         0
         0         0         0         0         0         0         0         0
         0         0         0         0         0         0         0         0
         0         0         0         0         0         0         0         0
         0         0         0         0         0         0         0         0
         0         0         0         0         0         0         0         0
         0         0         0         0         0         0         0         0
         0         0         0         0         0         0         0         0
         0         0         0         0         0         0         0         0
         0         0         0         0         0         0         0         0
         0         0         0         0         0         0         0         0
         0         0         0         0         0         0         0         0
         0         0         0         0         0         0         0         0
         0         0         0         0         0         0         0         0
         0         0         0         0         0         0         0         0
         0         0         0         0         0         0         0         0
         0         0         0         0         0         0         0         0
         0         0         0         0         0         0         0         0
         0         0         0         0         0         0         0         0
         0         0         0         0         0         0         0         0
         0         0         0         0         0         0         0         0
         0         0         0         0         0         0         0         0
         0         0         0         0         0         0         0         0
         0         0         0         0         0         0         0         0
         0         0         0         0         0         0         0         0
         0         0         0         0         0         0         0         0
         0         0         0         0         0         0         0         0
         0         0         0         0         0         0         0         0
         0         0         0         0         0         0         0         0
         0         0         0         0         0         0         0         0
         0         0         0         0         0         0         0         0
         0         0         0         0         0         0         0         0
         0         0         0         0         0         0         0         0
         0         0         0         0         0         0         0         0
         0         0         0         0         0         0         0         0
         0         0         0         0         0         0         0         0
         0         0         0         0         0         0         0         0
         0         0         0         0         0         0         0         0
         0         0         0         0         0         0         0         0
         0         0         0         0         0         0         0         0
         0         0         0         0         0         0         0         0
         0         0         0         0         0         0         0         0
         0         0         0         0         0         0         0         0
         0         0         0         0         0         0         0         0
         0         0         0         0         0         0         0         0
         0         0         0         0         0         0         0         0
         0         0         0         0         0         0         0         0
         0         0         0         0         0         0         0         0
         0         0         0         0         0         0         0         0
         0         0         0         0         0         0         0         0
         0         0         0         0         0         0         0         0
         0         0         0         0         0         0         0         0
         0         0         0         0         0         0         0         0
         0         0         0         0         0         0         0         0
         0         0         0         0         0         0         0         0
         0         0         0         0         0         0         0         0
         0         0         0         0         0         0         0         0
         0         0         0         0         0         0         0         0
         0         0         0         0         0         0         0         0
         0         0         0         0         0         0         0         0
         0         0         0         0         0         0         0         0
         0         0         0         0         0         0         0         0
         0         0         0         0         0         0         0         0
         0         0         0         0         0         0         0         0
         0         0         0         0         0         0         0         0
         0         0         0         0         0         0         0         0
         0         0         0         0         0         0         0         0
         0         0         0         0         0         0         0         0
         0         0         0         0         0         0         0         0
         0         0         0         0         0         0         0         0
         0         0         0         0         0         0         0         0
         0         0         0         0         0         0         0         0
         0         0         0         0         0         0         0         0
         0         0         0         0         0         0         0         0
         0         0         0         0         0         0         0         0
         0         0         0         0         0         0         0         0
         0         0         0         0         0         0         0         0
         0         0         0         0         0         0         0         0
         0         0         0         0         0         0         0         0
         0         0         0         0         0         0         0         0
         0         0         0         0         0         0         0         0
         0         0         0         0         0         0         0         0
         0         0         0         0         0         0         0         0
         0         0         0         0         0         0         0         0
         0         0         0         0         0         0         0         0
         0         0         0         0         0         0         0         0
         0         0         0         0         0         0         0         0
         0         0         0         0         0         0         0         0
         0         0         0         0         0         0         0         0
         0         0         0         0         0         0         0         0
         0         0         0         0         0         0         0         0
         0         0         0         0         0         0         0         0
         0         0         0         0         0         0         0         0
         0         0         0         0         0         0         0         0
         0         0         0         0         0         0         0         0
         0         0         0         0         0         0         0         0
         0         0         0         0         0         0         0         0
         0         0         0         0         0         0         0         0
         0         0         0         0         0         0         0         0
         0         0         0         0         0         0         0         0
         0         0         0         0         0         0         0         0
         0         0         0         0         0         0         0         0
         0         0         0         0         0         0         0         0
         0         0         0         0         0         0         0         0
         0         0         0         0         0         0         0         0
         0         0         0         0         0         0         0         0
         0         0         0         0         0         0         0         0
         0         0         0         0         0         0         0         0
         0         0         0         0         0         0         0         0
         0         0         0         0         0         0         0         0
         0         0         0         0         0         0         0         0
         0         0         0         0         0         0         0         0
         0         0         0         0         0         0         0         0
         0         0         0         0         0         0         0         0
         0         0         0         0         0         0         0         0
         0         0         0         0         0         0         0         0
         0         0         0         0         0         0         0         0
         0         0         0         0         0         0         0         0
         0         0         0         0         0         0         0         0
         0         0         0         0         0         0         0         0
         0         0         0         0         0         0         0         0
         0         0         0         0         0         0         0         0
         0         0         0         0         0         0         0         0
         0         0         0         0         0         0         0         0
         0         0         0         0         0         0         0         0
         0         0         0         0         0         0         0         0
         0         0         0         0         0         0         0         0
         0         0         0         0         0         0         0         0
         0         0         0         0         0         0         0         0
         0         0         0         0         0         0         0         0
         0         0         0         0         0         0         0         0
         0         0         0         0         0         0         0         0
         0         0         0         0         0         0         0         0
         0         0         0         0         0         0         0         0
         0         0         0         0         0         0         0         0
         0         0         0         0         0         0         0         0
         0         0         0         0         0         0         0         0
         0         0         0         0         0         0         0         0
         0         0         0         0         0         0         0         0
         0         0         0         0         0         0         0         0
         0         0         0         0         0         0         0         0
         0         0         0         0         0         0         0         0
         0         0         0         0         0         0         0         0
         0         0         0         0         0         0         0         0
         0         0         0         0         0         0         0         0
         0         0         0         0         0         0         0         0
         0         0         0         0         0         0         0         0
         0         0         0         0         0         0         0         0
         0         0         0         0         0         0         0         0
         0         0         0         0         0         0         0         0
         0         0         0         0         0         0         0         0
         0         0         0         0         0         0         0         0
         0         0         0         0         0         0         0         0
         0         0         0         0         0         0         0         0
         0         0         0         0         0         0         0         0
         0         0         0         0         0         0         0         0
         0         0         0         0         0         0         0         0
         0         0         0         0         0         0         0         0
         0         0         0         0         0         0         0         0
         0         0         0         0         0         0         0         0
         0         0         0         0         0         0         0         0
         0         0         0         0         0         0         0         0
         0         0         0         0         0         0         0         0
         0         0         0         0         0         0         0         0
         0         0         0         0         0         0         0         0
         0         0         0         0         0         0         0         0
         0         0         0         0         0         0         0         0
         0         0         0         0         0         0         0         0
         0         0         0         0         0         0         0         0
         0         0         0         0         0         0         0         0
         0         0         0         0         0         0         0         0
         0         0         0         0         0         0         0         0
         0         0         0         0         0         0         0         0
         0         0         0         0         0         0         0         0
         0         0         0         0         0         0         0         0
         0         0         0         0         0         0         0         0
         0         0         0         0         0         0         0         0
         0         0         0         0         0         0         0         0
         0         0         0         0         0         0         0         0
         0         0         0         0         0         0         0         0
         0         0         0         0         0         0         0         0
         0         0         0         0         0         0         0         0
         0         0         0         0         0         0         0         0
         0         0         0         0         0         0         0         0
         0         0         0         0         0         0         0         0
         0         0         0         0         0         0         0         0
         0         0         0         0         0         0         0         0
         0         0         0         0         0         0         0         0
         0         0         0         0         0         0         0         0
         0         0         0         0         0         0         0         0
         0         0         0         0         0         0         0         0
         0         0         0         0         0         0         0         0
         0         0         0         0         0         0         0         0
         0         0         0         0         0         0         0         0
         0         0         0         0         0         0         0         0
         0         0         0         0         0         0         0         0
         0         0         0         0         0         0         0         0
         0         0         0         0         0         0         0         0
         0         0         0         0         0         0         0         0
         0         0         0         0         0         0         0         0
         0         0         0         0         0         0         0         0
         0         0         0         0         0         0         0         0
         0         0         0         0         0         0         0         0
         0         0         0         0         0         0         0         0
         0         0         0         0         0         0         0         0
         0         0         0         0         0         0         0         0
         0         0         0         0         0         0         0         0
         0         0         0         0         0         0         0         0
         0         0         0         0         0         0         0         0
         0         0         0         0         0         0         0         0
         0         0         0         0         0         0         0         0
         0         0         0         0         0         0         0         0
         0         0         0         0         0         0         0         0
         0         0         0         0         0         0         0         0
         0         0         0         0         0         0         0         0
         0         0         0         0         0         0         0         0
         0         0         0         0         0         0         0         0
         0         0         0         0         0         0         0         0
         0         0         0         0         0         0         0         0
         0         0         0         0         0         0         0         0
         0         0         0         0         0         0         0         0
         0         0         0         0         0         0         0         0
         0         0         0         0         0         0         0         0
         0         0         0         0         0         0         0         0
         0         0         0         0         0         0         0         0
         0         0         0         0         0         0         0         0
         0         0         0         0         0         0         0         0
         0         0         0         0         0         0         0         0
         0         0         0         0         0         0         0         0
         0         0         0         0         0         0         0         0
         0         0         0         0         0         0         0         0
         0         0         0         0         0         0         0         0
         0         0         0         0         0         0         0         0
         0         0         0         0         0         0         0         0
         0         0         0         0         0         0         0         0
         0         0         0         0         0         0         0         0
         0         0         0         0         0         0         0         0
         0         0         0         0         0         0         0         0
         0         0         0         0         0         0         0         0
         0         0         0         0         0         0         0         0
         0         0         0         0         0         0         0         0
         0         0         0         0         0         0         0         0
         0         0         0         0         0         0         0         0
         0         0         0         0         0         0         0         0
         0         0         0         0         0         0         0         0
         0         0         0         0         0         0         0         0
         0         0         0         0         0         0         0         0
         0         0         0         0         0         0         0         0
         0         0         0         0         0         0         0         0
         0         0         0         0         0         0         0         0
         0         0         0         0         0         0         0         0
         0         0         0         0         0         0         0         0
         0         0         0         0         0         0         0         0
         0         0         0         0         0         0         0         0
         0         0         0         0         0         0         0         0
         0         0         0         0         0         0         0         0
         0         0         0         0         0         0         0         0
         0         0         0         0         0         0         0         0
         0         0         0         0         0         0         0         0
         0         0         0         0         0         0         0         0
         0         0         0         0         0         0         0         0
         0         0         0         0         0         0         0         0
         0         0         0         0         0         0         0         0
         0         0         0         0         0         0         0         0
         0         0         0         0         0         0         0         0
         0         0         0         0         0         0         0         0
         0         0         0         0         0         0         0         0
         0         0         0         0         0         0         0         0
         0         0         0         0         0         0         0         0
         0         0         0         0         0         0         0         0
         0         0         0         0         0         0         0         0
         0         0         0         0         0         0         0         0
         0         0         0         0         0         0         0         0
         0         0         0         0         0         0         0         0
         0         0         0         0         0         0         0         0
         0         0         0         0         0         0         0         0
         0         0         0         0         0         0         0         0
         0         0         0         0         0         0         0         0
         0         0         0         0         0         0         0         0
         0         0         0         0         0         0         0         0
         0         0         0         0         0         0         0         0
         0         0         0         0         0         0         0         0
         0         0         0         0         0         0         0         0
         0         0         0         0         0         0         0         0
         0         0         0         0         0         0         0         0
         0         0         0         0         0         0         0         0
         0         0         0         0         0         0         0         0
         0         0         0         0         0         0         0         0
         0         0         0         0         0         0         0         0
         0         0         0         0         0         0         0         0
         0         0         0         0         0         0         0         0
         0         0         0         0         0         0         0         0
         0         0         0         0         0         0         0         0
         0         0         0         0         0         0         0         0
         0         0         0         0         0         0         0         0
         0         0         0         0         0         0         0         0
         0         0         0         0         0         0         0         0
         0         0         0         0         0         0         0         0
         0         0         0         0         0         0         0         0
         0         0         0         0         0         0         0         0
         0         0         0         0         0         0         0         0
         0         0         0         0         0         0         0         0
         0         0         0         0         0         0         0         0
         0         0         0         0         0         0         0         0
         0         0         0         0         0         0         0         0
         0         0         0         0         0         0         0         0
         0         0         0         0         0         0         0         0
         0         0         0         0         0         0         0         0
         0         0         0         0         0         0         0         0
         0         0         0         0         0         0         0         0
         0         0         0         0         0         0         0         0
         0         0         0         0         0         0         0         0
         0         0         0         0         0         0         0         0
         0         0         0         0         0         0         0         0
         0         0         0         0         0         0         0         0
         0         0         0         0         0         0         0         0
         0         0         0         0         0         0         0         0
         0         0         0         0         0         0         0         0
         0         0         0         0         0         0         0         0
         0         0         0         0         0         0         0         0
         0         0         0         0         0         0         0         0
         0         0         0         0         0         0         0         0
         0         0         0         0         0         0         0         0
         0         0         0         0         0         0         0         0
         0         0         0         0         0         0         0         0
         0         0         0         0         0         0         0         0
         0         0         0         0         0         0         0         0
         0         0         0         0         0         0         0         0
         0         0         0         0         0         0         0         0
         0         0         0         0         0         0         0         0
         0         0         0         0         0         0         0         0
         0         0         0         0         0         0         0         0
         0         0         0         0         0         0         0         0
         0         0         0         0         0         0         0         0
         0         0         0         0         0         0         0         0
         0         0         0         0         0         0         0         0
         0         0         0         0         0         0         0         0
         0         0         0         0         0         0         0         0
         0         0         0         0         0         0         0         0
         0         0         0         0         0         0         0         0
         0         0         0         0         0         0         0         0
         0         0         0         0         0         0         0         0
         0         0         0         0         0         0         0         0
         0         0         0         0         0         0         0         0
         0         0         0         0         0         0         0         0
         0         0         0         0         0         0         0         0
         0         0         0         0         0         0         0         0
         0         0         0         0         0         0         0         0
         0         0         0         0         0         0         0         0
         0         0         0         0         0         0         0         0
         0         0         0         0         0         0         0         0
         0         0         0         0         0         0         0         0
         0         0         0         0         0         0         0         0
         0         0         0         0         0         0         0         0
         0         0         0         0         0         0         0         0
         0         0         0         0         0         0         0         0
         0         0         0         0         0         0         0         0
         0         0         0         0         0         0         0         0
         0         0         0         0         0         0         0         0
         0         0         0         0         0         0         0         0
         0         0         0         0         0         0         0         0
         0         0         0         0         0         0         0         0
         0         0         0         0         0         0         0         0
         0         0         0         0         0         0         0         0
         0         0         0         0         0         0         0         0
         0         0         0         0         0         0         0         0
         0         0         0         0         0         0         0         0
         0         0         0         0         0         0         0         0
         0         0         0         0         0         0         0         0
         0         0         0         0         0         0         0         0
         0         0         0         0         0         0         0         0
         0         0         0         0         0         0         0         0
         0         0         0         0         0         0         0         0
         0         0         0         0         0         0         0         0
         0         0         0         0         0         0         0         0
         0         0         0         0         0         0         0         0
         0         0         0         0         0         0         0         0
         0         0         0         0         0         0         0         0
         0         0         0         0         0         0         0         0
         0         0         0         0         0         0         0         0
         0         0         0         0         0         0         0         0
         0         0         0         0         0         0         0         0
         0         0         0         0         0         0         0         0
         0         0         0         0         0         0         0         0
         0         0         0         0         0         0         0         0
         0         0         0         0         0         0         0         0
         0         0         0         0         0         0         0         0
         0         0         0         0         0         0         0         0
         0         0         0         0         0         0         0         0
         0         0         0         0         0         0         0         0
         0         0         0         0         0         0         0         0
         0         0         0         0         0         0         0         0
         0         0         0         0         0         0         0         0
         0         0         0         0         0         0         0         0
         0         0         0         0         0         0         0         0
         0         0         0         0         0         0         0         0
         0         0         0         0         0         0         0         0
         0         0         0         0         0         0         0         0
         0         0         0         0         0         0         0         0
         0         0         0         0         0         0         0         0
         0         0         0         0         0         0         0         0
         0         0         0         0         0         0         0         0
         0         0         0         0         0         0         0         0
         0         0         0         0         0         0         0         0
         0         0         0         0         0         0         0         0
         0         0         0         0         0         0         0         0
         0         0         0         0         0         0         0         0
         0         0         0         0         0         0         0         0
         0         0         0         0         0         0         0         0
         0         0         0         0         0         0         0         0
         0         0         0         0         0         0         0         0
         0         0         0         0         0         0         0         0
         0         0         0         0         0         0         0         0
         0         0         0         0         0         0         0         0
         0         0         0         0         0         0         0         0
         0         0         0         0         0         0         0         0
         0         0         0         0         0         0         0         0
         0         0         0         0         0         0         0         0
         0         0         0         0         0         0         0         0
         0         0         0         0         0         0         0         0
         0         0         0         0         0         0         0         0
         0         0         0         0         0         0         0         0
         0         0         0         0         0         0         0         0
         0         0         0         0         0         0         0         0
         0         0         0         0         0         0         0         0
         0         0         0         0         0         0         0         0
         0         0         0         0         0         0         0         0
         0         0         0         0         0         0         0         0
         0         0         0         0         0         0         0         0
         0         0         0         0         0         0         0         0
         0         0         0         0         0         0         0         0
         0         0         0         0         0         0         0         0
         0         0         0         0         0         0         0         0
         0         0         0         0         0         0         0         0
         0         0         0         0         0         0         0         0
         0         0         0         0         0         0         0         0
         0         0         0         0         0         0         0         0
         0         0         0         0         0         0         0         0
         0         0         0         0         0         0         0         0
         0         0         0         0         0         0         0         0
         0         0         0         0         0         0         0         0
         0         0         0         0         0         0         0         0
         0         0         0         0         0         0         0         0
         0         0         0         0         0         0         0         0
         0         0         0         0         0         0         0         0
         0         0         0         0         0         0         0         0
         0         0         0         0         0         0         0         0
         0         0         0         0         0         0         0         0
         0         0         0         0         0         0         0         0
         0         0         0         0         0         0         0         0
         0         0         0         0         0         0         0         0
         0         0         0         0         0         0         0         0
         0         0         0         0         0         0         0         0
         0         0         0         0         0         0         0         0
         0         0         0         0         0         0         0         0
         0         0         0         0         0         0         0         0
         0         0         0         0         0         0         0         0
         0         0         0         0         0         0         0         0
         0         0         0         0         0         0         0         0
         0         0         0         0         0         0         0         0
         0         0         0         0         0         0         0         0
         0         0         0         0         0         0         0         0
         0         0         0         0         0         0         0         0
         0         0         0         0         0         0         0         0
         0         0         0         0         0         0         0         0
         0         0         0         0         0         0         0         0
         0         0         0         0         0         0         0         0
         0         0         0         0         0         0         0         0
         0         0         0         0         0         0         0         0
         0         0         0         0         0         0         0         0
         0         0         0         0         0         0         0         0
         0         0         0         0         0         0         0         0
         0         0         0         0         0         0         0         0
         0         0         0         0         0         0         0         0
         0         0         0         0         0         0         0         0
         0         0         0         0         0         0         0         0
         0         0         0         0         0         0         0         0
         0         0         0         0         0         0         0         0
         0         0         0         0         0         0         0         0
         0         0         0         0         0         0         0         0
         0         0         0         0         0         0         0         0
         0         0         0         0         0         0         0         0
         0         0         0         0         0         0         0         0
         0         0         0         0         0         0         0         0
         0         0         0         0         0         0         0         0
         0         0         0         0         0         0         0         0
         0         0         0         0         0         0         0         0
         0         0         0         0         0         0         0         0
         0         0         0         0         0         0         0         0
         0         0         0         0         0         0         0         0
         0         0         0         0         0         0         0         0
         0         0         0         0         0         0         0         0
         0         0         0         0         0         0         0         0
         0         0         0         0         0         0         0         0
         0         0         0         0         0         0         0         0
         0         0         0         0         0         0         0         0
         0         0         0         0         0         0         0         0
         0         0         0         0         0         0         0         0
         0         0         0         0         0         0         0         0
         0         0         0         0         0         0         0         0
         0         0         0         0         0         0         0         0
         0         0         0         0         0         0         0         0
         0         0         0         0         0         0         0         0
         0         0         0         0         0         0         0         0
         0         0         0         0         0         0         0         0
         0         0         0         0         0         0         0         0
         0         0         0         0         0         0         0         0
         0         0         0         0         0         0         0         0
         0         0         0         0         0         0         0         0
         0         0         0         0         0         0         0         0
         0         0         0         0         0         0         0         0
         0         0         0         0         0         0         0         0
         0         0         0         0         0         0         0         0
         0         0         0         0         0         0         0         0
         0         0         0         0         0         0         0         0
         0         0         0         0         0         0         0         0
         0         0         0         0         0         0         0         0
         0         0         0         0         0         0         0         0
         0         0         0         0         0         0         0         0
         0         0         0         0         0         0         0         0
         0         0         0         0         0         0         0         0
         0         0         0         0         0         0         0         0
         0         0         0         0         0         0         0         0
         0         0         0         0         0         0         0         0
         0         0         0         0         0         0         0         0
         0         0         0         0         0         0         0         0
         0         0         0         0         0         0         0         0
         0         0         0         0         0         0         0         0
         0         0         0         0         0         0         0         0
         0         0         0         0         0         0         0         0
         0         0         0         0         0         0         0         0
         0         0         0         0         0         0         0         0
         0         0         0         0         0         0         0         0
         0         0         0         0         0         0         0         0
         0         0         0         0         0         0         0         0
         0         0         0         0         0         0         0         0
         0         0         0         0         0         0         0         0
         0         0         0         0         0         0         0         0
         0         0         0         0         0         0         0         0
         0         0         0         0         0         0         0         0
         0         0         0         0         0         0         0         0
         0         0         0         0         0         0         0         0
         0         0         0         0         0         0         0         0
         0         0         0         0         0         0         0         0
         0         0         0         0         0         0         0         0
         0         0         0         0         0         0         0         0
         0         0         0         0         0         0         0         0
         0         0         0         0         0         0         0         0
         0         0         0         0         0         0         0         0
         0         0         0         0         0         0         0         0
         0         0         0         0         0         0         0         0
         0         0         0         0         0         0         0         0
         0         0         0         0         0         0         0         0
         0         0         0         0         0         0         0         0
         0         0         0         0         0         0         0         0
         0         0         0         0         0         0         0         0
         0         0         0         0         0         0         0         0
         0         0         0         0         0         0         0         0
         0         0         0         0         0         0         0         0
         0         0         0         0         0         0         0         0
         0         0         0         0         0         0         0         0
         0         0         0         0         0         0         0         0
         0         0         0         0         0         0         0         0
         0         0         0         0         0         0         0         0
         0         0         0         0         0         0         0         0
         0         0         0         0         0         0         0         0
         0         0         0         0         0         0         0         0
         0         0         0         0         0         0         0         0
         0         0         0         0         0         0         0         0
         0         0         0         0         0         0         0         0
         0         0         0         0         0         0         0         0
         0         0         0         0         0         0         0         0
         0         0         0         0         0         0         0         0
         0         0         0         0         0         0         0         0
         0         0         0         0         0         0         0         0
         0         0         0         0         0         0         0         0
         0         0         0         0         0         0         0         0
         0         0         0         0         0         0         0         0
         0         0         0         0         0         0         0         0
         0         0         0         0         0         0         0         0
         0         0         0         0         0         0         0         0
         0         0         0         0         0         0         0         0
         0         0         0         0         0         0         0         0
         0         0         0         0         0         0         0         0
         0         0         0         0         0         0         0         0
         0         0         0         0         0         0         0         0
         0         0         0         0         0         0         0         0
         0         0         0         0         0         0         0         0
         0         0         0         0         0         0         0         0
         0         0         0         0         0         0         0         0
         0         0         0         0         0         0         0         0
         0         0         0         0         0         0         0         0
         0         0         0         0         0         0         0         0
         0         0         0         0         0         0         0         0
         0         0         0         0         0         0         0         0
         0         0         0         0         0         0         0         0
         0         0         0         0         0         0         0         0
         0         0         0         0         0         0         0         0
         0         0         0         0         0         0         0         0
         0         0         0         0         0         0         0         0
         0         0         0         0         0         0         0         0
         0         0         0         0         0         0         0         0
         0         0         0         0         0         0         0         0
         0         0         0         0         0         0         0         0
         0         0         0         0         0         0         0         0
         0         0         0         0         0         0         0         0
         0         0         0         0         0         0         0         0
         0         0         0         0         0         0         0         0
         0         0         0         0         0         0         0         0
         0         0         0         0         0         0         0         0
         0         0         0         0         0         0         0         0
         0         0         0         0         0         0         0         0
         0         0         0         0         0         0         0         0
         0         0         0         0         0         0         0         0
         0         0         0         0         0         0         0         0
         0         0         0         0         0         0         0         0
         0         0         0         0         0         0         0         0
         0         0         0         0         0         0         0         0
         0         0         0         0         0         0         0         0
         0         0         0         0         0         0         0         0
         0         0         0         0         0         0         0         0
         0         0         0         0         0         0         0         0
         0         0         0         0         0         0         0         0
         0         0         0         0         0         0         0         0
         0         0         0         0         0         0         0         0
         0         0         0         0         0         0         0         0
         0         0         0         0         0         0         0         0
         0         0         0         0         0         0         0         0
         0         0         0         0         0         0         0         0
         0         0         0         0         0         0         0         0
         0         0         0         0         0         0         0         0
         0         0         0         0         0         0         0         0
         0         0         0         0         0         0         0         0
         0         0         0         0         0         0         0         0
         0         0         0         0         0         0         0         0
         0         0         0         0         0         0         0         0
         0         0         0         0         0         0         0         0
         0         0         0         0         0         0         0         0
         0         0         0         0         0         0         0         0
         0         0         0         0         0         0         0         0
         0         0         0         0         0         0         0         0
         0         0         0         0         0         0         0         0
         0         0         0         0         0         0         0         0
         0         0         0         0         0         0         0         0
         0         0         0         0         0         0         0         0
         0         0         0         0         0         0         0         0
         0         0         0         0         0         0         0         0
         0         0         0         0         0         0         0         0
         0         0         0         0         0         0         0         0
         0         0         0         0         0         0         0         0
         0         0         0         0         0         0         0         0
         0         0         0         0         0         0         0         0
         0         0         0         0         0         0         0         0
         0         0         0         0         0         0         0         0
         0         0         0         0         0         0         0         0
         0         0         0         0         0         0         0         0
         0         0         0         0         0         0         0         0
         0         0         0         0         0         0         0         0
         0         0         0         0         0         0         0         0
         0         0         0         0         0         0         0         0
         0         0         0         0         0         0         0         0
         0         0         0         0         0         0         0         0
         0         0         0         0         0         0         0         0
         0         0         0         0         0         0         0         0
         0         0         0         0         0         0         0         0
         0         0         0         0         0         0         0         0
         0         0         0         0         0         0         0         0
         0         0         0         0         0         0         0         0
         0         0         0         0         0         0         0         0
         0         0         0         0         0         0         0         0
         0         0         0         0         0         0         0         0
         0         0         0         0         0         0         0         0
         0         0         0         0         0         0         0         0
         0         0         0         0         0         0         0         0
         0         0         0         0         0         0         0         0
         0         0         0         0         0         0         0         0
         0         0         0         0         0         0         0         0
         0         0         0         0         0         0         0         0
         0         0         0         0         0         0         0         0
         0         0         0         0         0         0         0         0
         0         0         0         0         0         0         0         0
         0         0         0         0         0         0         0         0
         0         0         0         0         0         0         0         0
         0         0         0         0         0         0         0         0
         0         0         0         0         0         0         0         0
         0         0         0         0         0         0         0         0
         0         0         0         0         0         0         0         0
         0         0         0         0         0         0         0         0
         0         0         0         0         0         0         0         0
         0         0         0         0         0         0         0         0
         0         0         0         0         0         0         0         0
         0         0         0         0         0         0         0         0
         0         0         0         0         0         0         0         0
         0         0         0         0         0         0         0         0
         0         0         0         0         0         0         0         0
         0         0         0         0         0         0         0         0
         0         0         0         0         0         0         0         0
         0         0         0         0         0         0         0         0
         0         0         0         0         0         0         0         0
         0         0         0         0         0         0         0         0
         0         0         0         0         0         0         0         0
         0         0         0         0         0         0         0         0
         0         0         0         0         0         0         0         0
         0         0         0         0         0         0         0         0
         0         0         0         0         0         0         0         0
         0         0         0         0         0         0         0         0
         0         0         0         0         0         0         0         0
         0         0         0         0         0         0         0         0
         0         0         0         0         0         0         0         0
         0         0         0         0         0         0         0         0
         0         0         0         0         0         0         0         0
         0         0         0         0         0         0         0         0
         0         0         0         0         0         0         0         0
         0         0         0         0         0         0         0         0
         0         0         0         0         0         0         0         0
         0         0         0         0         0         0         0         0
         0         0         0         0         0         0         0         0
         0         0         0         0         0         0         0         0
         0         0         0         0         0         0         0         0
         0         0         0         0         0         0         0         0
         0         0         0         0         0         0         0         0
         0         0         0         0         0         0         0         0
         0         0         0         0         0         0         0         0
         0         0         0         0         0         0         0         0
         0         0         0         0         0         0         0         0
         0         0         0         0         0         0         0         0
         0         0         0         0         0         0         0         0
         0         0         0         0         0         0         0         0
         0         0         0         0         0         0         0         0
         0         0         0         0         0         0         0         0
         0         0         0         0         0         0         0         0
         0         0         0         0         0         0         0         0
         0         0         0         0         0         0         0         0
         0         0         0         0         0         0         0         0
         0         0         0         0         0         0         0         0
         0         0         0         0         0         0         0         0
         0         0         0         0         0         0         0         0
         0         0         0         0         0         0         0         0
         0         0         0         0         0         0         0         0
         0         0         0         0         0         0         0         0
         0         0         0         0         0         0         0         0
         0         0         0         0         0         0         0         0
         0         0         0         0         0         0         0         0
         0         0         0         0         0         0         0         0
         0         0         0         0         0         0         0         0
         0         0         0         0         0         0         0         0
         0         0         0         0         0         0         0         0
         0         0         0         0         0         0         0         0
         0         0         0         0         0         0         0         0
         0         0         0         0         0         0         0         0
         0         0         0         0         0         0         0         0
         0         0         0         0         0         0         0         0
         0         0         0         0         0         0         0         0
         0         0         0         0         0         0         0         0
         0         0         0         0         0         0         0         0
         0         0         0         0         0         0         0         0
         0         0         0         0         0         0         0         0
         0         0         0         0         0         0         0         0
         0         0         0         0         0         0         0         0
         0         0         0         0         0         0         0         0
         0         0         0         0         0         0         0         0
         0         0         0         0         0         0         0         0
         0         0         0         0         0         0         0         0
         0         0         0         0         0         0         0         0
         0         0         0         0         0         0         0         0
         0         0         0         0         0         0         0         0
         0         0         0         0         0         0         0         0
         0         0         0         0         0         0         0         0
         0         0         0         0         0         0         0         0
         0         0         0         0         0         0         0         0
         0         0         0         0         0         0         0         0
         0         0         0         0         0         0         0         0
         0         0         0         0         0         0         0         0
         0         0         0         0         0         0         0         0
         0         0         0         0         0         0         0         0
         0         0         0         0         0         0         0         0
         0         0         0         0         0         0         0         0
         0         0         0         0         0         0         0         0
         0         0         0         0         0         0         0         0
         0         0         0         0         0         0         0         0
         0         0         0         0         0         0         0         0
         0         0         0         0         0         0         0         0
         0         0         0         0         0         0         0         0
         0         0         0         0         0         0         0         0
         0         0         0         0         0         0         0         0
         0         0         0         0         0         0         0         0
         0         0         0         0         0         0         0         0
         0         0         0         0         0         0         0         0
         0         0         0         0         0         0         0         0
         0         0         0         0         0         0         0         0
         0         0         0         0         0         0         0         0
         0         0         0         0         0         0         0         0
         0         0         0         0         0         0         0         0
         0         0         0         0         0         0         0         0
         0         0         0         0         0         0         0         0
         0         0         0         0         0         0         0         0
         0         0         0         0         0         0         0         0
         0         0         0         0         0         0         0         0
         0         0         0         0         0         0         0         0
         0         0         0         0         0         0         0         0
         0         0         0         0         0         0         0         0
         0         0         0         0         0         0         0         0
         0         0         0         0         0         0         0         0
         0         0         0         0         0         0         0         0
         0         0         0         0         0         0         0         0
         0         0         0         0         0         0         0         0
         0         0         0         0         0         0         0         0
         0         0         0         0         0         0         0         0
         0         0         0         0         0         0         0         0
         0         0         0         0         0         0         0         0
         0         0         0         0         0         0         0         0
         0         0         0         0         0         0         0         0
         0         0         0         0         0         0         0         0
         0         0         0         0         0         0         0         0
         0         0         0         0         0         0         0         0
         0         0         0         0         0         0         0         0
         0         0         0         0         0         0         0         0
         0         0         0         0         0         0         0         0
         0         0         0         0         0         0         0         0
         0         0         0         0         0         0         0         0
         0         0         0         0         0         0         0         0
         0         0         0         0         0         0         0         0
         0         0         0         0         0         0         0         0
         0         0         0         0         0         0         0         0
         0         0         0         0         0         0         0         0
         0         0         0         0         0         0         0         0
         0         0         0         0         0         0         0         0
         0         0         0         0         0         0         0         0
         0         0         0         0         0         0         0         0
         0         0         0         0         0         0         0         0
         0         0         0         0         0         0         0         0
         0         0         0         0         0         0         0         0
         0         0         0         0         0         0         0         0
         0         0         0         0         0         0         0         0
         0         0         0         0         0         0         0         0
         0         0         0         0         0         0         0         0
         0         0         0         0         0         0         0         0
         0         0         0         0         0         0         0         0
         0         0         0         0         0         0         0         0
         0         0         0         0         0         0         0         0
         0         0         0         0         0         0         0         0
         0         0         0         0         0         0         0         0
         0         0         0         0         0         0         0         0
         0         0         0         0         0         0         0         0
         0         0         0         0         0         0         0         0
         0         0         0         0         0         0         0         0
         0         0         0         0         0         0         0         0
         0         0         0         0         0         0         0         0
         0         0         0         0         0         0         0         0
         0         0         0         0         0         0         0         0
         0         0         0         0         0         0         0         0
         0         0         0         0         0         0         0         0
         0         0         0         0         0         0         0         0
         0         0         0         0         0         0         0         0
         0         0         0         0         0         0         0         0
         0         0         0         0         0         0         0         0
         0         0         0         0         0         0         0         0
         0         0         0         0         0         0         0         0
         0         0         0         0         0         0         0         0
         0         0         0         0         0         0         0         0
         0         0         0         0         0         0         0         0
         0         0         0         0         0         0         0         0
         0         0         0         0         0         0         0         0
         0         0         0         0         0         0         0         0
         0         0         0         0         0         0         0         0
         0         0         0         0         0         0         0         0
         0         0         0         0         0         0         0         0
         0         0         0         0         0         0         0         0
         0         0         0         0         0         0         0         0
         0         0         0         0         0         0         0         0
         0         0         0         0         0         0         0         0
         0         0         0         0         0         0         0         0
         0         0         0         0         0         0         0         0
         0         0         0         0         0         0         0         0
         0         0         0         0         0         0         0         0
         0         0         0         0         0         0         0         0
         0         0         0         0         0         0         0         0
         0         0         0         0         0         0         0         0
         0         0         0         0         0         0         0         0
         0         0         0         0         0         0         0         0
         0         0         0         0         0         0         0         0
         0         0         0         0         0         0         0         0
         0         0         0         0         0         0         0         0
         0         0         0         0         0         0         0         0
         0         0         0         0         0         0         0         0
         0         0         0         0         0         0         0         0
         0         0         0         0         0         0         0         0
         0         0         0         0         0         0         0         0
         0         0         0         0         0         0         0         0
         0         0         0         0         0         0         0         0
         0         0         0         0         0         0         0         0
         0         0         0         0         0         0         0         0
         0         0         0         0         0         0         0         0
         0         0         0         0         0         0         0         0
         0         0         0         0         0         0         0         0
         0         0         0         0         0         0         0         0
         0         0         0         0         0         0         0         0
         0         0         0         0         0         0         0         0
         0         0         0         0         0         0         0         0
         0         0         0         0         0         0         0         0
         0         0         0         0         0         0         0         0
         0         0         0         0         0         0         0         0
         0         0         0         0         0         0         0         0
         0         0         0         0         0         0         0         0
         0         0         0         0         0         0         0         0
         0         0         0         0         0         0         0         0
         0         0         0         0         0         0         0         0
         0         0         0         0         0         0         0         0
         0         0         0         0         0         0         0         0
         0         0         0         0         0         0         0         0
         0         0         0         0         0         0         0         0
         0         0         0         0         0         0         0         0
         0         0         0         0         0         0         0         0
         0         0         0         0         0         0         0         0
         0         0         0         0         0         0         0         0
         0         0         0         0         0         0         0         0
         0         0         0         0         0         0         0         0
         0         0         0         0         0         0         0         0
         0         0         0         0         0         0         0         0
         0         0         0         0         0         0         0         0
         0         0         0         0         0         0         0         0
         0         0         0         0         0         0         0         0
         0         0         0         0         0         0         0         0
         0         0         0         0         0         0         0         0
         0         0         0         0         0         0         0         0
         0         0         0         0         0         0         0         0
         0         0         0         0         0         0         0         0
         0         0         0         0         0         0         0         0
         0         0         0         0         0         0         0         0
         0         0         0         0         0         0         0         0
         0         0         0         0         0         0         0         0
         0         0         0         0         0         0         0         0
         0         0         0         0         0         0         0         0
         0         0         0         0         0         0         0         0
         0         0         0         0         0         0         0         0
         0         0         0         0         0         0         0         0
         0         0         0         0         0         0         0         0
         0         0         0         0         0         0         0         0
         0         0         0         0         0         0         0         0
         0         0         0         0         0         0         0         0
         0         0         0         0         0         0         0         0
         0         0         0         0         0         0         0         0
         0         0         0         0         0         0         0         0
         0         0         0         0         0         0         0         0
         0         0         0         0         0         0         0         0
         0         0         0         0         0         0         0         0
         0         0         0         0         0         0         0         0
         0         0         0         0         0         0         0         0
         0         0         0         0         0         0         0         0
         0         0         0         0         0         0         0         0
         0         0         0         0         0         0         0         0
         0         0         0         0         0         0         0         0
         0         0         0         0         0         0         0         0
         0         0         0         0         0         0         0         0
         0         0         0         0         0         0         0         0
         0         0         0         0         0         0         0         0
         0         0         0         0         0         0         0         0
         0         0         0         0         0         0         0         0
         0         0         0         0         0         0         0         0
         0         0         0         0         0         0         0         0
         0         0         0         0         0         0         0         0
         0         0         0         0         0         0         0         0
         0         0         0         0         0         0         0         0
         0         0         0         0         0         0         0         0
         0         0         0         0         0         0         0         0
         0         0         0         0         0         0         0         0
         0         0         0         0         0         0         0         0
         0         0         0         0         0         0         0         0
         0         0         0         0         0         0         0         0
         0         0         0         0         0         0         0         0
         0         0         0         0         0         0         0         0
         0         0         0         0         0         0         0         0
         0         0         0         0         0         0         0         0
         0         0         0         0         0         0         0         0
         0         0         0         0         0         0         0         0
         0         0         0         0         0         0         0         0
         0         0         0         0         0         0         0         0
         0         0         0         0         0         0         0         0
         0         0         0         0         0         0         0         0
         0         0         0         0         0         0         0         0
         0         0         0         0         0         0         0         0
         0         0         0         0         0         0         0         0
         0         0         0         0         0         0         0         0
         0         0         0         0         0         0         0         0
         0         0         0         0         0         0         0         0
         0         0         0         0         0         0         0         0
         0         0         0         0         0         0         0         0
         0         0         0         0         0         0         0         0
         0         0         0         0         0         0         0         0
         0         0         0         0         0         0         0         0
         0         0         0         0         0         0         0         0
         0         0         0         0         0         0         0         0
         0         0         0         0         0         0         0         0
         0         0         0         0         0         0         0         0
         0         0         0         0         0         0         0         0
         0         0         0         0         0         0         0         0
         0         0         0         0         0         0         0         0
         0         0         0         0         0         0         0         0
         0         0         0         0         0         0         0         0
         0         0         0         0         0         0         0         0
         0         0         0         0         0         0         0         0
         0         0         0         0         0         0         0         0
         0         0         0         0         0         0         0         0
         0         0         0         0         0         0         0         0
         0         0         0         0         0         0         0         0
         0         0         0         0         0         0         0         0
         0         0         0         0         0         0         0         0
         0         0         0         0         0         0         0         0
         0         0         0         0         0         0         0         0
         0         0         0         0         0         0         0         0
         0         0         0         0         0         0         0         0
         0         0         0         0         0         0         0         0
         0         0         0         0         0         0         0         0
         0         0         0         0         0         0         0         0
         0         0         0         0         0         0         0         0
         0         0         0         0         0         0         0         0
         0         0         0         0         0         0         0         0
         0         0         0         0         0         0         0         0
         0         0         0         0         0         0         0         0
         0         0         0         0         0         0         0         0
         0         0         0         0         0         0         0         0
         0         0         0         0         0         0         0         0
         0         0         0         0         0         0         0         0
         0         0         0         0         0         0         0         0
         0         0         0         0         0         0         0         0
         0         0         0         0         0         0         0         0
         0         0         0         0         0         0         0         0
         0         0         0         0         0         0         0         0
         0         0         0         0         0         0         0         0
         0         0         0         0         0         0         0         0
         0         0         0         0         0         0         0         0
         0         0         0         0         0         0         0         0
         0         0         0         0         0         0         0         0
         0         0         0         0         0         0         0         0
         0         0         0         0         0         0         0         0
         0         0         0         0         0         0         0         0
         0         0         0         0         0         0         0         0
         0         0         0         0         0         0         0         0
         0         0         0         0         0         0         0         0
         0         0         0         0         0         0         0         0
         0         0         0         0         0         0         0         0
         0         0         0         0         0         0         0         0
         0         0         0         0         0         0         0         0
         0         0         0         0         0         0         0         0
         0         0         0         0         0         0         0         0
         0         0         0         0         0         0         0         0
         0         0         0         0         0         0         0         0
         0         0         0         0         0         0         0         0
         0         0         0         0         0         0         0         0
         0         0         0         0         0         0         0         0
         0         0         0         0         0         0         0         0
         0         0         0         0         0         0         0         0
         0         0         0         0         0         0         0         0
         0         0         0         0         0         0         0         0
         0         0         0         0         0         0         0         0
         0         0         0         0         0         0         0         0
         0         0         0         0         0         0         0         0
         0         0         0         0         0         0         0         0
         0         0         0         0         0         0         0         0
         0         0         0         0         0         0         0         0
         0         0         0         0         0         0         0         0
         0         0         0         0         0         0         0         0
         0         0         0         0         0         0         0         0
         0         0         0         0         0         0         0         0
         0         0         0         0         0         0         0         0
         0         0         0         0         0         0         0         0
         0         0         0         0         0         0         0         0
         0         0         0         0         0         0         0         0
         0         0         0         0         0         0         0         0
         0         0         0         0         0         0         0         0
         0         0         0         0         0         0         0         0
         0         0         0         0         0         0         0         0
         0         0         0         0         0         0         0         0
         0         0         0         0         0         0         0         0
         0         0         0         0         0         0         0         0
         0         0         0         0         0         0         0         0
         0         0         0         0         0         0         0         0
         0         0         0         0         0         0         0         0
         0         0         0         0         0         0         0         0
         0         0         0         0         0         0         0         0
         0         0         0         0         0         0         0         0
         0         0         0         0         0         0         0         0
         0         0         0         0         0         0         0         0
         0         0         0         0         0         0         0         0
         0         0         0         0         0         0         0         0
         0         0         0         0         0         0         0         0
         0         0         0         0         0         0         0         0
         0         0         0         0         0         0         0         0
         0         0         0         0         0         0         0         0
         0         0         0         0         0         0         0         0
         0         0         0         0         0         0         0         0
         0         0         0         0         0         0         0         0
         0         0         0         0         0         0         0         0
         0         0         0         0         0         0         0         0
         0         0         0         0         0         0         0         0
         0         0         0         0         0         0         0         0
         0         0         0         0         0         0         0         0
         0         0         0         0         0         0         0         0
         0         0         0         0         0         0         0         0
         0         0         0         0         0         0         0         0
         0         0         0         0         0         0         0         0
         0         0         0         0         0         0         0         0
         0         0         0         0         0         0         0         0
         0         0         0         0         0         0         0         0
         0         0         0         0         0         0         0         0
         0         0         0         0         0         0         0         0
         0         0         0         0         0         0         0         0
         0         0         0         0         0         0         0         0
         0         0         0         0         0         0         0         0
         0         0         0         0         0         0         0         0
         0         0         0         0         0         0         0         0
         0         0         0         0         0         0         0         0
         0         0         0         0         0         0         0         0
         0         0         0         0         0         0         0         0
         0         0         0         0         0         0         0         0
         0         0         0         0         0         0         0         0
         0         0         0         0         0         0         0         0
         0         0         0         0         0         0         0         0
         0         0         0         0         0         0         0         0
         0         0         0         0         0         0         0         0
         0         0         0         0         0         0         0         0
         0         0         0         0         0         0         0         0
         0         0         0         0         0         0         0         0
         0         0         0         0         0         0         0         0
         0         0         0         0         0         0         0         0
         0         0         0         0         0         0         0         0
         0         0         0         0         0         0         0         0
         0         0         0         0         0         0         0         0
         0         0         0         0         0         0         0         0
         0         0         0         0         0         0         0         0
         0         0         0         0         0         0         0         0
         0         0         0         0         0         0         0         0
         0         0         0         0         0         0         0         0
         0         0         0         0         0         0         0         0
         0         0         0         0         0         0         0         0
         0         0         0         0         0         0         0         0
         0         0         0         0         0         0         0         0
         0         0         0         0         0         0         0         0
         0         0         0         0         0         0         0         0
         0         0         0         0         0         0         0         0
         0         0         0         0         0         0         0         0
         0         0         0         0         0         0         0         0
         0         0         0         0         0         0         0         0
         0         0         0         0         0         0         0         0
         0         0         0         0         0         0         0         0
         0         0         0         0         0         0         0         0
         0         0         0         0         0         0         0         0
         0         0         0         0         0         0         0         0
         0         0         0         0         0         0         0         0
         0         0         0         0         0         0         0         0
         0         0         0         0         0         0         0         0
         0         0         0         0         0         0         0         0
         0         0         0         0         0         0         0         0
         0         0         0         0         0         0         0         0
         0         0         0         0         0         0         0         0
         0         0         0         0         0         0         0         0
         0         0         0         0         0         0         0         0
         0         0         0         0         0         0         0         0
         0         0         0         0         0         0         0         0
         0         0         0         0         0         0         0         0
         0         0         0         0         0         0         0         0
         0         0         0         0         0         0         0         0
         0         0         0         0         0         0         0         0
         0         0         0         0         0         0         0         0
         0         0         0         0         0         0         0         0
         0         0         0         0         0         0         0         0
         0         0         0         0         0         0         0         0
         0         0         0         0         0         0         0         0
         0         0         0         0         0         0         0         0
         0         0         0         0         0         0         0         0
         0         0         0         0         0         0         0         0
         0         0         0         0         0         0         0         0
         0         0         0         0         0         0         0         0
         0         0         0         0         0         0         0         0
         0         0         0         0         0         0         0         0
         0         0         0         0         0         0         0         0
         0         0         0         0         0         0         0         0
         0         0         0         0         0         0         0         0
         0         0         0         0         0         0         0         0
         0         0         0         0         0         0         0         0
         0         0         0         0         0         0         0         0
         0         0         0         0         0         0         0         0
         0         0         0         0         0         0         0         0
         0         0         0         0         0         0         0         0
         0         0         0         0         0         0         0         0
         0         0         0         0         0         0         0         0
         0         0         0         0         0         0         0         0
         0         0         0         0         0         0         0         0
         0         0         0         0         0         0         0         0
         0         0         0         0         0         0         0         0
         0         0         0         0         0         0         0         0
         0         0         0         0         0         0         0         0
         0         0         0         0         0         0         0         0
         0         0         0         0         0         0         0         0
         0         0         0         0         0         0         0         0
         0         0         0         0         0         0         0         0
         0         0         0         0         0         0         0         0
         0         0         0         0         0         0         0         0
         0         0         0         0         0         0         0         0
         0         0         0         0         0         0         0         0
         0         0         0         0         0         0         0         0
         0         0         0         0         0         0         0         0
         0         0         0         0         0         0         0         0
         0         0         0         0         0         0         0         0
         0         0         0         0         0         0         0         0
         0         0         0         0         0         0         0         0
         0         0         0         0         0         0         0         0
         0         0         0         0         0         0         0         0
         0         0         0         0         0         0         0         0
         0         0         0         0         0         0         0         0
         0         0         0         0         0         0         0         0
         0         0         0         0         0         0         0         0
         0         0         0         0         0         0         0         0
         0         0         0         0         0         0         0         0
         0         0         0         0         0         0         0         0
         0         0         0         0         0         0         0         0
         0         0         0         0         0         0         0         0
         0         0         0         0         0         0         0         0
         0         0         0         0         0         0         0         0
         0         0         0         0         0         0         0         0
         0         0         0         0         0         0         0         0
         0         0         0         0         0         0         0         0
         0         0         0         0         0         0         0         0
         0         0         0         0         0         0         0         0
         0         0         0         0         0         0         0         0
         0         0         0         0         0         0         0         0
         0         0         0         0         0         0         0         0
         0         0         0         0         0         0         0         0
         0         0         0         0         0         0         0         0
         0         0         0         0         0         0         0         0
         0         0         0         0         0         0         0         0
         0         0         0         0         0         0         0         0
         0         0         0         0         0         0         0         0
         0         0         0         0         0         0         0         0
         0         0         0         0         0         0         0         0
         0         0         0         0         0         0         0         0
         0         0         0         0         0         0         0         0
         0         0         0         0         0         0         0         0
         0         0         0         0         0         0         0         0
         0         0         0         0         0         0         0         0
         0         0         0         0         0         0         0         0
         0         0         0         0         0         0         0         0
         0         0         0         0         0         0         0         0
         0         0         0         0         0         0         0         0
         0         0         0         0         0         0         0         0
         0         0         0         0         0         0         0         0
         0         0         0         0         0         0         0         0
         0         0         0         0         0         0         0         0
         0         0         0         0         0         0         0         0
         0         0         0         0         0         0         0         0
         0         0         0         0         0         0         0         0
         0         0         0         0         0         0         0         0
         0         0         0         0         0         0         0         0
         0         0         0         0         0         0         0         0
         0         0         0         0         0         0         0         0
         0         0         0         0         0         0         0         0
         0         0         0         0         0         0         0         0
         0         0         0         0         0         0         0         0
         0         0         0         0         0         0         0         0
         0         0         0         0         0         0         0         0
         0         0         0         0         0         0         0         0
         0         0         0         0         0         0         0         0
         0         0         0         0         0         0         0         0
         0         0         0         0         0         0         0         0
         0         0         0         0         0         0         0         0
         0         0         0         0         0         0         0         0
         0         0         0         0         0         0         0         0
         0         0         0         0         0         0         0         0
         0         0         0         0         0         0         0         0
         0         0         0         0         0         0         0         0
         0         0         0         0         0         0         0         0
         0         0         0         0         0         0         0         0
         0         0         0         0         0         0         0         0
         0         0         0         0         0         0         0         0
         0         0         0         0         0         0         0         0
         0         0         0         0         0         0         0         0
         0         0         0         0         0         0         0         0
         0         0         0         0         0         0         0         0
         0         0         0         0         0         0         0         0
         0         0         0         0         0         0         0         0
         0         0         0         0         0         0         0         0
         0         0         0         0         0         0         0         0
         0         0         0         0         0         0         0         0
         0         0         0         0         0         0         0         0
         0         0         0         0         0         0         0         0
         0         0         0         0         0         0         0         0
         0         0         0         0         0         0         0         0
         0         0         0         0         0         0         0         0
         0         0         0         0         0         0         0         0
         0         0         0         0         0         0         0         0
         0         0         0         0         0         0         0         0
         0         0         0         0         0         0         0         0
         0         0         0         0         0         0         0         0
         0         0         0         0         0         0         0         0
         0         0         0         0         0         0         0         0
         0         0         0         0         0         0         0         0
         0         0         0         0         0         0         0         0
         0         0         0         0         0         0         0         0
         0         0         0         0         0         0         0         0
         0         0         0         0         0         0         0         0
         0         0         0         0         0         0         0         0
         0         0         0         0         0         0         0         0
         0         0         0         0         0         0         0         0
         0         0         0         0         0         0         0         0
         0         0         0         0         0         0         0         0
         0         0         0         0         0         0         0         0
         0         0         0         0         0         0         0         0
         0         0         0         0         0         0         0         0
         0         0         0         0         0         0         0         0
         0         0         0         0         0         0         0         0
         0         0         0         0         0         0         0         0
         0         0         0         0         0         0         0         0
         0         0         0         0         0         0         0         0
         0         0         0         0         0         0         0         0
         0         0         0         0         0         0         0         0
         0         0         0         0         0         0         0         0
         0         0         0         0         0         0         0         0
         0         0         0         0         0         0         0         0
         0         0         0         0         0         0         0         0
         0         0         0         0         0         0         0         0
         0         0         0         0         0         0         0         0
         0         0         0         0         0         0         0         0
         0         0         0         0         0         0         0         0
         0         0         0         0         0         0         0         0
         0         0         0         0         0         0         0         0
         0         0         0         0         0         0         0         0
         0         0         0         0         0         0         0         0
         0         0         0         0         0         0         0         0
         0         0         0         0         0         0         0         0
         0         0         0         0         0         0         0         0
         0         0         0         0         0         0         0         0
         0         0         0         0         0         0         0         0
         0         0         0         0         0         0         0         0
         0         0         0         0         0         0         0         0
         0         0         0         0         0         0         0         0
         0         0         0         0         0         0         0         0
         0         0         0         0         0         0         0         0
         0         0         0         0         0         0         0         0
         0         0         0         0         0         0         0         0
         0         0         0         0         0         0         0         0
         0         0         0         0         0         0         0         0
         0         0         0         0         0         0         0         0
         0         0         0         0         0         0         0         0
         0         0         0         0         0         0         0         0
         0         0         0         0         0         0         0         0
         0         0         0         0         0         0         0         0
         0         0         0         0         0         0         0         0
         0         0         0         0         0         0         0         0
         0         0         0         0         0         0         0         0
         0         0         0         0         0         0         0         0
         0         0         0         0         0         0         0         0
         0         0         0         0         0         0         0         0
         0         0         0         0         0         0         0         0
         0         0         0         0         0         0         0         0
         0         0         0         0         0         0         0         0
         0         0         0         0         0         0         0         0
         0         0         0         0         0         0         0         0
         0         0         0         0         0         0         0         0
         0         0         0         0         0         0         0         0
         0         0         0         0         0         0         0         0
         0         0         0         0         0         0         0         0
         0         0         0         0         0         0         0         0
         0         0         0         0         0         0         0         0
         0         0         0         0         0         0         0         0
         0         0         0         0         0         0         0         0
         0         0         0         0         0         0         0         0
         0         0         0         0         0         0         0         0
         0         0         0         0         0         0         0         0
         0         0         0         0         0         0         0         0
         0         0         0         0         0         0         0         0
         0         0         0         0         0         0         0         0
         0         0         0         0         0         0         0         0
         0         0         0         0         0         0         0         0
         0         0         0         0         0         0         0         0
         0         0         0         0         0         0         0         0
         0         0         0         0         0         0         0         0
         0         0         0         0         0         0         0         0
         0         0         0         0         0         0         0         0
         0         0         0         0         0         0         0         0
         0         0         0         0         0         0         0         0
         0         0         0         0         0         0         0         0
         0         0         0         0         0         0         0         0
         0         0         0         0         0         0         0         0
         0         0         0         0         0         0         0         0
         0         0         0         0         0         0         0         0
         0         0         0         0         0         0         0         0
         0         0         0         0         0         0         0         0
         0         0         0         0         0         0         0         0
         0         0         0         0         0         0         0         0
         0         0         0         0         0         0         0         0
         0         0         0         0         0         0         0         0
         0         0         0         0         0         0         0         0
         0         0         0         0         0         0         0         0
         0         0         0         0         0         0         0         0
         0         0         0         0         0         0         0         0
         0         0         0         0         0         0         0         0
         0         0         0         0         0         0         0         0
         0         0         0         0         0         0         0         0
         0         0         0         0         0         0         0         0
         0         0         0         0         0         0         0         0
         0         0         0         0         0         0         0         0
         0         0         0         0         0         0         0         0
         0         0         0         0         0         0         0         0
         0         0         0         0         0         0         0         0
         0         0         0         0         0         0         0         0
         0         0         0         0         0         0         0         0
         0         0         0         0         0         0         0         0
         0         0         0         0         0         0         0         0
         0         0         0         0         0         0         0         0
         0         0         0         0         0         0         0         0
         0         0         0         0         0         0         0         0
         0         0         0         0         0         0         0         0
         0         0         0         0         0         0         0         0
         0         0         0         0         0         0         0         0
         0         0         0         0         0         0         0         0
         0         0         0         0         0         0         0         0
         0         0         0         0         0         0         0         0
         0         0         0         0         0         0         0         0
         0         0         0         0         0         0         0         0
         0         0         0         0         0         0         0         0
         0         0         0         0         0         0         0         0
         0         0         0         0         0         0         0         0
         0         0         0         0         0         0         0         0
         0         0         0         0         0         0         0         0
         0         0         0         0         0         0         0         0
         0         0         0         0         0         0         0         0
         0         0         0         0         0         0         0         0
         0         0         0         0         0         0         0         0
         0         0         0         0         0         0         0         0
         0         0         0         0         0         0         0         0
         0         0         0         0         0         0         0         0
         0         0         0         0         0         0         0         0
         0         0         0         0         0         0         0         0
         0         0         0         0         0         0         0         0
         0         0         0         0         0         0         0         0
         0         0         0         0         0         0         0         0
         0         0         0         0         0         0         0         0
         0         0         0         0         0         0         0         0
         0         0         0         0         0         0         0         0
         0         0         0         0         0         0         0         0
         0         0         0         0         0         0         0         0
         0         0         0         0         0         0         0         0
         0         0         0         0         0         0         0         0
         0         0         0         0         0         0         0         0
         0         0         0         0         0         0         0         0
         0         0         0         0         0         0         0         0
         0         0         0         0         0         0         0         0
         0         0         0         0         0         0         0         0
         0         0         0         0         0         0         0         0
         0         0         0         0         0         0         0         0
         0         0         0         0         0         0         0         0
         0         0         0         0         0         0         0         0
         0         0         0         0         0         0         0         0
         0         0         0         0         0         0         0         0
         0         0         0         0         0         0         0         0
         0         0         0         0         0         0         0         0
         0         0         0         0         0         0         0         0
         0         0         0         0         0         0         0         0
         0         0         0         0         0         0         0         0
         0         0         0         0         0         0         0         0
         0         0         0         0         0         0         0         0
         0         0         0         0         0         0         0         0
         0         0         0         0         0         0         0         0
         0         0         0         0         0         0         0         0
         0         0         0         0         0         0         0         0
         0         0         0         0         0         0         0         0
         0         0         0         0         0         0         0         0
         0         0         0         0         0         0         0         0
         0         0         0         0         0         0         0         0
         0         0         0         0         0         0         0         0
         0         0         0         0         0         0         0         0
         0         0         0         0         0         0         0         0
         0         0         0         0         0         0         0         0
         0         0         0         0         0         0         0         0
         0         0         0         0         0         0         0         0
         0         0         0         0         0         0         0         0
         0         0         0         0         0         0         0         0
         0         0         0         0         0         0         0         0
         0         0         0         0         0         0         0         0
         0         0         0         0         0         0         0         0
         0         0         0         0         0         0         0         0
         0         0         0         0         0         0         0         0
         0         0         0         0         0         0         0         0
         0         0         0         0         0         0         0         0
         0         0         0         0         0         0         0         0
         0         0         0         0         0         0         0         0
         0         0         0         0         0         0         0         0
         0         0         0         0         0         0         0         0
         0         0         0         0         0         0         0         0
         0         0         0         0         0         0         0         0
         0         0         0         0         0         0         0         0
         0         0         0         0         0         0         0         0
         0         0         0         0         0         0         0         0
         0         0         0         0         0         0         0         0
         0         0         0         0         0         0         0         0
         0         0         0         0         0         0         0         0
         0         0         0         0         0         0         0         0
         0         0         0         0         0         0         0         0
         0         0         0         0         0         0         0         0
         0         0         0         0         0         0         0         0
         0         0         0         0         0         0         0         0
         0         0         0         0         0         0         0         0
         0         0         0         0         0         0         0         0
         0         0         0         0         0         0         0         0
         0         0         0         0         0         0         0         0
         0         0         0         0         0         0         0         0
         0         0         0         0         0         0         0         0
         0         0         0         0         0         0         0         0
         0         0         0         0         0         0         0         0
         0         0         0         0         0         0         0         0
         0         0         0         0         0         0         0         0
         0         0         0         0         0         0         0         0
         0         0         0         0         0         0         0         0
         0         0         0         0         0         0         0         0
         0         0         0         0         0         0         0         0
         0         0         0         0         0         0         0         0
         0         0         0         0         0         0         0         0
         0         0         0         0         0         0         0         0
         0         0         0         0         0         0         0         0
         0         0         0         0         0         0         0         0
         0         0         0         0         0         0         0         0
         0         0         0         0         0         0         0         0
         0         0         0         0         0         0         0         0
         0         0         0         0         0         0         0         0
         0         0         0         0         0         0         0         0
         0         0         0         0         0         0         0         0
         0         0         0         0         0         0         0         0
         0         0         0         0         0         0         0         0
         0         0         0         0         0         0         0         0
         0         0         0         0         0         0         0         0
         0         0         0         0         0         0         0         0
         0         0         0         0         0         0         0         0
         0         0         0         0         0         0         0         0
         0         0         0         0         0         0         0         0
         0         0         0         0         0         0         0         0
         0         0         0         0         0         0         0         0
         0         0         0         0         0         0         0         0
         0         0         0         0         0         0         0         0
         0         0         0         0         0         0         0         0
         0         0         0         0         0         0         0         0
         0         0         0         0         0         0         0         0
         0         0         0         0         0         0         0         0
         0         0         0         0         0         0         0         0
         0         0         0         0         0         0         0         0
         0         0         0         0         0         0         0         0
         0         0         0         0         0         0         0         0
         0         0         0         0         0         0         0         0
         0         0         0         0         0         0         0         0
         0         0         0         0         0         0         0         0
         0         0         0         0         0         0         0         0
         0         0         0         0         0         0         0         0
         0         0         0         0         0         0         0         0
         0         0         0         0         0         0         0         0
         0         0         0         0         0         0         0         0
         0         0         0         0         0         0         0         0
         0         0         0         0         0         0         0         0
         0         0         0         0         0         0         0         0
         0         0         0         0         0         0         0         0
         0         0         0         0         0         0         0         0
         0         0         0         0         0         0         0         0
         0         0         0         0         0         0         0         0
         0         0         0         0         0         0         0         0
         0         0         0         0         0         0         0         0
         0         0         0         0         0         0         0         0
         0         0         0         0         0         0         0         0
         0         0         0         0         0         0         0         0
         0         0         0         0         0         0         0         0
         0         0         0         0         0         0         0         0
         0         0         0         0         0         0         0         0
         0         0         0         0         0         0         0         0
         0         0         0         0         0         0         0         0
         0         0         0         0         0         0         0         0
         0         0         0         0         0         0         0         0
         0         0         0         0         0         0         0         0
         0         0         0         0         0         0         0         0
         0         0         0         0         0         0         0         0
         0         0         0         0         0         0         0         0
         0         0         0         0         0         0         0         0
         0         0         0         0         0         0         0         0
         0         0         0         0         0         0         0         0
         0         0         0         0         0         0         0         0
         0         0         0         0         0         0         0         0
         0         0         0         0         0         0         0         0
         0         0         0         0         0         0         0         0
         0         0         0         0         0         0         0         0
         0         0         0         0         0         0         0         0
         0         0         0         0         0         0         0         0
         0         0         0         0         0         0         0         0
         0         0         0         0         0         0         0         0
         0         0         0         0         0         0         0         0
         0         0         0         0         0         0         0         0
         0         0         0         0         0         0         0         0
         0         0         0         0         0         0         0         0
         0         0         0         0         0         0         0         0
         0         0         0         0         0         0         0         0
         0         0         0         0         0         0         0         0
         0         0         0         0         0         0         0         0
         0         0         0         0         0         0         0         0
         0         0         0         0         0         0         0         0
         0         0         0         0         0         0         0         0
         0         0         0         0         0         0         0         0
         0         0         0         0         0         0         0         0
         0         0         0         0         0         0         0         0
         0         0         0         0         0         0         0         0
         0         0         0         0         0         0         0         0
         0         0         0         0         0         0         0         0
         0         0         0         0         0         0         0         0
         0         0         0         0         0         0         0         0
         0         0         0         0         0         0         0         0
         0         0         0         0         0         0         0         0
         0         0         0         0         0         0         0         0
         0         0         0         0         0         0         0         0
         0         0         0         0         0         0         0         0
         0         0         0         0         0         0         0         0
         0         0         0         0         0         0         0         0
         0         0         0         0         0         0         0         0
         0         0         0         0         0         0         0         0
         0         0         0         0         0         0         0         0
         0         0         0         0         0         0         0         0
         0         0         0         0         0         0         0         0
         0         0         0         0         0         0         0         0
         0         0         0         0         0         0         0         0
         0         0         0         0         0         0         0         0
         0         0         0         0         0         0         0         0
         0         0         0         0         0         0         0         0
         0         0         0         0         0         0         0         0
         0         0         0         0         0         0         0         0
         0         0         0         0         0         0         0         0
         0         0         0         0         0         0         0         0
         0         0         0         0         0         0         0         0
         0         0         0         0         0         0         0         0
         0         0         0         0         0         0         0         0
         0         0         0         0         0         0         0         0
         0         0         0         0         0         0         0         0
         0         0         0         0         0         0         0         0
         0         0         0         0         0         0         0         0
         0         0         0         0         0         0         0         0
         0         0         0         0         0         0         0         0
         0         0         0         0         0         0         0         0
         0         0         0         0         0         0         0         0
         0         0         0         0         0         0         0         0
         0         0         0         0         0         0         0         0
         0         0         0         0         0         0         0         0
         0         0         0         0         0         0         0         0
         0         0         0         0         0         0         0         0
         0         0         0         0         0         0         0         0
         0         0         0         0         0         0         0         0
         0         0         0         0         0         0         0         0
         0         0         0         0         0         0         0         0
         0         0         0         0         0         0         0         0
         0         0         0         0         0         0         0         0
         0         0         0         0         0         0         0         0
         0         0         0         0         0         0         0         0
         0         0         0         0         0         0         0         0
         0         0         0         0         0         0         0         0
         0         0         0         0         0         0         0         0
         0         0         0         0         0         0         0         0
         0         0         0         0         0         0         0         0
         0         0         0         0         0         0         0         0
         0         0         0         0         0         0         0         0
         0         0         0         0         0         0         0         0
         0         0         0         0         0         0         0         0
         0         0         0         0         0         0         0         0
         0         0         0         0         0         0         0         0
         0         0         0         0         0         0         0         0
         0         0         0         0         0         0         0         0
         0         0         0         0         0         0         0         0
         0         0         0         0         0         0         0         0
         0         0         0         0         0         0         0         0
         0         0         0         0         0         0         0         0
         0         0         0         0         0         0         0         0
         0         0         0         0         0         0         0         0
         0         0         0         0         0         0         0         0
         0         0         0         0         0         0         0         0
         0         0         0         0         0         0         0         0
         0         0         0         0         0         0         0         0
         0         0         0         0         0         0         0         0
         0         0         0         0         0         0         0         0
         0         0         0         0         0         0         0         0
         0         0         0         0         0         0         0         0
         0         0         0         0         0         0         0         0
         0         0         0         0         0         0         0         0
         0         0         0         0         0         0         0         0
         0         0         0         0         0         0         0         0
         0         0         0         0         0         0         0         0
         0         0         0         0         0         0         0         0
         0         0         0         0         0         0         0         0
         0         0         0         0         0         0         0         0
         0         0         0         0         0         0         0         0
         0         0         0         0         0         0         0         0
         0         0         0         0         0         0         0         0
         0         0         0         0         0         0         0         0
         0         0         0         0         0         0         0         0
         0         0         0         0         0         0         0         0
         0         0         0         0         0         0         0         0
         0         0         0         0         0         0         0         0
         0         0         0         0         0         0         0         0
         0         0         0         0         0         0         0         0
         0         0         0         0         0         0         0         0
         0         0         0         0         0         0         0         0
         0         0         0         0         0         0         0         0
         0         0         0         0         0         0         0         0
         0         0         0         0         0         0         0         0
         0         0         0         0         0         0         0         0
         0         0         0         0         0         0         0         0
         0         0         0         0         0         0         0         0
         0         0         0         0         0         0         0         0
         0         0         0         0         0         0         0         0
         0         0         0         0         0         0         0         0
         0         0         0         0         0         0         0         0
         0         0         0         0         0         0         0         0
         0         0         0         0         0         0         0         0
         0         0         0         0         0         0         0         0
         0         0         0         0         0         0         0         0
         0         0         0         0         0         0         0         0
         0         0         0         0         0         0         0         0
         0         0         0         0         0         0         0         0
         0         0         0         0         0         0         0         0
         0         0         0         0         0         0         0         0
         0         0         0         0         0         0         0         0
         0         0         0         0         0         0         0         0
         0         0         0         0         0         0         0         0
         0         0         0         0         0         0         0         0
         0         0         0         0         0         0         0         0
         0         0         0         0         0         0         0         0
         0         0         0         0         0         0         0         0
         0         0         0         0         0         0         0         0
         0         0         0         0         0         0         0         0
         0         0         0         0         0         0         0         0
         0         0         0         0         0         0         0         0
         0         0         0         0         0         0         0         0
         0         0         0         0         0         0         0         0
         0         0         0         0         0         0         0         0
         0         0         0         0         0         0         0         0
         0         0         0         0         0         0         0         0
         0         0         0         0         0         0         0         0
         0         0         0         0         0         0         0         0
         0         0         0         0         0         0         0         0
         0         0         0         0         0         0         0         0
         0         0         0         0         0         0         0         0
         0         0         0         0         0         0         0         0
         0         0         0         0         0         0         0         0
         0         0         0         0         0         0         0         0
         0         0         0         0         0         0         0         0
         0         0         0         0         0         0         0         0
         0         0         0         0         0         0         0         0
         0         0         0         0         0         0         0         0
         0         0         0         0         0         0         0         0
         0         0         0         0         0         0         0         0
         0         0         0         0         0         0         0         0
         0         0         0         0         0         0         0         0
         0         0         0         0         0         0         0         0
         0         0         0         0         0         0         0         0
         0         0         0         0         0         0         0         0
         0         0         0         0         0         0         0         0
         0         0         0         0         0         0         0         0
         0         0         0         0         0         0         0         0
         0         0         0         0         0         0         0         0
         0         0         0         0         0         0         0         0
         0         0         0         0         0         0         0         0
         0         0         0         0         0         0         0         0
         0         0         0         0         0         0         0         0
         0         0         0         0         0         0         0         0
         0         0         0         0         0         0         0         0
         0         0         0         0         0         0         0         0
         0         0         0         0         0         0         0         0
         0         0         0         0         0         0         0         0
         0         0         0         0         0         0         0         0
         0         0         0         0         0         0         0         0
         0         0         0         0         0         0         0         0
         0         0         0         0         0         0         0         0
         0         0         0         0         0         0         0         0
         0         0         0         0         0         0         0         0
         0         0         0         0         0         0         0         0
         0         0         0         0         0         0         0         0
         0         0         0         0         0         0         0         0
         0         0         0         0         0         0         0         0
         0         0         0         0         0         0         0         0
         0         0         0         0         0         0         0         0
         0         0         0         0         0         0         0         0
         0         0         0         0         0         0         0         0
         0         0         0         0         0         0         0         0
         0         0         0         0         0         0         0         0
         0         0         0         0         0         0         0         0
         0         0         0         0         0         0         0         0
         0         0         0         0         0         0         0         0
         0         0         0         0         0         0         0         0
         0         0         0         0         0         0         0         0
         0         0         0         0         0         0         0         0
         0         0         0         0         0         0         0         0
         0         0         0         0         0         0         0         0
         0         0         0         0         0         0         0         0
         0         0         0         0         0         0         0         0
         0         0         0         0         0         0         0         0
         0         0         0         0         0         0         0         0
         0         0         0         0         0         0         0         0
         0         0         0         0         0         0         0         0
         0         0         0         0         0         0         0         0
         0         0         0         0         0         0         0         0
         0         0         0         0         0         0         0         0
         0         0         0         0         0         0         0         0
         0         0         0         0         0         0         0         0
         0         0         0         0         0         0         0         0
         0         0         0         0         0         0         0         0
         0         0         0         0         0         0         0         0
         0         0         0         0         0         0         0         0
         0         0         0         0         0         0         0         0
         0         0         0         0         0         0         0         0
         0         0         0         0         0         0         0         0
         0         0         0         0         0         0         0         0
         0         0         0         0         0         0         0         0
         0         0         0         0         0         0         0         0
         0         0         0         0         0         0         0         0
         0         0         0         0         0         0         0         0
         0         0         0         0         0         0         0         0
         0         0         0         0         0         0         0         0
         0         0         0         0         0         0         0         0
         0         0         0         0         0         0         0         0
         0         0         0         0         0         0         0         0
         0         0         0         0         0         0         0         0
         0         0         0         0         0         0         0         0
         0         0         0         0         0         0         0         0
         0         0         0         0         0         0         0         0
         0         0         0         0         0         0         0         0
         0         0         0         0         0         0         0         0
         0         0         0         0         0         0         0         0
         0         0         0         0         0         0         0         0
         0         0         0         0         0         0         0         0
         0         0         0         0         0         0         0         0
         0         0         0         0         0         0         0         0
         0         0         0         0         0         0         0         0
         0         0         0         0         0         0         0         0
         0         0         0         0         0         0         0         0
         0         0         0         0         0         0         0         0
         0         0         0         0         0         0         0         0
         0         0         0         0         0         0         0         0
         0         0         0         0         0         0         0         0
         0         0         0         0         0         0         0         0
         0         0         0         0         0         0         0         0
         0         0         0         0         0         0         0         0
         0         0         0         0         0         0         0         0
         0         0         0         0         0         0         0         0
         0         0         0         0         0         0         0         0
         0         0         0         0         0         0         0         0
         0         0         0         0         0         0         0         0
         0         0         0         0         0         0         0         0
         0         0         0         0         0         0         0         0
         0         0         0         0         0         0         0         0
         0         0         0         0         0         0         0         0
         0         0         0         0         0         0         0         0
         0         0         0         0         0         0         0         0
         0         0         0         0         0         0         0         0
         0         0         0         0         0         0         0         0
         0         0         0         0         0         0         0         0
         0         0         0         0         0         0         0         0
         0         0         0         0         0         0         0         0
         0         0         0         0         0         0         0         0
         0         0         0         0         0         0         0         0
         0         0         0         0         0         0         0         0
         0         0         0         0         0         0         0         0
         0         0         0         0         0         0         0         0
         0         0         0         0         0         0         0         0
         0         0         0         0         0         0         0         0
         0         0         0         0         0         0         0         0
         0         0         0         0         0         0         0         0
         0         0         0         0         0         0         0         0
         0         0         0         0         0         0         0         0
         0         0         0         0         0         0         0         0
         0         0         0         0         0         0         0         0
         0         0         0         0         0         0         0         0
         0         0         0         0         0         0         0         0
         0         0         0         0         0         0         0         0
         0         0         0         0         0         0         0         0
         0         0         0         0         0         0         0         0
         0         0         0         0         0         0         0         0
         0         0         0         0         0         0         0         0
         0         0         0         0         0         0         0         0
         0         0         0         0         0         0         0         0
         0         0         0         0         0         0         0         0
         0         0         0         0         0         0         0         0
         0         0         0         0         0         0         0         0
         0         0         0         0         0         0         0         0
         0         0         0         0         0         0         0         0
         0         0         0         0         0         0         0         0
         0         0         0         0         0         0         0         0
         0         0         0         0         0         0         0         0
         0         0         0         0         0         0         0         0
         0         0         0         0         0         0         0         0
         0         0         0         0         0         0         0         0
         0         0         0         0         0         0         0         0
         0         0         0         0         0         0         0         0
         0         0         0         0         0         0         0         0
         0         0         0         0         0         0         0         0
         0         0         0         0         0         0         0         0
         0         0         0         0         0         0         0         0
         0         0         0         0         0         0         0         0
         0         0         0         0         0         0         0         0
         0         0         0         0         0         0         0         0
         0         0         0         0         0         0         0         0
         0         0         0         0         0         0         0         0
         0         0         0         0         0         0         0         0
         0         0         0         0         0         0         0         0
         0         0         0         0         0         0         0         0
         0         0         0         0         0         0         0         0
         0         0         0         0         0         0         0         0
         0         0         0         0         0         0         0         0
         0         0         0         0         0         0         0         0
         0         0         0         0         0         0         0         0
         0         0         0         0         0         0         0         0
         0         0         0         0         0         0         0         0
         0         0         0         0         0         0         0         0
         0         0         0         0         0         0         0         0
         0         0         0         0         0         0         0         0
         0         0         0         0         0         0         0         0
         0         0         0         0         0         0         0         0
         0         0         0         0         0         0         0         0
         0         0         0         0         0         0         0         0
         0         0         0         0         0         0         0         0
         0         0         0         0         0         0         0         0
         0         0         0         0         0         0         0         0
         0         0         0         0         0         0         0         0
         0         0         0         0         0         0         0         0
         0         0         0         0         0         0         0         0
         0         0         0         0         0         0         0         0
         0         0         0         0         0         0         0         0
         0         0         0         0         0         0         0         0
         0         0         0         0         0         0         0         0
         0         0         0         0         0         0         0         0
         0         0         0         0         0         0         0         0
         0         0         0         0         0         0         0         0
         0         0         0         0         0         0         0         0
         0         0         0         0         0         0         0         0
         0         0         0         0         0         0         0         0
         0         0         0         0         0         0         0         0
         0         0         0         0         0         0         0         0
         0         0         0         0         0         0         0         0
         0         0         0         0         0         0         0         0
         0         0         0         0         0         0         0         0
         0         0         0         0         0         0         0         0
         0         0         0         0         0         0         0         0
         0         0         0         0         0         0         0         0
         0         0         0         0         0         0         0         0
         0         0         0         0         0         0         0         0
         0         0         0         0         0         0         0         0
         0         0         0         0         0         0         0         0
         0         0         0         0         0         0         0         0
         0         0         0         0         0         0         0         0
         0         0         0         0         0         0         0         0
         0         0         0         0         0         0         0         0
         0         0         0         0         0         0         0         0
         0         0         0         0         0         0         0         0
         0         0         0         0         0         0         0         0
         0         0         0         0         0         0         0         0
         0         0         0         0         0         0         0         0
         0         0         0         0         0         0         0         0
         0         0         0         0         0         0         0         0
         0         0         0         0         0         0         0         0
         0         0         0         0         0         0         0         0
         0         0         0         0         0         0         0         0
         0         0         0         0         0         0         0         0
         0         0         0         0         0         0         0         0
         0         0         0         0         0         0         0         0
         0         0         0         0         0         0         0         0
         0         0         0         0         0         0         0         0
         0         0         0         0         0         0         0         0
         0         0         0         0         0         0         0         0
         0         0         0         0         0         0         0         0
         0         0         0         0         0         0         0         0
         0         0         0         0         0         0         0         0
         0         0         0         0         0         0         0         0
         0         0         0         0         0         0         0         0
         0         0         0         0         0         0         0         0
         0         0         0         0         0         0         0         0
         0         0         0         0         0         0         0         0
         0         0         0         0         0         0         0         0
         0         0         0         0         0         0         0         0
         0         0         0         0         0         0         0         0
         0         0         0         0         0         0         0         0
         0         0         0         0         0         0         0         0
         0         0         0         0         0         0         0         0
         0         0         0         0         0         0         0         0
         0         0         0         0         0         0         0         0
         0         0         0         0         0         0         0         0
         0         0         0         0         0         0         0         0
         0         0         0         0         0         0         0         0
         0         0         0         0         0         0         0         0
         0         0         0         0         0         0         0         0
         0         0         0         0         0         0         0         0
         0         0         0         0         0         0         0         0
         0         0         0         0         0         0         0         0
         0         0         0         0         0         0         0         0
         0         0         0         0         0         0         0         0
         0         0         0         0         0         0         0         0
         0         0         0         0         0         0         0         0
         0         0         0         0         0         0         0         0
         0         0         0         0         0         0         0         0
         0         0         0         0         0         0         0         0
         0         0         0         0         0         0         0         0
         0         0         0         0         0         0         0         0
         0         0         0         0         0         0         0         0
         0         0         0         0         0         0         0         0
         0         0         0         0         0         0         0         0
         0         0         0         0         0         0         0         0
         0         0         0         0         0         0         0         0
         0         0         0         0         0         0         0         0
         0         0         0         0         0         0         0         0
         0         0         0         0         0         0         0         0
         0         0         0         0         0         0         0         0
         0         0         0         0         0         0         0         0
         0         0         0         0         0         0         0         0
         0         0         0         0         0         0         0         0
         0         0         0         0         0         0         0         0
         0         0         0         0         0         0         0         0
         0         0         0         0         0         0         0         0
         0         0         0         0         0         0         0         0
         0         0         0         0         0         0         0         0
         0         0         0         0         0         0         0         0
         0         0         0         0         0         0         0         0
         0         0         0         0         0         0         0         0
         0         0         0         0         0         0         0         0
         0         0         0         0         0         0         0         0
         0         0         0         0         0         0         0         0
         0         0         0         0         0         0         0         0
         0         0         0         0         0         0         0         0
         0         0         0         0         0         0         0         0
         0         0         0         0         0         0         0         0
         0         0         0         0         0         0         0         0
         0         0         0         0         0         0         0         0
         0         0         0         0         0         0         0         0
         0         0         0         0         0         0         0         0
         0         0         0         0         0         0         0         0
         0         0         0         0         0         0         0         0
         0         0         0         0         0         0         0         0
         0         0         0         0         0         0         0         0
         0         0         0         0         0         0         0         0
         0         0         0         0         0         0         0         0
         0         0         0         0         0         0         0         0
         0         0         0         0         0         0         0         0
         0         0         0         0         0         0         0         0
         0         0         0         0         0         0         0         0
         0         0         0         0         0         0         0         0
         0         0         0         0         0         0         0         0
         0         0         0         0         0         0         0         0
         0         0         0         0         0         0         0         0
         0         0         0         0         0         0         0         0
         0         0         0         0         0         0         0         0
         0         0         0         0         0         0         0         0
         0         0         0         0         0         0         0         0
         0         0         0         0         0         0         0         0
         0         0         0         0         0         0         0         0
         0         0         0         0         0         0         0         0
         0         0         0         0         0         0         0         0
         0         0         0         0         0         0         0         0
         0         0         0         0         0         0         0         0
         0         0         0         0         0         0         0         0
         0         0         0         0         0         0         0         0
         0         0         0         0         0         0         0         0
         0         0         0         0         0         0         0         0
         0         0         0         0         0         0         0         0
         0         0         0         0         0         0         0         0
         0         0         0         0         0         0         0         0
         0         0         0         0         0         0         0         0
         0         0         0         0         0         0         0         0
         0         0         0         0         0         0         0         0
         0         0         0         0         0         0         0         0
         0         0         0         0         0         0         0         0
         0         0         0         0         0         0         0         0
         0         0         0         0         0         0         0         0
         0         0         0         0         0         0         0         0
         0         0         0         0         0         0         0         0
         0         0         0         0         0         0         0         0
         0         0         0         0         0         0         0         0
         0         0         0         0         0         0         0         0
         0         0         0         0         0         0         0         0
         0         0         0         0         0         0         0         0
         0         0         0         0         0         0         0         0
         0         0         0         0         0         0         0         0
         0         0         0         0         0         0         0         0
         0         0         0         0         0         0         0         0
         0         0         0         0         0         0         0         0
         0         0         0         0         0         0         0         0
         0         0         0         0         0         0         0         0
         0         0         0         0         0         0         0         0
         0         0         0         0         0         0         0         0
         0         0         0         0         0         0         0         0
         0         0         0         0         0         0         0         0
         0         0         0         0         0         0         0         0
         0         0         0         0         0         0         0         0
         0         0         0         0         0         0         0         0
         0         0         0         0         0         0         0         0
         0         0         0         0         0         0         0         0
         0         0         0         0         0         0         0         0
         0         0         0         0         0         0         0         0
         0         0         0         0         0         0         0         0
         0         0         0         0         0         0         0         0
         0         0         0         0         0         0         0         0
         0         0         0         0         0         0         0         0
         0         0         0         0         0         0         0         0
         0         0         0         0         0         0         0         0
         0         0         0         0         0         0         0         0
         0         0         0         0         0         0         0         0
         0         0         0         0         0         0         0         0
         0         0         0         0         0         0         0         0
         0         0         0         0         0         0         0         0
         0         0         0         0         0         0         0         0
         0         0         0         0         0         0         0         0
         0         0         0         0         0         0         0         0
         0         0         0         0         0         0         0         0
         0         0         0         0         0         0         0         0
         0         0         0         0         0         0         0         0
         0         0         0         0         0         0         0         0
         0         0         0         0         0         0         0         0
         0         0         0         0         0         0         0         0
         0         0         0         0         0         0         0         0
         0         0         0         0         0         0         0         0
         0         0         0         0         0         0         0         0
         0         0         0         0         0         0         0         0
         0         0         0         0         0         0         0         0
         0         0         0         0         0         0         0         0
         0         0         0         0         0         0         0         0
         0         0         0         0         0         0         0         0
         0         0         0         0         0         0         0         0
         0         0         0         0         0         0         0         0
         0         0         0         0         0         0         0         0
         0         0         0         0         0         0         0         0
         0         0         0         0         0         0         0         0
         0         0         0         0         0         0         0         0
         0         0         0         0         0         0         0         0
         0         0         0         0         0         0         0         0
         0         0         0         0         0         0         0         0
         0         0         0         0         0         0         0         0
         0         0         0         0         0         0         0         0
         0         0         0         0         0         0         0         0
         0         0         0         0         0         0         0         0
         0         0         0         0         0         0         0         0
         0         0         0         0         0         0         0         0
         0         0         0         0         0         0         0         0
         0         0         0         0         0         0         0         0
         0         0         0         0         0         0         0         0
         0         0         0         0         0         0         0         0
         0         0         0         0         0         0         0         0
         0         0         0         0         0         0         0         0
         0         0         0         0         0         0         0         0
         0         0         0         0         0         0         0         0
         0         0         0         0         0         0         0         0
         0         0         0         0         0         0         0         0
         0         0         0         0         0         0         0         0
         0         0         0         0         0         0         0         0
         0         0         0         0         0         0         0         0
         0         0         0         0         0         0         0         0
         0         0         0         0         0         0         0         0
         0         0         0         0         0         0         0         0
         0         0         0         0         0         0         0         0
         0         0         0         0         0         0         0         0
         0         0         0         0         0         0         0         0
         0         0         0         0         0         0         0         0
         0         0         0         0         0         0         0         0
         0         0         0         0         0         0         0         0
         0         0         0         0         0         0         0         0
         0         0         0         0         0         0         0         0
         0         0         0         0         0         0         0         0
         0         0         0         0         0         0         0         0
         0         0         0         0         0         0         0         0
         0         0         0         0         0         0         0         0
         0         0         0         0         0         0         0         0
         0         0         0         0         0         0         0         0
         0         0         0         0         0         0         0         0
         0         0         0         0         0         0         0         0
         0         0         0         0         0         0         0         0
         0         0         0         0         0         0         0         0
         0         0         0         0         0         0         0         0
         0         0         0         0         0         0         0         0
         0         0         0         0         0         0         0         0
         0         0         0         0         0         0         0         0
         0         0         0         0         0         0         0         0
         0         0         0         0         0         0         0         0
         0         0         0         0         0         0         0         0
         0         0         0         0         0         0         0         0
         0         0         0         0         0         0         0         0
         0         0         0         0         0         0         0         0
         0         0         0         0         0         0         0         0
         0         0         0         0         0         0         0         0
         0         0         0         0         0         0         0         0
         0         0         0         0         0         0         0         0
         0         0         0         0         0         0         0         0
         0         0         0         0         0         0         0         0
         0         0         0         0         0         0         0         0
         0         0         0         0         0         0         0         0
         0         0         0         0         0         0         0         0
         0         0         0         0         0         0         0         0
         0         0         0         0         0         0         0         0
         0         0         0         0         0         0         0         0
         0         0         0         0         0         0         0         0
         0         0         0         0         0         0         0         0
         0         0         0         0         0         0         0         0
         0         0         0         0         0         0         0         0
         0         0         0         0         0         0         0         0
         0         0         0         0         0         0         0         0
         0         0         0         0         0         0         0         0
         0         0         0         0         0         0         0         0
         0         0         0         0         0         0         0         0
         0         0         0         0         0         0         0         0
         0         0         0         0         0         0         0         0
         0         0         0         0         0         0         0         0
         0         0         0         0         0         0         0         0
         0         0         0         0         0         0         0         0
         0         0         0         0         0         0         0         0
         0         0         0         0         0         0         0         0
         0         0         0         0         0         0         0         0
         0         0         0         0         0         0         0         0
         0         0         0         0         0         0         0         0
         0         0         0         0         0         0         0         0
         0         0         0         0         0         0         0         0
         0         0         0         0         0         0         0         0
         0         0         0         0         0         0         0         0
         0         0         0         0         0         0         0         0
         0         0         0         0         0         0         0         0
         0         0         0         0         0         0         0         0
         0         0         0         0         0         0         0         0
         0         0         0         0         0         0         0         0
         0         0         0         0         0         0         0         0
         0         0         0         0         0         0         0         0
         0         0         0         0         0         0         0         0
         0         0         0         0         0         0         0         0
         0         0         0         0         0         0         0         0
         0         0         0         0         0         0         0         0
         0         0         0         0         0         0         0         0
         0         0         0         0         0         0         0         0
         0         0         0         0         0         0         0         0
         0         0         0         0         0         0         0         0
         0         0         0         0         0         0         0         0
         0         0         0         0         0         0         0         0
         0         0         0         0         0         0         0         0
         0         0         0         0         0         0         0         0
         0         0         0         0         0         0         0         0
         0         0         0         0         0         0         0         0
         0         0         0         0         0         0         0         0
         0         0         0         0         0         0         0         0
         0         0         0         0         0         0         0         0
         0         0         0         0         0         0         0         0
         0         0         0         0         0         0         0         0
         0         0         0         0         0         0         0         0
         0         0         0         0         0         0         0         0
         0         0         0         0         0         0         0         0
         0         0         0         0         0         0         0         0
         0         0         0         0         0         0         0         0
         0         0         0         0         0         0         0         0
         0         0         0         0         0         0         0         0
         0         0         0         0         0         0         0         0
         0         0         0         0         0         0         0         0
         0         0         0         0         0         0         0         0
         0         0         0         0         0         0         0         0
         0         0         0         0         0         0         0         0
         0         0         0         0         0         0         0         0
         0         0         0         0         0         0         0         0
         0         0         0         0         0         0         0         0
         0         0         0         0         0         0         0         0
         0         0         0         0         0         0         0         0
         0         0         0         0         0         0         0         0
         0         0         0         0         0         0         0         0
         0         0         0         0         0         0         0         0
         0         0         0         0         0         0         0         0
         0         0         0         0         0         0         0         0
         0         0         0         0         0         0         0         0
         0         0         0         0         0         0         0         0
         0         0         0         0         0         0         0         0
         0         0         0         0         0         0         0         0
         0         0         0         0         0         0         0         0
         0         0         0         0         0         0         0         0
         0         0         0         0         0         0         0         0
         0         0         0         0         0         0         0         0
         0         0         0         0         0         0         0         0
         0         0         0         0         0         0         0         0
         0         0         0         0         0         0         0         0
         0         0         0         0         0         0         0         0
         0         0         0         0         0         0         0         0
         0         0         0         0         0         0         0         0
         0         0         0         0         0         0         0         0
         0         0         0         0         0         0         0         0
         0         0         0         0         0         0         0         0
         0         0         0         0         0         0         0         0
         0         0         0         0         0         0         0         0
         0         0         0         0         0         0         0         0
         0         0         0         0         0         0         0         0
         0         0         0         0         0         0         0         0
         0         0         0         0         0         0         0         0
         0         0         0         0         0         0         0         0
         0         0         0         0         0         0         0         0
         0         0         0         0         0         0         0         0
         0         0         0         0         0         0         0         0
         0         0         0         0         0         0         0         0
         0         0         0         0         0         0         0         0
         0         0         0         0         0         0         0         0
         0         0         0         0         0         0         0         0
         0         0         0         0         0         0         0         0
         0         0         0         0         0         0         0         0
         0         0         0         0         0         0         0         0
         0         0         0         0         0         0         0         0
         0         0         0         0         0         0         0         0
         0         0         0         0         0         0         0         0
         0         0         0         0         0         0         0         0
         0         0         0         0         0         0         0         0
         0         0         0         0         0         0         0         0
         0         0         0         0         0         0         0         0
         0         0         0         0         0         0         0         0
         0         0         0         0         0         0         0         0
         0         0         0         0         0         0         0         0
         0         0         0         0         0         0         0         0
         0         0         0         0         0         0         0         0
         0         0         0         0         0         0         0         0
         0         0         0         0         0         0         0         0
         0         0         0         0         0         0         0         0
         0         0         0         0         0         0         0         0
         0         0         0         0         0         0         0         0
         0         0         0         0         0         0         0         0
         0         0         0         0         0         0         0         0
         0         0         0         0         0         0         0         0
         0         0         0         0         0         0         0         0
         0         0         0         0         0         0         0         0
         0         0         0         0         0         0         0         0
         0         0         0         0         0         0         0         0
         0         0         0         0         0         0         0         0
         0         0         0         0         0         0         0         0
         0         0         0         0         0         0         0         0
         0         0         0         0         0         0         0         0
         0         0         0         0         0         0         0         0
         0         0         0         0         0         0         0         0
         0         0         0         0         0         0         0         0
         0         0         0         0         0         0         0         0
         0         0         0         0         0         0         0         0
         0         0         0         0         0         0         0         0
         0         0         0         0         0         0         0         0
         0         0         0         0         0         0         0         0
         0         0         0         0         0         0         0         0
         0         0         0         0         0         0         0         0
         0         0         0         0         0         0         0         0
         0         0         0         0         0         0         0         0
         0         0         0         0         0         0         0         0
         0         0         0         0         0         0         0         0
         0         0         0         0         0         0         0         0
         0         0         0         0         0         0         0         0
         0         0         0         0         0         0         0         0
         0         0         0         0         0         0         0         0
         0         0         0         0         0         0         0         0
         0         0         0         0         0         0         0         0
         0         0         0         0         0         0         0         0
         0         0         0         0         0         0         0         0
         0         0         0         0         0         0         0         0
         0         0         0         0         0         0         0         0
         0         0         0         0         0         0         0         0
         0         0         0         0         0         0         0         0
         0         0         0         0         0         0         0         0
         0         0         0         0         0         0         0         0
         0         0         0         0         0         0         0         0
         0         0         0         0         0         0         0         0
         0         0         0         0         0         0         0         0
         0         0         0         0         0         0         0         0
         0         0         0         0         0         0         0         0
         0         0         0         0         0         0         0         0
         0         0         0         0         0         0         0         0
         0         0         0         0         0         0         0         0
         0         0         0         0         0         0         0         0
         0         0         0         0         0         0         0         0
         0         0         0         0         0         0         0         0
         0         0         0         0         0         0         0         0
         0         0         0         0         0         0         0         0
         0         0         0         0         0         0         0         0
         0         0         0         0         0         0         0         0
         0         0         0         0         0         0         0         0
         0         0         0         0         0         0         0         0
         0         0         0         0         0         0         0         0
         0         0         0         0         0         0         0         0
         0         0         0         0         0         0         0         0
         0         0         0         0         0         0         0         0
         0         0         0         0         0         0         0         0
         0         0         0         0         0         0         0         0
         0         0         0         0         0         0         0         0
         0         0         0         0         0         0         0         0
         0         0         0         0         0         0         0         0
         0         0         0         0         0         0         0         0
         0         0         0         0         0         0         0         0
         0         0         0         0         0         0         0         0
         0         0         0         0         0         0         0         0
         0         0         0         0         0         0         0         0
         0         0         0         0         0         0         0         0
         0         0         0         0         0         0         0         0
         0         0         0         0         0         0         0         0
         0         0         0         0         0         0         0         0
         0         0         0         0         0         0         0         0
         0         0         0         0         0         0         0         0
         0         0         0         0         0         0         0         0
         0         0         0         0         0         0         0         0
         0         0         0         0         0         0         0         0
         0         0         0         0         0         0         0         0
         0         0         0         0         0         0         0         0
         0         0         0         0         0         0         0         0
         0         0         0         0         0         0         0         0
         0         0         0         0         0         0         0         0
         0         0         0         0         0         0         0         0
         0         0         0         0         0         0         0         0
         0         0         0         0         0         0         0         0
         0         0         0         0         0         0         0         0
         0         0         0         0         0         0         0         0
         0         0         0         0         0         0         0         0
         0         0         0         0         0         0         0         0
         0         0         0         0         0         0         0         0
         0         0         0         0         0         0         0         0
         0         0         0         0         0         0         0         0
         0         0         0         0         0         0         0         0
         0         0         0         0         0         0         0         0
         0         0         0         0         0         0         0         0
         0         0         0         0         0         0         0         0
         0         0         0         0         0         0         0         0
         0         0         0         0         0         0         0         0
         0         0         0         0         0         0         0         0
         0         0         0         0         0         0         0         0
         0         0         0         0         0         0         0         0
         0         0         0         0         0         0         0         0
         0         0         0         0         0         0         0         0
         0         0         0         0         0         0         0         0
         0         0         0         0         0         0         0         0
         0         0         0         0         0         0         0         0
         0         0         0         0         0         0         0         0
         0         0         0         0         0         0         0         0
         0         0         0         0         0         0         0         0
         0         0         0         0         0         0         0         0
         0         0         0         0         0         0         0         0
         0         0         0         0         0         0         0         0
         0         0         0         0         0         0         0         0
         0         0         0         0         0         0         0         0
         0         0         0         0         0         0         0         0
         0         0         0         0         0         0         0         0
         0         0         0         0         0         0         0         0
         0         0         0         0         0         0         0         0
         0         0         0         0         0         0         0         0
         0         0         0         0         0         0         0         0
         0         0         0         0         0         0         0         0
         0         0         0         0         0         0         0         0
         0         0         0         0         0         0         0         0
         0         0         0         0         0         0         0         0
         0         0         0         0         0         0         0         0
         0         0         0         0         0         0         0         0
         0         0         0         0         0         0         0         0
         0         0         0         0         0         0         0         0
         0         0         0         0         0         0         0         0
         0         0         0         0         0         0         0         0
         0         0         0         0         0         0         0         0
         0         0         0         0         0         0         0         0
         0         0         0         0         0         0         0         0
         0         0         0         0         0         0         0         0
         0         0         0         0         0         0         0         0
         0         0         0         0         0         0         0         0
         0         0         0         0         0         0         0         0
         0         0         0         0         0         0         0         0
         0         0         0         0         0         0         0         0
         0         0         0         0         0         0         0         0
         0         0         0         0         0         0         0         0
         0         0         0         0         0         0         0         0
         0         0         0         0         0         0         0         0
         0         0         0         0         0         0         0         0
         0         0         0         0         0         0         0         0
         0         0         0         0         0         0         0         0
         0         0         0         0         0         0         0         0
         0         0         0         0         0         0         0         0
         0         0         0         0         0         0         0         0
         0         0         0         0         0         0         0         0
         0         0         0         0         0         0         0         0
         0         0         0         0         0         0         0         0
         0         0         0         0         0         0         0         0
         0         0         0         0         0         0         0         0
         0         0         0         0         0         0         0         0
         0         0         0         0         0         0         0         0
         0         0         0         0         0         0         0         0
         0         0         0         0         0         0         0         0
         0         0         0         0         0         0         0         0
         0         0         0         0         0         0         0         0
         0         0         0         0         0         0         0         0
         0         0         0         0         0         0         0         0
         0         0         0         0         0         0         0         0
         0         0         0         0         0         0         0         0
         0         0         0         0         0         0         0         0
         0         0         0         0         0         0         0         0
         0         0         0         0         0         0         0         0
         0         0         0         0         0         0         0         0
         0         0         0         0         0         0         0         0
         0         0         0         0         0         0         0         0
         0         0         0         0         0         0         0         0
         0         0         0         0         0         0         0         0
         0         0         0         0         0         0         0         0
         0         0         0         0         0         0         0         0
         0         0         0         0         0         0         0         0
         0         0         0         0         0         0         0         0
         0         0         0         0         0         0         0         0
         0         0         0         0         0         0         0         0
         0         0         0         0         0         0         0         0
         0         0         0         0         0         0         0         0
         0         0         0         0         0         0         0         0
         0         0         0         0         0         0         0         0
         0         0         0         0         0         0         0         0
         0         0         0         0         0         0         0         0
         0         0         0         0         0         0         0         0
         0         0         0         0         0         0         0         0
         0         0         0         0         0         0         0         0
         0         0         0         0         0         0         0         0
         0         0         0         0         0         0         0         0
         0         0         0         0         0         0         0         0
         0         0         0         0         0         0         0         0
         0         0         0         0         0         0         0         0
         0         0         0         0         0         0         0         0
         0         0         0         0         0         0         0         0
         0         0         0         0         0         0         0         0
         0         0         0         0         0         0         0         0
         0         0         0         0         0         0         0         0
         0         0         0         0         0         0         0         0
         0         0         0         0         0         0         0         0
         0         0         0         0         0         0         0         0
         0         0         0         0         0         0         0         0
         0         0         0         0         0         0         0         0
         0         0         0         0         0         0         0         0
         0         0         0         0         0         0         0         0
         0         0         0         0         0         0         0         0
         0         0         0         0         0         0         0         0
         0         0         0         0         0         0         0         0
         0         0         0         0         0         0         0         0
         0         0         0         0         0         0         0         0
         0         0         0         0         0         0         0         0
         0         0         0         0         0         0         0         0
         0         0         0         0         0         0         0         0
         0         0         0         0         0         0         0         0
         0         0         0         0         0         0         0         0
         0         0         0         0         0         0         0         0
         0         0         0         0         0         0         0         0
         0         0         0         0         0         0         0         0
         0         0         0         0         0         0         0         0
         0         0         0         0         0         0         0         0
         0         0         0         0         0         0         0         0
         0         0         0         0         0         0         0         0
         0         0         0         0         0         0         0         0
         0         0         0         0         0         0         0         0
         0         0         0         0         0         0         0         0
         0         0         0         0         0         0         0         0
         0         0         0         0         0         0         0         0
         0         0         0         0         0         0         0         0
         0         0         0         0         0         0         0         0
         0         0         0         0         0         0         0         0
         0         0         0         0         0         0         0         0
         0         0         0         0         0         0         0         0
         0         0         0         0         0         0         0         0
         0         0         0         0         0         0         0         0
         0         0         0         0         0         0         0         0
         0         0         0         0         0         0         0         0
         0         0         0         0         0         0         0         0
         0         0         0         0         0         0         0         0
         0         0         0         0         0         0         0         0
         0         0         0         0         0         0         0         0
         0         0         0         0         0         0         0         0
         0         0         0         0         0         0         0         0
         0         0         0         0         0         0         0         0
         0         0         0         0         0         0         0         0
         0         0         0         0         0         0         0         0
         0         0         0         0         0         0         0         0
         0         0         0         0         0         0         0         0
         0         0         0         0         0         0         0         0
         0         0         0         0         0         0         0         0
         0         0         0         0         0         0         0         0
         0         0         0         0         0         0         0         0
         0         0         0         0         0         0         0         0
         0         0         0         0         0         0         0         0
         0         0         0         0         0         0         0         0
         0         0         0         0         0         0         0         0
         0         0         0         0         0         0         0         0
         0         0         0         0         0         0         0         0
         0         0         0         0         0         0         0         0
         0         0         0         0         0         0         0         0
         0         0         0         0         0         0         0         0
         0         0         0         0         0         0         0         0
         0         0         0         0         0         0         0         0
         0         0         0         0         0         0         0         0
         0         0         0         0         0         0         0         0
         0         0         0         0         0         0         0         0
         0         0         0         0         0         0         0         0
         0         0         0         0         0         0         0         0
         0         0         0         0         0         0         0         0
         0         0         0         0         0         0         0         0
         0         0         0         0         0         0         0         0
         0         0         0         0         0         0         0         0
         0         0         0         0         0         0         0         0
         0         0         0         0         0         0         0         0
         0         0         0         0         0         0         0         0
         0         0         0         0         0         0         0         0
         0         0         0         0         0         0         0         0
         0         0         0         0         0         0         0         0
         0         0         0         0         0         0         0         0
         0         0         0         0         0         0         0         0
         0         0         0         0         0         0         0         0
         0         0         0         0         0         0         0         0
         0         0         0         0         0         0         0         0
         0         0         0         0         0         0         0         0
         0         0         0         0         0         0         0         0
         0         0         0         0         0         0         0         0
         0         0         0         0         0         0         0         0
         0         0         0         0         0         0         0         0
         0         0         0         0         0         0         0         0
         0         0         0         0         0         0         0         0
         0         0         0         0         0         0         0         0
         0         0         0         0         0         0         0         0
         0         0         0         0         0         0         0         0
         0         0         0         0         0         0         0         0
         0         0         0         0         0         0         0         0
         0         0         0         0         0         0         0         0
         0         0         0         0         0         0         0         0
         0         0         0         0         0         0         0         0
         0         0         0         0         0         0         0         0
         0         0         0         0         0         0         0         0
         0         0         0         0         0         0         0         0
         0         0         0         0         0         0         0         0
         0         0         0         0         0         0         0         0
         0         0         0         0         0         0         0         0
         0         0         0         0         0         0         0         0
         0         0         0         0         0         0         0         0
         0         0         0         0         0         0         0         0
         0         0         0         0         0         0         0         0
         0         0         0         0         0         0         0         0
         0         0         0         0         0         0         0         0
         0         0         0         0         0         0         0         0
         0         0         0         0         0         0         0         0
         0         0         0         0         0         0         0         0
         0         0         0         0         0         0         0         0
         0         0         0         0         0         0         0         0
         0         0         0         0         0         0         0         0
         0         0         0         0         0         0         0         0
         0         0         0         0         0         0         0         0
         0         0         0         0         0         0         0         0
         0         0         0         0         0         0         0         0
         0         0         0         0         0         0         0         0
         0         0         0         0         0         0         0         0
         0         0         0         0         0         0         0         0
         0         0         0         0         0         0         0         0
         0         0         0         0         0         0         0         0
         0         0         0         0         0         0         0         0
         0         0         0         0         0         0         0         0
         0         0         0         0         0         0         0         0
         0         0         0         0         0         0         0         0
         0         0         0         0         0         0         0         0
         0         0         0         0         0         0         0         0
         0         0         0         0         0         0         0         0
         0         0         0         0         0         0         0         0
         0         0         0         0         0         0         0         0
         0         0         0         0         0         0         0         0
         0         0         0         0         0         0         0         0
         0         0         0         0         0         0         0         0
         0         0         0         0         0         0         0         0
         0         0         0         0         0         0         0         0
         0         0         0         0         0         0         0         0
         0         0         0         0         0         0         0         0
         0         0         0         0         0         0         0         0
         0         0         0         0         0         0         0         0
         0         0         0         0         0         0         0         0
         0         0         0         0         0         0         0         0
         0         0         0         0         0         0         0         0
         0         0         0         0         0         0         0         0
         0         0         0         0         0         0         0         0
         0         0         0         0         0         0         0         0
         0         0         0         0         0         0         0         0
         0         0         0         0         0         0         0         0
         0         0         0         0         0         0         0         0
         0         0         0         0         0         0         0         0
         0         0         0         0         0         0         0         0
         0         0         0         0         0         0         0         0
         0         0         0         0         0         0         0         0
         0         0         0         0         0         0         0         0
         0         0         0         0         0         0         0         0
         0         0         0         0         0         0         0         0
         0         0         0         0         0         0         0         0
         0         0         0         0         0         0         0         0
         0         0         0         0         0         0         0         0
         0         0         0         0         0         0         0         0
         0         0         0         0         0         0         0         0
         0         0         0         0         0         0         0         0
         0         0         0         0         0         0         0         0
         0         0         0         0         0         0         0         0
         0         0         0         0         0         0         0         0
         0         0         0         0         0         0         0         0
         0         0         0         0         0         0         0         0
         0         0         0         0         0         0         0         0
         0         0         0         0         0         0         0         0
         0         0         0         0         0         0         0         0
         0         0         0         0         0         0         0         0
         0         0         0         0         0         0         0         0
         0         0         0         0         0         0         0         0
         0         0         0         0         0         0         0         0
         0         0         0         0         0         0         0         0
         0         0         0         0         0         0         0         0
         0         0         0         0         0         0         0         0
         0         0         0         0         0         0         0         0
         0         0         0         0         0         0         0         0
         0         0         0         0         0         0         0         0
         0         0         0         0         0         0         0         0
         0         0         0         0         0         0         0         0
         0         0         0         0         0         0         0         0
         0         0         0         0         0         0         0         0
         0         0         0         0         0         0         0         0
         0         0         0         0         0         0         0         0
         0         0         0         0         0         0         0         0
         0         0         0         0         0         0         0         0
         0         0         0         0         0         0         0         0
         0         0         0         0         0         0         0         0
         0         0         0         0         0         0         0         0
         0         0         0         0         0         0         0         0
         0         0         0         0         0         0         0         0
         0         0         0         0         0         0         0         0
         0         0         0         0         0         0         0         0
         0         0         0         0         0         0         0         0
         0         0         0         0         0         0         0         0
         0         0         0         0         0         0         0         0
         0         0         0         0         0         0         0         0
         0         0         0         0         0         0         0         0
         0         0         0         0         0         0         0         0
         0         0         0         0         0         0         0         0
         0         0         0         0         0         0         0         0
         0         0         0         0         0         0         0         0
         0         0         0         0         0         0         0         0
         0         0         0         0         0         0         0         0
         0         0         0         0         0         0         0         0
         0         0         0         0         0         0         0         0
         0         0         0         0         0         0         0         0
         0         0         0         0         0         0         0         0
         0         0         0         0         0         0         0         0
         0         0         0         0         0         0         0         0
         0         0         0         0         0         0         0         0
         0         0         0         0         0         0         0         0
         0         0         0         0         0         0         0         0
         0         0         0         0         0         0         0         0
         0         0         0         0         0         0         0         0
         0         0         0         0         0         0         0         0
         0         0         0         0         0         0         0         0
         0         0         0         0         0         0         0         0
         0         0         0         0         0         0         0         0
         0         0         0         0         0         0         0         0
         0         0         0         0         0         0         0         0
         0         0         0         0         0         0         0         0
         0         0         0         0         0         0         0         0
         0         0         0         0         0         0         0         0
         0         0         0         0         0         0         0         0
         0         0         0         0         0         0         0         0
         0         0         0         0         0         0         0         0
         0         0         0         0         0         0         0         0
         0         0         0         0         0         0         0         0
         0         0         0         0         0         0         0         0
         0         0         0         0         0         0         0         0
         0         0         0         0         0         0         0         0
         0         0         0         0         0         0         0         0
         0         0         0         0         0         0         0         0
         0         0         0         0         0         0         0         0
         0         0         0         0         0         0         0         0
         0         0         0         0         0         0         0         0
         0         0         0         0         0         0         0         0
         0         0         0         0         0         0         0         0
         0         0         0         0         0         0         0         0
         0         0         0         0         0         0         0         0
         0         0         0         0         0         0         0         0
         0         0         0         0         0         0         0         0
         0         0         0         0         0         0         0         0
         0         0         0         0         0         0         0         0
         0         0         0         0         0         0         0         0
         0         0         0         0         0         0         0         0
         0         0         0         0         0         0         0         0
         0         0         0         0         0         0         0         0
         0         0         0         0         0         0         0         0
         0         0         0         0         0         0         0         0
         0         0         0         0         0         0         0         0
         0         0         0         0         0         0         0         0
         0         0         0         0         0         0         0         0
         0         0         0         0         0         0         0         0
         0         0         0         0         0         0         0         0
         0         0         0         0         0         0         0         0
         0         0         0         0         0         0         0         0
         0         0         0         0         0         0         0         0
         0         0         0         0         0         0         0         0
         0         0         0         0         0         0         0         0
         0         0         0         0         0         0         0         0
         0         0         0         0         0         0         0         0
         0         0         0         0         0         0         0         0
         0         0         0         0         0         0         0         0
         0         0         0         0         0         0         0         0
         0         0         0         0         0         0         0         0
         0         0         0         0         0         0         0         0
         0         0         0         0         0         0         0         0
         0         0         0         0         0         0         0         0
         0         0         0         0         0         0         0         0
         0         0         0         0         0         0         0         0
         0         0         0         0         0         0         0         0
         0         0         0         0         0         0         0         0
         0         0         0         0         0         0         0         0
         0         0         0         0         0         0         0         0
         0         0         0         0         0         0         0         0
         0         0         0         0         0         0         0         0
         0         0         0         0         0         0         0         0
         0         0         0         0         0         0         0         0
         0         0         0         0         0         0         0         0
         0         0         0         0         0         0         0         0
         0         0         0         0         0         0         0         0
         0         0         0         0         0         0         0         0
         0         0         0         0         0         0         0         0
         0         0         0         0         0         0         0         0
         0         0         0         0         0         0         0         0
         0         0         0         0         0         0         0         0
         0         0         0         0         0         0         0         0
         0         0         0         0         0         0         0         0
         0         0         0         0         0         0         0         0
         0         0         0         0         0         0         0         0
         0         0         0         0         0         0         0         0
         0         0         0         0         0         0         0         0
         0         0         0         0         0         0         0         0
         0         0         0         0         0         0         0         0
         0         0         0         0         0         0         0         0
         0         0         0         0         0         0         0         0
         0         0         0         0         0         0         0         0
         0         0         0         0         0         0         0         0
         0         0         0         0         0         0         0         0
         0         0         0         0         0         0         0         0
         0         0         0         0         0         0         0         0
         0         0         0         0         0         0         0         0
         0         0         0         0         0         0         0         0
         0         0         0         0         0         0         0         0
         0         0         0         0         0         0         0         0
         0         0         0         0         0         0         0         0
         0         0         0         0         0         0         0         0
         0         0         0         0         0         0         0         0
         0         0         0         0         0         0         0         0
         0         0         0         0         0         0         0         0
         0         0         0         0         0         0         0         0
         0         0         0         0         0         0         0         0
         0         0         0         0         0         0         0         0
         0         0         0         0         0         0         0         0
         0         0         0         0         0         0         0         0
         0         0         0         0         0         0         0         0
         0         0         0         0         0         0         0         0
         0         0         0         0         0         0         0         0
         0         0         0         0         0         0         0         0
         0         0         0         0         0         0         0         0
         0         0         0         0         0         0         0         0
         0         0         0         0         0         0         0         0
         0         0         0         0         0         0         0         0
         0         0         0         0         0         0         0         0
         0         0         0         0         0         0         0         0
         0         0         0         0         0         0         0         0
         0         0         0         0         0         0         0         0
         0         0         0         0         0         0         0         0
         0         0         0         0         0         0         0         0
         0         0         0         0         0         0         0         0
         0         0         0         0         0         0         0         0
         0         0         0         0         0         0         0         0
         0         0         0         0         0         0         0         0
         0         0         0         0         0         0         0         0
         0         0         0         0         0         0         0         0
         0         0         0         0         0         0         0         0
         0         0         0         0         0         0         0         0
         0         0         0         0         0         0         0         0
         0         0         0         0         0         0         0         0
         0         0         0         0         0         0         0         0
         0         0         0         0         0         0         0         0
         0         0         0         0         0         0         0         0
         0         0         0         0         0         0         0         0
         0         0         0         0         0         0         0         0
         0         0         0         0         0         0         0         0
         0         0         0         0         0         0         0         0
         0         0         0         0         0         0         0         0
         0         0         0         0         0         0         0         0
         0         0         0         0         0         0         0         0
         0         0         0         0         0         0         0         0
         0         0         0         0         0         0         0         0
         0         0         0         0         0         0         0         0
         0         0         0         0         0         0         0         0
         0         0         0         0         0         0         0         0
         0         0         0         0         0         0         0         0
         0         0         0         0         0         0         0         0
         0         0         0         0         0         0         0         0
         0         0         0         0         0         0         0         0
         0         0         0         0         0         0         0         0
         0         0         0         0         0         0         0         0
         0         0         0         0         0         0         0         0
         0         0         0         0         0         0         0         0
         0         0         0         0         0         0         0         0
         0         0         0         0         0         0         0         0
         0         0         0         0         0         0         0         0
         0         0         0         0         0         0         0         0
         0         0         0         0         0         0         0         0
         0         0         0         0         0         0         0         0
         0         0         0         0         0         0         0         0
         0         0         0         0         0         0         0         0
         0         0         0         0         0         0         0         0
         0         0         0         0         0         0         0         0
         0         0         0         0         0         0         0         0
         0         0         0         0         0         0         0         0
         0         0         0         0         0         0         0         0
         0         0         0         0         0         0         0         0
         0         0         0         0         0         0         0         0
         0         0         0         0         0         0         0         0
         0         0         0         0         0         0         0         0
         0         0         0         0         0         0         0         0
         0         0         0         0         0         0         0         0
         0         0         0         0         0         0         0         0
         0         0         0         0         0         0         0         0
         0         0         0         0         0         0         0         0
         0         0         0         0         0         0         0         0
         0         0         0         0         0         0         0         0
         0         0         0         0         0         0         0         0
         0         0         0         0         0         0         0         0
         0         0         0         0         0         0         0         0
         0         0         0         0         0         0         0         0
         0         0         0         0         0         0         0         0
         0         0         0         0         0         0         0         0
         0         0         0         0         0         0         0         0
         0         0         0         0         0         0         0         0
         0         0         0         0         0         0         0         0
         0         0         0         0         0         0         0         0
         0         0         0         0         0         0         0         0
         0         0         0         0         0         0         0         0
         0         0         0         0         0         0         0         0
         0         0         0         0         0         0         0         0
         0         0         0         0         0         0         0         0
         0         0         0         0         0         0         0         0
         0         0         0         0         0         0         0         0
         0         0         0         0         0         0         0         0
         0         0         0         0         0         0         0         0
         0         0         0         0         0         0         0         0
         0         0         0         0         0         0         0         0
         0         0         0         0         0         0         0         0
         0         0         0         0         0         0         0         0
         0         0         0         0         0         0         0         0
         0         0         0         0         0         0         0         0
         0         0         0         0         0         0         0         0
         0         0         0         0         0         0         0         0
         0         0         0         0         0         0         0         0
         0         0         0         0         0         0         0         0
         0         0         0         0         0         0         0         0
         0         0         0         0         0         0         0         0
         0         0         0         0         0         0         0         0
         0         0         0         0         0         0         0         0
         0         0         0         0         0         0         0         0
         0         0         0         0         0         0         0         0
         0         0         0         0         0         0         0         0
         0         0         0         0         0         0         0         0
         0         0         0         0         0         0         0         0
         0         0         0         0         0         0         0         0
         0         0         0         0         0         0         0         0
         0         0         0         0         0         0         0         0
         0         0         0         0         0         0         0         0
         0         0         0         0         0         0         0         0
         0         0         0         0         0         0         0         0
         0         0         0         0         0         0         0         0
         0         0         0         0         0         0         0         0
         0         0         0         0         0         0         0         0
         0         0         0         0         0         0         0         0
         0         0         0         0         0         0         0         0
         0         0         0         0         0         0         0         0
         0         0         0         0         0         0         0         0
         0         0         0         0         0         0         0         0
         0         0         0         0         0         0         0         0
         0         0         0         0         0         0         0         0
         0         0         0         0         0         0         0         0
         0         0         0         0         0         0         0         0
         0         0         0         0         0         0         0         0
         0         0         0         0         0         0         0         0
         0         0         0         0         0         0         0         0
         0         0         0         0         0         0         0         0
         0         0         0         0         0         0         0         0
         0         0         0         0         0         0         0         0
         0         0         0         0         0         0         0         0
         0         0         0         0         0         0         0         0
         0         0         0         0         0         0         0         0
         0         0         0         0         0         0         0         0
         0         0         0         0         0         0         0         0
         0         0         0         0         0         0         0         0
         0         0         0         0         0         0         0         0
         0         0         0         0         0         0         0         0
         0         0         0         0         0         0         0         0
         0         0         0         0         0         0         0         0
         0         0         0         0         0         0         0         0
         0         0         0         0         0         0         0         0
         0         0         0         0         0         0         0         0
         0         0         0         0         0         0         0         0
         0         0         0         0         0         0         0         0
         0         0         0         0         0         0         0         0
         0         0         0         0         0         0         0         0
         0         0         0         0         0         0         0         0
         0         0         0         0         0         0         0         0
         0         0         0         0         0         0         0         0
         0         0         0         0         0         0         0         0
         0         0         0         0         0         0         0         0
         0         0         0         0         0         0         0         0
         0         0         0         0         0         0         0         0
         0         0         0         0         0         0         0         0
         0         0         0         0         0         0         0         0
         0         0         0         0         0         0         0         0
         0         0         0         0         0         0         0         0
         0         0         0         0         0         0         0         0
         0         0         0         0         0         0         0         0
         0         0         0         0         0         0         0         0
         0         0         0         0         0         0         0         0
         0         0         0         0         0         0         0         0
         0         0         0         0         0         0         0         0
         0         0         0         0         0         0         0         0
         0         0         0         0         0         0         0         0
         0         0         0         0         0         0         0         0
         0         0         0         0         0         0         0         0
         0         0         0         0         0         0         0         0
         0         0         0         0         0         0         0         0
         0         0         0         0         0         0         0         0
         0         0         0         0         0         0         0         0
         0         0         0         0         0         0         0         0
         0         0         0         0         0         0         0         0
         0         0         0         0         0         0         0         0
         0         0         0         0         0         0         0         0
         0         0         0         0         0         0         0         0
         0         0         0         0         0         0         0         0
         0         0         0         0         0         0         0         0
         0         0         0         0         0         0         0         0
         0         0         0         0         0         0         0         0
         0         0         0         0         0         0         0         0
         0         0         0         0         0         0         0         0
         0         0         0         0         0         0         0         0
         0         0         0         0         0         0         0         0
         0         0         0         0         0         0         0         0
         0         0         0         0         0         0         0         0
         0         0         0         0         0         0         0         0
         0         0         0         0         0         0         0         0
         0         0         0         0         0         0         0         0
         0         0         0         0         0         0         0         0
         0         0         0         0         0         0         0         0
         0         0         0         0         0         0         0         0
         0         0         0         0         0         0         0         0
         0         0         0         0         0         0         0         0
         0         0         0         0         0         0         0         0
         0         0         0         0         0         0         0         0
         0         0         0         0         0         0         0         0
         0         0         0         0         0         0         0         0
         0         0         0         0         0         0         0         0
         0         0         0         0         0         0         0         0
         0         0         0         0         0         0         0         0
         0         0         0         0         0         0         0         0
         0         0         0         0         0         0         0         0
         0         0         0         0         0         0         0         0
         0         0         0         0         0         0         0         0
         0         0         0         0         0         0         0         0
         0         0         0         0         0         0         0         0
         0         0         0         0         0         0         0         0
         0         0         0         0         0         0         0         0
         0         0         0         0         0         0         0         0
         0         0         0         0         0         0         0         0
         0         0         0         0         0         0         0         0
         0         0         0         0         0         0         0         0
         0         0         0         0         0         0         0         0
         0         0         0         0         0         0         0         0
         0         0         0         0         0         0         0         0
         0         0         0         0         0         0         0         0
         0         0         0         0         0         0         0         0
         0         0         0         0         0         0         0         0
         0         0         0         0         0         0         0         0
         0         0         0         0         0         0         0         0
         0         0         0         0         0         0         0         0
         0         0         0         0         0         0         0         0
         0         0         0         0         0         0         0         0
         0         0         0         0         0         0         0         0
         0         0         0         0         0         0         0         0
         0         0         0         0         0         0         0         0
         0         0         0         0         0         0         0         0
         0         0         0         0         0         0         0         0
         0         0         0         0         0         0         0         0
         0         0         0         0         0         0         0         0
         0         0         0         0         0         0         0         0
         0         0         0         0         0         0         0         0
         0         0         0         0         0         0         0         0
         0         0         0         0         0         0         0         0
         0         0         0         0         0         0         0         0
         0         0         0         0         0         0         0         0
         0         0         0         0         0         0         0         0
         0         0         0         0         0         0         0         0
         0         0         0         0         0         0         0         0
         0         0         0         0         0         0         0         0
         0         0         0         0         0         0         0         0
         0         0         0         0         0         0         0         0
         0         0         0         0         0         0         0         0
         0         0         0         0         0         0         0         0
         0         0         0         0         0         0         0         0
         0         0         0         0         0         0         0         0
         0         0         0         0         0         0         0         0
         0         0         0         0         0         0         0         0
         0         0         0         0         0         0         0         0
         0         0         0         0         0         0         0         0
         0         0         0         0         0         0         0         0
         0         0         0         0         0         0         0         0
         0         0         0         0         0         0         0         0
         0         0         0         0         0         0         0         0
         0         0         0         0         0         0         0         0
         0         0         0         0         0         0         0         0
         0         0         0         0         0         0         0         0
         0         0         0         0         0         0         0         0
         0         0         0         0         0         0         0         0
         0         0         0         0         0         0         0         0
         0         0         0         0         0         0         0         0
         0         0         0         0         0         0         0         0
         0         0         0         0         0         0         0         0
         0         0         0         0         0         0         0         0
         0         0         0         0         0         0         0         0
         0         0         0         0         0         0         0         0
         0         0         0         0         0         0         0         0
         0         0         0         0         0         0         0         0
         0         0         0         0         0         0         0         0
         0         0         0         0         0         0         0         0
         0         0         0         0         0         0         0         0
         0         0         0         0         0         0         0         0
         0         0         0         0         0         0         0         0
         0         0         0         0         0         0         0         0
         0         0         0         0         0         0         0         0
         0         0         0         0         0         0         0         0
         0         0         0         0         0         0         0         0
         0         0         0         0         0         0         0         0
         0         0         0         0         0         0         0         0
         0         0         0         0         0         0         0         0
         0         0         0         0         0         0         0         0
         0         0         0         0         0         0         0         0
         0         0         0         0         0         0         0         0
         0         0         0         0         0         0         0         0
         0         0         0         0         0         0         0         0
         0         0         0         0         0         0         0         0
         0         0         0         0         0         0         0         0
         0         0         0         0         0         0         0         0
         0         0         0         0         0         0         0         0
         0         0         0         0         0         0         0         0
         0         0         0         0         0         0         0         0
         0         0         0         0         0         0         0         0
         0         0         0         0         0         0         0         0
         0         0         0         0         0         0         0         0
         0         0         0         0         0         0         0         0
         0         0         0         0         0         0         0         0
         0         0         0         0         0         0         0         0
         0         0         0         0         0         0         0         0
         0         0         0         0         0         0         0         0
         0         0         0         0         0         0         0         0
         0         0         0         0         0         0         0         0
         0         0         0         0         0         0         0         0
         0         0         0         0         0         0         0         0
         0         0         0         0         0         0         0         0
         0         0         0         0         0         0         0         0
         0         0         0         0         0         0         0         0
         0         0         0         0         0         0         0         0
         0         0         0         0         0         0         0         0
         0         0         0         0         0         0         0         0
         0         0         0         0         0         0         0         0
         0         0         0         0         0         0         0         0
         0         0         0         0         0         0         0         0
         0         0         0         0         0         0         0         0
         0         0         0         0         0         0         0         0
         0         0         0         0         0         0         0         0
         0         0         0         0         0         0         0         0
         0         0         0         0         0         0         0         0
         0         0         0         0         0         0         0         0
         0         0         0         0         0         0         0         0
         0         0         0         0         0         0         0         0
         0         0         0         0         0         0         0         0
         0         0         0         0         0         0         0         0
         0         0         0         0         0         0         0         0
         0         0         0         0         0         0         0         0
         0         0         0         0         0         0         0         0
         0         0         0         0         0         0         0         0
         0         0         0         0         0         0         0         0
         0         0         0         0         0         0         0         0
         0         0         0         0         0         0         0         0
         0         0         0         0         0         0         0         0
         0         0         0         0         0         0         0         0
         0         0         0         0         0         0         0         0
         0         0         0         0         0         0         0         0
         0         0         0         0         0         0         0         0
         0         0         0         0         0         0         0         0
         0         0         0         0         0         0         0         0
         0         0         0         0         0         0         0         0
         0         0         0         0         0         0         0         0
         0         0         0         0         0         0         0         0
         0         0         0         0         0         0         0         0
         0         0         0         0         0         0         0         0
         0         0         0         0         0         0         0         0
         0         0         0         0         0         0         0         0
         0         0         0         0         0         0         0         0
         0         0         0         0         0         0         0         0
         0         0         0         0         0         0         0         0
         0         0         0         0         0         0         0         0
         0         0         0         0         0         0         0         0
         0         0         0         0         0         0         0         0
         0         0         0         0         0         0         0         0
         0         0         0         0         0         0         0         0
         0         0         0         0         0         0         0         0
         0         0         0         0         0         0         0         0
         0         0         0         0         0         0         0         0
         0         0         0         0         0         0         0         0
         0         0         0         0         0         0         0         0
         0         0         0         0         0         0         0         0
         0         0         0         0         0         0         0         0
         0         0         0         0         0         0         0         0
         0         0         0         0         0         0         0         0
         0         0         0         0         0         0         0         0
         0         0         0         0         0         0         0         0
         0         0         0         0         0         0         0         0
         0         0         0         0         0         0         0         0
         0         0         0         0         0         0         0         0
         0         0         0         0         0         0         0         0
         0         0         0         0         0         0         0         0
         0         0         0         0         0         0         0         0
         0         0         0         0         0         0         0         0
         0         0         0         0         0         0         0         0
         0         0         0         0         0         0         0         0
         0         0         0         0         0         0         0         0
         0         0         0         0         0         0         0         0
         0         0         0         0         0         0         0         0
         0         0         0         0         0         0         0         0
         0         0         0         0         0         0         0         0
         0         0         0         0         0         0         0         0
         0         0         0         0         0         0         0         0
         0         0         0         0         0         0         0         0
         0         0         0         0         0         0         0         0
         0         0         0         0         0         0         0         0
         0         0         0         0         0         0         0         0
         0         0         0         0         0         0         0         0
         0         0         0         0         0         0         0         0
         0         0         0         0         0         0         0         0
         0         0         0         0         0         0         0         0
         0         0         0         0         0         0         0         0
         0         0         0         0         0         0         0         0
         0         0         0         0         0         0         0         0
         0         0         0         0         0         0         0         0
         0         0         0         0         0         0         0         0
         0         0         0         0         0         0         0         0
         0         0         0         0         0         0         0         0
         0         0         0         0         0         0         0         0
         0         0         0         0         0         0         0         0
         0         0         0         0         0         0         0         0
         0         0         0         0         0         0         0         0
         0         0         0         0         0         0         0         0
         0         0         0         0         0         0         0         0
         0         0         0         0         0         0         0         0
         0         0         0         0         0         0         0         0
         0         0         0         0         0         0         0         0
         0         0         0         0         0         0         0         0
         0         0         0         0         0         0         0         0
         0         0         0         0         0         0         0         0
         0         0         0         0         0         0         0         0
         0         0         0         0         0         0         0         0
         0         0         0         0         0         0         0         0
         0         0         0         0         0         0         0         0
         0         0         0         0         0         0         0         0
         0         0         0         0         0         0         0         0
         0         0         0         0         0         0         0         0
         0         0         0         0         0         0         0         0
         0         0         0         0         0         0         0         0
         0         0         0         0         0         0         0         0
         0         0         0         0         0         0         0         0
         0         0         0         0         0         0         0         0
         0         0         0         0         0         0         0         0
         0         0         0         0         0         0         0         0
         0         0         0         0         0         0         0         0
         0         0         0         0         0         0         0         0
         0         0         0         0         0         0         0         0
         0         0         0         0         0         0         0         0
         0         0         0         0         0         0         0         0
         0         0         0         0         0         0         0         0
         0         0         0         0         0         0         0         0
         0         0         0         0         0         0         0         0
         0         0         0         0         0         0         0         0
         0         0         0         0         0         0         0         0
         0         0         0         0         0         0         0         0
         0         0         0         0         0         0         0         0
         0         0         0         0         0         0         0         0
         0         0         0         0         0         0         0         0
         0         0         0         0         0         0         0         0
         0         0         0         0         0         0         0         0
         0         0         0         0         0         0         0         0
         0         0         0         0         0         0         0         0
         0         0         0         0         0         0         0         0
         0         0         0         0         0         0         0         0
         0         0         0         0         0         0         0         0
         0         0         0         0         0         0         0         0
         0         0         0         0         0         0         0         0
         0         0         0         0         0         0         0         0
         0         0         0         0         0         0         0         0
         0         0         0         0         0         0         0         0
         0         0         0         0         0         0         0         0
         0         0         0         0         0         0         0         0
         0         0         0         0         0         0         0         0
         0         0         0         0         0         0         0         0
         0         0         0         0         0         0         0         0
         0         0         0         0         0         0         0         0
         0         0         0         0         0         0         0         0
         0         0         0         0         0         0         0         0
         0         0         0         0         0         0         0         0
         0         0         0         0         0         0         0         0
         0         0         0         0         0         0         0         0
         0         0         0         0         0         0         0         0
         0         0         0         0         0         0         0         0
         0         0         0         0         0         0         0         0
         0         0         0         0         0         0         0         0
         0         0         0         0         0         0         0         0
         0         0         0         0         0         0         0         0
         0         0         0         0         0         0         0         0
         0         0         0         0         0         0         0         0
         0         0         0         0         0         0         0         0
         0         0         0         0         0         0         0         0
         0         0         0         0         0         0         0         0
         0         0         0         0         0         0         0         0
         0         0         0         0         0         0         0         0
         0         0         0         0         0         0         0         0
         0         0         0         0         0         0         0         0
         0         0         0         0         0         0         0         0
         0         0         0         0         0         0         0         0
         0         0         0         0         0         0         0         0
         0         0         0         0         0         0         0         0
         0         0         0         0         0         0         0         0
         0         0         0         0         0         0         0         0
         0         0         0         0         0         0         0         0
         0         0         0         0         0         0         0         0
         0         0         0         0         0         0         0         0
         0         0         0         0         0         0         0         0
         0         0         0         0         0         0         0         0
         0         0         0         0         0         0         0         0
         0         0         0         0         0         0         0         0
         0         0         0         0         0         0         0         0
         0         0         0         0         0         0         0         0
         0         0         0         0         0         0         0         0
         0         0         0         0         0         0         0         0
         0         0         0         0         0         0         0         0
         0         0         0         0         0         0         0         0
         0         0         0         0         0         0         0         0
         0         0         0         0         0         0         0         0
         0         0         0         0         0         0         0         0
         0         0         0         0         0         0         0         0
         0         0         0         0         0         0         0         0
         0         0         0         0         0         0         0         0
         0         0         0         0         0         0         0         0
         0         0         0         0         0         0         0         0
         0         0         0         0         0         0         0         0
         0         0         0         0         0         0         0         0
         0         0         0         0         0         0         0         0
         0         0         0         0         0         0         0         0
         0         0         0         0         0         0         0         0
         0         0         0         0         0         0         0         0
         0         0         0         0         0         0         0         0
         0         0         0         0         0         0         0         0
         0         0         0         0         0         0         0         0
         0         0         0         0         0         0         0         0
         0         0         0         0         0         0         0         0
         0         0         0         0         0         0         0         0
         0         0         0         0         0         0         0         0
         0         0         0         0         0         0         0         0
         0         0         0         0         0         0         0         0
         0         0         0         0         0         0         0         0
         0         0         0         0         0         0         0         0
         0         0         0         0         0         0         0         0
         0         0         0         0         0         0         0         0
         0         0         0         0         0         0         0         0
         0         0         0         0         0         0         0         0
         0         0         0         0         0         0         0         0
         0         0         0         0         0         0         0         0
         0         0         0         0         0         0         0         0
         0         0         0         0         0         0         0         0
         0         0         0         0         0         0         0         0
         0         0         0         0         0         0         0         0
         0         0         0         0         0         0         0         0
         0         0         0         0         0         0         0         0
         0         0         0         0         0         0         0         0
         0         0         0         0         0         0         0         0
         0         0         0         0         0         0         0         0
         0         0         0         0         0         0         0         0
         0         0         0         0         0         0         0         0
         0         0         0         0         0         0         0         0
         0         0         0         0         0         0         0         0
         0         0         0         0         0         0         0         0
         0         0         0         0         0         0         0         0
         0         0         0         0         0         0         0         0
         0         0         0         0         0         0         0         0
         0         0         0         0         0         0         0         0
         0         0         0         0         0         0         0         0
         0         0         0         0         0         0         0         0
         0         0         0         0         0         0         0         0
         0         0         0         0         0         0         0         0
         0         0         0         0         0         0         0         0
         0         0         0         0         0         0         0         0
         0         0         0         0         0         0         0         0
         0         0         0         0         0         0         0         0
         0         0         0         0         0         0         0         0
         0         0         0         0         0         0         0         0
         0         0         0         0         0         0         0         0
         0         0         0         0         0         0         0         0
         0         0         0         0         0         0         0         0
         0         0         0         0         0         0         0         0
         0         0         0         0         0         0         0         0
         0         0         0         0         0         0         0         0
         0         0         0         0         0         0         0         0
         0         0         0         0         0         0         0         0
         0         0         0         0         0         0         0         0
         0         0         0         0         0         0         0         0
         0         0         0         0         0         0         0         0
         0         0         0         0         0         0         0         0
         0         0         0         0         0         0         0         0
         0         0         0         0         0         0         0         0
         0         0         0         0         0         0         0         0
         0         0         0         0         0         0         0         0
         0         0         0         0         0         0         0         0
         0         0         0         0         0         0         0         0
         0         0         0         0         0         0         0         0
         0         0         0         0         0         0         0         0
         0         0         0         0         0         0         0         0
         0         0         0         0         0         0         0         0
         0         0         0         0         0         0         0         0
         0         0         0         0         0         0         0         0
         0         0         0         0         0         0         0         0
         0         0         0         0         0         0         0         0
         0         0         0         0         0         0         0         0
         0         0         0         0         0         0         0         0
         0         0         0         0         0         0         0         0
         0         0         0         0         0         0         0         0
         0         0         0         0         0         0         0         0
         0         0         0         0         0         0         0         0
         0         0         0         0         0         0         0         0
         0         0         0         0         0         0         0         0
         0         0         0         0         0         0         0         0
         0         0         0         0         0         0         0         0
         0         0         0         0         0         0         0         0
         0         0         0         0         0         0         0         0
         0         0         0         0         0         0         0         0
         0         0         0         0         0         0         0         0
         0         0         0         0         0         0         0         0
         0         0         0         0         0         0         0         0
         0         0         0         0         0         0         0         0
         0         0         0         0         0         0         0         0
         0         0         0         0         0         0         0         0
         0         0         0         0         0         0         0         0
         0         0         0         0         0         0         0         0
         0         0         0         0         0         0         0         0
         0         0         0         0         0         0         0         0
         0         0         0         0         0         0         0         0
         0         0         0         0         0         0         0         0
         0         0         0         0         0         0         0         0
         0         0         0         0         0         0         0         0
         0         0         0         0         0         0         0         0
         0         0         0         0         0         0         0         0
         0         0         0         0         0         0         0         0
         0         0         0         0         0         0         0         0
         0         0         0         0         0         0         0         0
         0         0         0         0         0         0         0         0
         0         0         0         0         0         0         0         0
         0         0         0         0         0         0         0         0
         0         0         0         0         0         0         0         0
         0         0         0         0         0         0         0         0
         0         0         0         0         0         0         0         0
         0         0         0         0         0         0         0         0
         0         0         0         0         0         0         0         0
         0         0         0         0         0         0         0         0
         0         0         0         0         0         0         0         0
         0         0         0         0         0         0         0         0
         0         0         0         0         0         0         0         0
         0         0         0         0         0         0         0         0
         0         0         0         0         0         0         0         0
         0         0         0         0         0         0         0         0
         0         0         0         0         0         0         0         0
         0         0         0         0         0         0         0         0
         0         0         0         0         0         0         0         0
         0         0         0         0         0         0         0         0
         0         0         0         0         0         0         0         0
         0         0         0         0         0         0         0         0
         0         0         0         0         0         0         0         0
         0         0         0         0         0         0         0         0
         0         0         0         0         0         0         0         0
         0         0         0         0         0         0         0         0
         0         0         0         0         0         0         0         0
         0         0         0         0         0         0         0         0
         0         0         0         0         0         0         0         0
         0         0         0         0         0         0         0         0
         0         0         0         0         0         0         0         0
         0         0         0         0         0         0         0         0
         0         0         0         0         0         0         0         0
         0         0         0         0         0         0         0         0
         0         0         0         0         0         0         0         0
         0         0         0         0         0         0         0         0
         0         0         0         0         0         0         0         0
         0         0         0         0         0         0         0         0
         0         0         0         0         0         0         0         0
         0         0         0         0         0         0         0         0
         0         0         0         0         0         0         0         0
         0         0         0         0         0         0         0         0
         0         0         0         0         0         0         0         0
         0         0         0         0         0         0         0         0
         0         0         0         0         0         0         0         0
         0         0         0         0         0         0         0         0
         0         0         0         0         0         0         0         0
         0         0         0         0         0         0         0         0
         0         0         0         0         0         0         0         0
         0         0         0         0         0         0         0         0
         0         0         0         0         0         0         0         0
         0         0         0         0         0         0         0         0
         0         0         0         0         0         0         0         0
         0         0         0         0         0         0         0         0
         0         0         0         0         0         0         0         0
         0         0         0         0         0         0         0         0
         0         0         0         0         0         0         0         0
         0         0         0         0         0         0         0         0
         0         0         0         0         0         0         0         0
         0         0         0         0         0         0         0         0
         0         0         0         0         0         0         0         0
         0         0         0         0         0         0         0         0
         0         0         0         0         0         0         0         0
         0         0         0         0         0         0         0         0
         0         0         0         0         0         0         0         0
         0         0         0         0         0         0         0         0
         0         0         0         0         0         0         0         0
         0         0         0         0         0         0         0         0
         0         0         0         0         0         0         0         0
         0         0         0         0         0         0         0         0
         0         0         0         0         0         0         0         0
         0         0         0         0         0         0         0         0
         0         0         0         0         0         0         0         0
         0         0         0         0         0         0         0         0
         0         0         0         0         0         0         0         0
         0         0         0         0         0         0         0         0
         0         0         0         0         0         0         0         0
         0         0         0         0         0         0         0         0
         0         0         0         0         0         0         0         0
         0         0         0         0         0         0         0         0
         0         0         0         0         0         0         0         0
         0         0         0         0         0         0         0         0
         0         0         0         0         0         0         0         0
         0         0         0         0         0         0         0         0
         0         0         0         0         0         0         0         0
         0         0         0         0         0         0         0         0
         0         0         0         0         0         0         0         0
         0         0         0         0         0         0         0         0
         0         0         0         0         0         0         0         0
         0         0         0         0         0         0         0         0
         0         0         0         0         0         0         0         0
         0         0         0         0         0         0         0         0
         0         0         0         0         0         0         0         0
         0         0         0         0         0         0         0         0
         0         0         0         0         0         0         0         0
         0         0         0         0         0         0         0         0
         0         0         0         0         0         0         0         0
         0         0         0         0         0         0         0         0
         0         0         0         0         0         0         0         0
         0         0         0         0         0         0         0         0
         0         0         0         0         0         0         0         0
         0         0         0         0         0         0         0         0
         0         0         0         0         0         0         0         0
         0         0         0         0         0         0         0         0
         0         0         0         0         0         0         0         0
         0         0         0         0         0         0         0         0
         0         0         0         0         0         0         0         0
         0         0         0         0         0         0         0         0
         0         0         0         0         0         0         0         0
         0         0         0         0         0         0         0         0
         0         0         0         0         0         0         0         0
         0         0         0         0         0         0         0         0
         0         0         0         0         0         0         0         0
         0         0         0         0         0         0         0         0
         0         0         0         0         0         0         0         0
         0         0         0         0         0         0         0         0
         0         0         0         0         0         0         0         0
         0         0         0         0         0         0         0         0
         0         0         0         0         0         0         0         0
         0         0         0         0         0         0         0         0
         0         0         0         0         0         0         0         0
         0         0         0         0         0         0         0         0
         0         0         0         0         0         0         0         0
         0         0         0         0         0         0         0         0
         0         0         0         0         0         0         0         0
         0         0         0         0         0         0         0         0
         0         0         0         0         0         0         0         0
         0         0         0         0         0         0         0         0
         0         0         0         0         0         0         0         0
         0         0         0         0         0         0         0         0
         0         0         0         0         0         0         0         0
         0         0         0         0         0         0         0         0
         0         0         0         0         0         0         0         0
         0         0         0         0         0         0         0         0
         0         0         0         0         0         0         0         0
         0         0         0         0         0         0         0         0
         0         0         0         0         0         0         0         0
         0         0         0         0         0         0         0         0
         0         0         0         0         0         0         0         0
         0         0         0         0         0         0         0         0
         0         0         0         0         0         0         0         0
         0         0         0         0         0         0         0         0
         0         0         0         0         0         0         0         0
         0         0         0         0         0         0         0         0
         0         0         0         0         0         0         0         0
         0         0         0         0         0         0         0         0
         0         0         0         0         0         0         0         0
         0         0         0         0         0         0         0         0
         0         0         0         0         0         0         0         0
         0         0         0         0         0         0         0         0
         0         0         0         0         0         0         0         0
         0         0         0         0         0         0         0         0
         0         0         0         0         0         0         0         0
         0         0         0         0         0         0         0         0
         0         0         0         0         0         0         0         0
         0         0         0         0         0         0         0         0
         0         0         0         0         0         0         0         0
         0         0         0         0         0         0         0         0
         0         0         0         0         0         0         0         0
         0         0         0         0         0         0         0         0
         0         0         0         0         0         0         0         0
         0         0         0         0         0         0         0         0
         0         0         0         0         0         0         0         0
         0         0         0         0         0         0         0         0
         0         0         0         0         0         0         0         0
         0         0         0         0         0         0         0         0
         0         0         0         0         0         0         0         0
         0         0         0         0         0         0         0         0
         0         0         0         0         0         0         0         0
         0         0         0         0         0         0         0         0
         0         0         0         0         0         0         0         0
         0         0         0         0         0         0         0         0
         0         0         0         0         0         0         0         0
         0         0         0         0         0         0         0         0
         0         0         0         0         0         0         0         0
         0         0         0         0         0         0         0         0
         0         0         0         0         0         0         0         0
         0         0         0         0         0         0         0         0
         0         0         0         0         0         0         0         0
         0         0         0         0         0         0         0         0
         0         0         0         0         0         0         0         0
         0         0         0         0         0         0         0         0
         0         0         0         0         0         0         0         0
         0         0         0         0         0         0         0         0
         0         0         0         0         0         0         0         0
         0         0         0         0         0         0         0         0
         0         0         0         0         0         0         0         0
         0         0         0         0         0         0         0         0
         0         0         0         0         0         0         0         0
         0         0         0         0         0         0         0         0
         0         0         0         0         0         0         0         0
         0         0         0         0         0         0         0         0
         0         0         0         0         0         0         0         0
         0         0         0         0         0         0         0         0
         0         0         0         0         0         0         0         0
         0         0         0         0         0         0         0         0
         0         0         0         0         0         0         0         0
         0         0         0         0         0         0         0         0
         0         0         0         0         0         0         0         0
         0         0         0         0         0         0         0         0
         0         0         0         0         0         0         0         0
         0         0         0         0         0         0         0         0
         0         0         0         0         0         0         0         0
         0         0         0         0         0         0         0         0
         0         0         0         0         0         0         0         0
         0         0         0         0         0         0         0         0
         0         0         0         0         0         0         0         0
         0         0         0         0         0         0         0         0
         0         0         0         0         0         0         0         0
         0         0         0         0         0         0         0         0
         0         0         0         0         0         0         0         0
         0         0         0         0         0         0         0         0
         0         0         0         0         0         0         0         0
         0         0         0         0         0         0         0         0
         0         0         0         0         0         0         0         0
         0         0         0         0         0         0         0         0
         0         0         0         0         0         0         0         0
         0         0         0         0         0         0         0         0
         0         0         0         0         0         0         0         0
         0         0         0         0         0         0         0         0
         0         0         0         0         0         0         0         0
         0         0         0         0         0         0         0         0
         0         0         0         0         0         0         0         0
         0         0         0         0         0         0         0         0
         0         0         0         0         0         0         0         0
         0         0         0         0         0         0         0         0
         0         0         0         0         0         0         0         0
         0         0         0         0         0         0         0         0
         0         0         0         0         0         0         0         0
         0         0         0         0         0         0         0         0
         0         0         0         0         0         0         0         0
         0         0         0         0         0         0         0         0
         0         0         0         0         0         0         0         0
         0         0         0         0         0         0         0         0
         0         0         0         0         0         0         0         0
         0         0         0         0         0         0         0         0
         0         0         0         0         0         0         0         0
         0         0         0         0         0         0         0         0
         0         0         0         0         0         0         0         0
         0         0         0         0         0         0         0         0
         0         0         0         0         0         0         0         0
         0         0         0         0         0         0         0         0
         0         0         0         0         0         0         0         0
         0         0         0         0         0         0         0         0
         0         0         0         0         0         0         0         0
         0         0         0         0         0         0         0         0
         0         0         0         0         0         0         0         0
         0         0         0         0         0         0         0         0
         0         0         0         0         0         0         0         0
         0         0         0         0         0         0         0         0
         0         0         0         0         0         0         0         0
         0         0         0         0         0         0         0         0
         0         0         0         0         0         0         0         0
         0         0         0         0         0         0         0         0
         0         0         0         0         0         0         0         0
         0         0         0         0         0         0         0         0
         0         0         0         0         0         0         0         0
         0         0         0         0         0         0         0         0
         0         0         0         0         0         0         0         0
         0         0         0         0         0         0         0         0
         0         0         0         0         0         0         0         0
         0         0         0         0         0         0         0         0
         0         0         0         0         0         0         0         0
         0         0         0         0         0         0         0         0
         0         0         0         0         0         0         0         0
         0         0         0         0         0         0         0         0
         0         0         0         0         0         0         0         0
         0         0         0         0         0         0         0         0
         0         0         0         0         0         0         0         0
         0         0         0         0         0         0         0         0
         0         0         0         0         0         0         0         0
         0         0         0         0         0         0         0         0
         0         0         0         0         0         0         0         0
         0         0         0         0         0         0         0         0
         0         0         0         0         0         0         0         0
         0         0         0         0         0         0         0         0
         0         0         0         0         0         0         0         0
         0         0         0         0         0         0         0         0
         0         0         0         0         0         0         0         0
         0         0         0         0         0         0         0         0
         0         0         0         0         0         0         0         0
         0         0         0         0         0         0         0         0
         0         0         0         0         0         0         0         0
         0         0         0         0         0         0         0         0
         0         0         0         0         0         0         0         0
         0         0         0         0         0         0         0         0
         0         0         0         0         0         0         0         0
         0         0         0         0         0         0         0         0
         0         0         0         0         0         0         0         0
         0         0         0         0         0         0         0         0
         0         0         0         0         0         0         0         0
         0         0         0         0         0         0         0         0
         0         0         0         0         0         0         0         0
         0         0         0         0         0         0         0         0
         0         0         0         0         0         0         0         0
         0         0         0         0         0         0         0         0
         0         0         0         0         0         0         0         0
         0         0         0         0         0         0         0         0
         0         0         0         0         0         0         0         0
         0         0         0         0         0         0         0         0
         0         0         0         0         0         0         0         0
         0         0         0         0         0         0         0         0
         0         0         0         0         0         0         0         0
         0         0         0         0         0         0         0         0
         0         0         0         0         0         0         0         0
         0         0         0         0         0         0         0         0
         0         0         0         0         0         0         0         0
         0         0         0         0         0         0         0         0
         0         0         0         0         0         0         0         0
         0         0         0         0         0         0         0         0
         0         0         0         0         0         0         0         0
         0         0         0         0         0         0         0         0
         0         0         0         0         0         0         0         0
         0         0         0         0         0         0         0         0
         0         0         0         0         0         0         0         0
         0         0         0         0         0         0         0         0
         0         0         0         0         0         0         0         0
         0         0         0         0         0         0         0         0
         0         0         0         0         0         0         0         0
         0         0         0         0         0         0         0         0
         0         0         0         0         0         0         0         0
         0         0         0         0         0         0         0         0
         0         0         0         0         0         0         0         0
         0         0         0         0         0         0         0         0
         0         0         0         0         0         0         0         0
         0         0         0         0         0         0         0         0
         0         0         0         0         0         0         0         0
         0         0         0         0         0         0         0         0
         0         0         0         0         0         0         0         0
         0         0         0         0         0         0         0         0
         0         0         0         0         0         0         0         0
         0         0         0         0         0         0         0         0
         0         0         0         0         0         0         0         0
         0         0         0         0         0         0         0         0
         0         0         0         0         0         0         0         0
         0         0         0         0         0         0         0         0
         0         0         0         0         0         0         0         0
         0         0         0         0         0         0         0         0
         0         0         0         0         0         0         0         0
         0         0         0         0         0         0         0         0
         0         0         0         0         0         0         0         0
         0         0         0         0         0         0         0         0
         0         0         0         0         0         0         0         0
         0         0         0         0         0         0         0         0
         0         0         0         0         0         0         0         0
         0         0         0         0         0         0         0         0
         0         0         0         0         0         0         0         0
         0         0         0         0         0         0         0         0
         0         0         0         0         0         0         0         0
         0         0         0         0         0         0         0         0
         0         0         0         0         0         0         0         0
         0         0         0         0         0         0         0         0
         0         0         0         0         0         0         0         0
         0         0         0         0         0         0         0         0
         0         0         0         0         0         0         0         0
         0         0         0         0         0         0         0         0
         0         0         0         0         0         0         0         0
         0         0         0         0         0         0         0         0
         0         0         0         0         0         0         0         0
         0         0         0         0         0         0         0         0
         0         0         0         0         0         0         0         0
         0         0         0         0         0         0         0         0
         0         0         0         0         0         0         0         0
         0         0         0         0         0         0         0         0
         0         0         0         0         0         0         0         0
         0         0         0         0         0         0         0         0
         0         0         0         0         0         0         0         0
         0         0         0         0         0         0         0         0
         0         0         0         0         0         0         0         0
         0         0         0         0         0         0         0         0
         0         0         0         0         0         0         0         0
         0         0         0         0         0         0         0         0
         0         0         0         0         0         0         0         0
         0         0         0         0         0         0         0         0
         0         0         0         0         0         0         0         0
         0         0         0         0         0         0         0         0
         0         0         0         0         0         0         0         0
         0         0         0         0         0         0         0         0
         0         0         0         0         0         0         0         0
         0         0         0         0         0         0         0         0
         0         0         0         0         0         0         0         0
         0         0         0         0         0         0         0         0
         0         0         0         0         0         0         0         0
         0         0         0         0         0         0         0         0
         0         0         0         0         0         0         0         0
         0         0         0         0         0         0         0         0
         0         0         0         0         0         0         0         0
         0         0         0         0         0         0         0         0
         0         0         0         0         0         0         0         0
         0         0         0         0         0         0         0         0
         0         0         0         0         0         0         0         0
         0         0         0         0         0         0         0         0
         0         0         0         0         0         0         0         0
         0         0         0         0         0         0         0         0
         0         0         0         0         0         0         0         0
         0         0         0         0         0         0         0         0
         0         0         0         0         0         0         0         0
         0         0         0         0         0         0         0         0
         0         0         0         0         0         0         0         0
         0         0         0         0         0         0         0         0
         0         0         0         0         0         0         0         0
         0         0         0         0         0         0         0         0
         0         0         0         0         0         0         0         0
         0         0         0         0         0         0         0         0
         0         0         0         0         0         0         0         0
         0         0         0         0         0         0         0         0
         0         0         0         0         0         0         0         0
         0         0         0         0         0         0         0         0
         0         0         0         0         0         0         0         0
         0         0         0         0         0         0         0         0
         0         0         0         0         0         0         0         0
         0         0         0         0         0         0         0         0
         0         0         0         0         0         0         0         0
         0         0         0         0         0         0         0         0
         0         0         0         0         0         0         0         0
         0         0         0         0         0         0         0         0
         0         0         0         0         0         0         0         0
         0         0         0         0         0         0         0         0
         0         0         0         0         0         0         0         0
         0         0         0         0         0         0         0         0
         0         0         0         0         0         0         0         0
         0         0         0         0         0         0         0         0
         0         0         0         0         0         0         0         0
         0         0         0         0         0         0         0         0
         0         0         0         0         0         0         0         0
         0         0         0         0         0         0         0         0
         0         0         0         0         0         0         0         0
         0         0         0         0         0         0         0         0
         0         0         0         0         0         0         0         0
         0         0         0         0         0         0         0         0
         0         0         0         0         0         0         0         0
         0         0         0         0         0         0         0         0
         0         0         0         0         0         0         0         0
         0         0         0         0         0         0         0         0
         0         0         0         0         0         0         0         0
         0         0         0         0         0         0         0         0
         0         0         0         0         0         0         0         0
         0         0         0         0         0         0         0         0
         0         0         0         0         0         0         0         0
         0         0         0         0         0         0         0         0
         0         0         0         0         0         0         0         0
         0         0         0         0         0         0         0         0
         0         0         0         0         0         0         0         0
         0         0         0         0         0         0         0         0
         0         0         0         0         0         0         0         0
         0         0         0         0         0         0         0         0
         0         0         0         0         0         0         0         0
         0         0         0         0         0         0         0         0
         0         0         0         0         0         0         0         0
         0         0         0         0         0         0         0         0
         0         0         0         0         0         0         0         0
         0         0         0         0         0         0         0         0
         0         0         0         0         0         0         0         0
         0         0         0         0         0         0         0         0
         0         0         0         0         0         0         0         0
         0         0         0         0         0         0         0         0
         0         0         0         0         0         0         0         0
         0         0         0         0         0         0         0         0
         0         0         0         0         0         0         0         0
         0         0         0         0         0         0         0         0
         0         0         0         0         0         0         0         0
         0         0         0         0         0         0         0         0
         0         0         0         0         0         0         0         0
         0         0         0         0         0         0         0         0
         0         0         0         0         0         0         0         0
         0         0         0         0         0         0         0         0
         0         0         0         0         0         0         0         0
         0         0         0         0         0         0         0         0
         0         0         0         0         0         0         0         0
         0         0         0         0         0         0         0         0
         0         0         0         0         0         0         0         0
         0         0         0         0         0         0         0         0
         0         0         0         0         0         0         0         0
         0         0         0         0         0         0         0         0
         0         0         0         0         0         0         0         0
         0         0         0         0         0         0         0         0
         0         0         0         0         0         0         0         0
         0         0         0         0         0         0         0         0
         0         0         0         0         0         0         0         0
         0         0         0         0         0         0         0         0
         0         0         0         0         0         0         0         0
         0         0         0         0         0         0         0         0
         0         0         0         0         0         0         0         0
         0         0         0         0         0         0         0         0
         0         0         0         0         0         0         0         0
         0         0         0         0         0         0         0         0
         0         0         0         0         0         0         0         0
         0         0         0         0         0         0         0         0
         0         0         0         0         0         0         0         0
         0         0         0         0         0         0         0         0
         0         0         0         0         0         0         0         0
         0         0         0         0         0         0         0         0
         0         0         0         0         0         0         0         0
         0         0         0         0         0         0         0         0
         0         0         0         0         0         0         0         0
         0         0         0         0         0         0         0         0
         0         0         0         0         0         0         0         0
         0         0         0         0         0         0         0         0
         0         0         0         0         0         0         0         0
         0         0         0         0         0         0         0         0
         0         0         0         0         0         0         0         0
         0         0         0         0         0         0         0         0
         0         0         0         0         0         0         0         0
         0         0         0         0         0         0         0         0
         0         0         0         0         0         0         0         0
         0         0         0         0         0         0         0         0
         0         0         0         0         0         0         0         0
         0         0         0         0         0         0         0         0
         0         0         0         0         0         0         0         0
         0         0         0         0         0         0         0         0
         0         0         0         0         0         0         0         0
         0         0         0         0         0         0         0         0
         0         0         0         0         0         0         0         0
         0         0         0         0         0         0         0         0
         0         0         0         0         0         0         0         0
         0         0         0         0         0         0         0         0
         0         0         0         0         0         0         0         0
         0         0         0         0         0         0         0         0
         0         0         0         0         0         0         0         0
         0         0         0         0         0         0         0         0
         0         0         0         0         0         0         0         0
         0         0         0         0         0         0         0         0
         0         0         0         0         0         0         0         0
         0         0         0         0         0         0         0         0
         0         0         0         0         0         0         0         0
         0         0         0         0         0         0         0         0
         0         0         0         0         0         0         0         0
         0         0         0         0         0         0         0         0
         0         0         0         0         0         0         0         0
         0         0         0         0         0         0         0         0
         0         0         0         0         0         0         0         0
         0         0         0         0         0         0         0         0
         0         0         0         0         0         0         0         0
         0         0         0         0         0         0         0         0
         0         0         0         0         0         0         0         0
         0         0         0         0         0         0         0         0
         0         0         0         0         0         0         0         0
         0         0         0         0         0         0         0         0
         0         0         0         0         0         0         0         0
         0         0         0         0         0         0         0         0
         0         0         0         0         0         0         0         0
         0         0         0         0         0         0         0         0
         0         0         0         0         0         0         0         0
         0         0         0         0         0         0         0         0
         0         0         0         0         0         0         0         0
         0         0         0         0         0         0         0         0
         0         0         0         0         0         0         0         0
         0         0         0         0         0         0         0         0
         0         0         0         0         0         0         0         0
         0         0         0         0         0         0         0         0
         0         0         0         0         0         0         0         0
         0         0         0         0         0         0         0         0
         0         0         0         0         0         0         0         0
         0         0         0         0         0         0         0         0
         0         0         0         0         0         0         0         0
         0         0         0         0         0         0         0         0
         0         0         0         0         0         0         0         0
         0         0         0         0         0         0         0         0
         0         0         0         0         0         0         0         0
         0         0         0         0         0         0         0         0
         0         0         0         0         0         0         0         0
         0         0         0         0         0         0         0         0
         0         0         0         0         0         0         0         0
         0         0         0         0         0         0         0         0
         0         0         0         0         0         0         0         0
         0         0         0         0         0         0         0         0
         0         0         0         0         0         0         0         0
         0         0         0         0         0         0         0         0
         0         0         0         0         0         0         0         0
         0         0         0         0         0         0         0         0
         0         0         0         0         0         0         0         0
         0         0         0         0         0         0         0         0
         0         0         0         0         0         0         0         0
         0         0         0         0         0         0         0         0
         0         0         0         0         0         0         0         0
         0         0         0         0         0         0         0         0
         0         0         0         0         0         0         0         0
         0         0         0         0         0         0         0         0
         0         0         0         0         0         0         0         0
         0         0         0         0         0         0         0         0
         0         0         0         0         0         0         0         0
         0         0         0         0         0         0         0         0
         0         0         0         0         0         0         0         0
         0         0         0         0         0         0         0         0
         0         0         0         0         0         0         0         0
         0         0         0         0         0         0         0         0
         0         0         0         0         0         0         0         0
         0         0         0         0         0         0         0         0
         0         0         0         0         0         0         0         0
         0         0         0         0         0         0         0         0
         0         0         0         0         0         0         0         0
         0         0         0         0         0         0         0         0
         0         0         0         0         0         0         0         0
         0         0         0         0         0         0         0         0
         0         0         0         0         0         0         0         0
         0         0         0         0         0         0         0         0
         0         0         0         0         0         0         0         0
         0         0         0         0         0         0         0         0
         0         0         0         0         0         0         0         0
         0         0         0         0         0         0         0         0
         0         0         0         0         0         0         0         0
         0         0         0         0         0         0         0         0
         0         0         0         0         0         0         0         0
         0         0         0         0         0         0         0         0
         0         0         0         0         0         0         0         0
         0         0         0         0         0         0         0         0
         0         0         0         0         0         0         0         0
         0         0         0         0         0         0         0         0
         0         0         0         0         0         0         0         0
         0         0         0         0         0         0         0         0
         0         0         0         0         0         0         0         0
         0         0         0         0         0         0         0         0
         0         0         0         0         0         0         0         0
         0         0         0         0         0         0         0         0
         0         0         0         0         0         0         0         0
         0         0         0         0         0         0         0         0
         0         0         0         0         0         0         0         0
         0         0         0         0         0         0         0         0
         0         0         0         0         0         0         0         0
         0         0         0         0         0         0         0         0
         0         0         0         0         0         0         0         0
         0         0         0         0         0         0         0         0
         0         0         0         0         0         0         0         0
         0         0         0         0         0         0         0         0
         0         0         0         0         0         0         0         0
         0         0         0         0         0         0         0         0
         0         0         0         0         0         0         0         0
         0         0         0         0         0         0         0         0
         0         0         0         0         0         0         0         0
         0         0         0         0         0         0         0         0
         0         0         0         0         0         0         0         0
         0         0         0         0         0         0         0         0
         0         0         0         0         0         0         0         0
         0         0         0         0         0         0         0         0
         0         0         0         0         0         0         0         0
         0         0         0         0         0         0         0         0
         0         0         0         0         0         0         0         0
         0         0         0         0         0         0         0         0
         0         0         0         0         0         0         0         0
         0         0         0         0         0         0         0         0
         0         0         0         0         0         0         0         0
         0         0         0         0         0         0         0         0
         0         0         0         0         0         0         0         0
         0         0         0         0         0         0         0         0
         0         0         0         0         0         0         0         0
         0         0         0         0         0         0         0         0
         0         0         0         0         0         0         0         0
         0         0         0         0         0         0         0         0
         0         0         0         0         0         0         0         0
         0         0         0         0         0         0         0         0
         0         0         0         0         0         0         0         0
         0         0         0         0         0         0         0         0
         0         0         0         0         0         0         0         0
         0         0         0         0         0         0         0         0
         0         0         0         0         0         0         0         0
         0         0         0         0         0         0         0         0
         0         0         0         0         0         0         0         0
         0         0         0         0         0         0         0         0
         0         0         0         0         0         0         0         0
         0         0         0         0         0         0         0         0
         0         0         0         0         0         0         0         0
         0         0         0         0         0         0         0         0
         0         0         0         0         0         0         0         0
         0         0         0         0         0         0         0         0
         0         0         0         0         0         0         0         0
         0         0         0         0         0         0         0         0
         0         0         0         0         0         0         0         0
         0         0         0         0         0         0         0         0
         0         0         0         0         0         0         0         0
         0         0         0         0         0         0         0         0
         0         0         0         0         0         0         0         0
         0         0         0         0         0         0         0         0
         0         0         0         0         0         0         0         0
         0         0         0         0         0         0         0         0
         0         0         0         0         0         0         0         0
         0         0         0         0         0         0         0         0
         0         0         0         0         0         0         0         0
         0         0         0         0         0         0         0         0
         0         0         0         0         0         0         0         0
         0         0         0         0         0         0         0         0
         0         0         0         0         0         0         0         0
         0         0         0         0         0         0         0         0
         0         0         0         0         0         0         0         0
         0         0         0         0         0         0         0         0
         0         0         0         0         0         0         0         0
         0         0         0         0         0         0         0         0
         0         0         0         0         0         0         0         0
         0         0         0         0         0         0         0         0
         0         0         0         0         0         0         0         0
         0         0         0         0         0         0         0         0
         0         0         0         0         0         0         0         0
         0         0         0         0         0         0         0         0
         0         0         0         0         0         0         0         0
         0         0         0         0         0         0         0         0
         0         0         0         0         0         0         0         0
         0         0         0         0         0         0         0         0
         0         0         0         0         0         0         0         0
         0         0         0         0         0         0         0         0
         0         0         0         0         0         0         0         0

     13392         0 !NGRP NST2
         0         2         0        16         2         0        27         1         0
        35         1         0        44         1         0        47         1         0
        50         1         0        53         1         0        56         1         0
        59         1         0        62         1         0        64         1         0
        66         1         0        69         1         0        72         1         0
        75         1         0        78         1         0        81         1         0
        84         1         0        87         1         0        91         1         0
        94         1         0        97         1         0       100         1         0
       103         1         0       106         1         0       109         1         0
       112         1         0       115         1         0       118         1         0
       121         1         0       124         1         0       127         1         0
       130         1         0       134         2         0       140         2         0
       143         2         0       154         1         0       162         1         0
       171         1         0       174         1         0       177         1         0
       180         1         0       183         1         0       186         1         0
       189         1         0       191         1         0       193         1         0
       196         1         0       199         1         0       202         1         0
       205         1         0       208         1         0       211         1         0
       214         1         0       218         1         0       221         1         0
       224         1         0       227         1         0       230         1         0
       233         1         0       236         1         0       239         1         0
       242         1         0       245         1         0       248         1         0
       251         1         0       254         1         0       257         1         0
       261         2         0       277         2         0       288         1         0
       296         1         0       305         1         0       308         1         0
       311         1         0       314         1         0       317         1         0
       320         1         0       323         1         0       325         1         0
       327         1         0       330         1         0       333         1         0
       336         1         0       339         1         0       342         1         0
       345         1         0       348         1         0       352         1         0
       355         1         0       358         1         0       361         1         0
       364         1         0       367         1         0       370         1         0
       373         1         0       376         1         0       379         1         0
       382         1         0       385         1         0       388         1         0
       391         1         0       395         2         0       411         2         0
       422         1         0       430         1         0       439         1         0
       442         1         0       445         1         0       448         1         0
       451         1         0       454         1         0       457         1         0
       459         1         0       461         1         0       464         1         0
       467         1         0       470         1         0       473         1         0
       476         1         0       479         1         0       482         1         0
       486         1         0       489         1         0       492         1         0
       495         1         0       498         1         0       501         1         0
       504         1         0       507         1         0       510         1         0
       513         1         0       516         1         0       519         1         0
       522         1         0       525         1         0       529         2         0
       545         2         0       556         1         0       564         1         0
       573         1         0       576         1         0       579         1         0
       582         1         0       585         1         0       588         1         0
       591         1         0       593         1         0       595         1         0
       598         1         0       601         1         0       604         1         0
       607         1         0       610         1         0       613         1         0
       616         1         0       620         1         0       623         1         0
       626         1         0       629         1         0       632         1         0
       635         1         0       638         1         0       641         1         0
       644         1         0       647         1         0       650         1         0
       653         1         0       656         1         0       659         1         0
       663         2         0       679         2         0       690         1         0
       698         1         0       707         1         0       710         1         0
       713         1         0       716         1         0       719         1         0
       722         1         0       725         1         0       727         1         0
       729         1         0       732         1         0       735         1         0
       738         1         0       741         1         0       744         1         0
       747         1         0       750         1         0       754         1         0
       757         1         0       760         1         0       763         1         0
       766         1         0       769         1         0       772         1         0
       775         1         0       778         1         0       781         1         0
       784         1         0       787         1         0       790         1         0
       793         1         0       797         2         0       813         2         0
       824         1         0       832         1         0       841         1         0
       844         1         0       847         1         0       850         1         0
       853         1         0       856         1         0       859         1         0
       861         1         0       863         1         0       866         1         0
       869         1         0       872         1         0       875         1         0
       878         1         0       881         1         0       884         1         0
       888         1         0       891         1         0       894         1         0
       897         1         0       900         1         0       903         1         0
       906         1         0       909         1         0       912         1         0
       915         1         0       918         1         0       921         1         0
       924         1         0       927         1         0       931         2         0
       947         2         0       958         1         0       966         1         0
       975         1         0       978         1         0       981         1         0
       984         1         0       987         1         0       990         1         0
       993         1         0       995         1         0       997         1         0
      1000         1         0      1003         1         0      1006         1         0
      1009         1         0      1012         1         0      1015         1         0
      1018         1         0      1022         1         0      1025         1         0
      1028         1         0      1031         1         0      1034         1         0
      1037         1         0      1040         1         0      1043         1         0
      1046         1         0      1049         1         0      1052         1         0
      1055         1         0      1058         1         0      1061         1         0
      1065         2         0      1081         2         0      1092         1         0
      1100         1         0      1109         1         0      1112         1         0
      1115         1         0      1118         1         0      1121         1         0
      1124         1         0      1127         1         0      1129         1         0
      1131         1         0      1134         1         0      1137         1         0
      1140         1         0      1143         1         0      1146         1         0
      1149         1         0      1152         1         0      1156         1         0
      1159         1         0      1162         1         0      1165         1         0
      1168         1         0      1171         1         0      1174         1         0
      1177         1         0      1180         1         0      1183         1         0
      1186         1         0      1189         1         0      1192         1         0
      1195         1         0      1199         2         0      1215         2         0
      1226         1         0      1234         1         0      1243         1         0
      1246         1         0      1249         1         0      1252         1         0
      1255         1         0      1258         1         0      1261         1         0
      1263         1         0      1265         1         0      1268         1         0
      1271         1         0      1274         1         0      1277         1         0
      1280         1         0      1283         1         0      1286         1         0
      1290         1         0      1293         1         0      1296         1         0
      1299         1         0      1302         1         0      1305         1         0
      1308         1         0      1311         1         0      1314         1         0
      1317         1         0      1320         1         0      1323         1         0
      1326         1         0      1329         1         0      1333         2         0
      1349         2         0      1360         1         0      1368         1         0
      1377         1         0      1380         1         0      1383         1         0
      1386         1         0      1389         1         0      1392         1         0
      1395         1         0      1397         1         0      1399         1         0
      1402         1         0      1405         1         0      1408         1         0
      1411         1         0      1414         1         0      1417         1         0
      1420         1         0      1424         1         0      1427         1         0
      1430         1         0      1433         1         0      1436         1         0
      1439         1         0      1442         1         0      1445         1         0
      1448         1         0      1451         1         0      1454         1         0
      1457         1         0      1460         1         0      1463         1         0
      1467         2         0      1483         2         0      1494         1         0
      1502         1         0      1511         1         0      1514         1         0
      1517         1         0      1520         1         0      1523         1         0
      1526         1         0      1529         1         0      1531         1         0
      1533         1         0      1536         1         0      1539         1         0
      1542         1         0      1545         1         0      1548         1         0
      1551         1         0      1554         1         0      1558         1         0
      1561         1         0      1564         1         0      1567         1         0
      1570         1         0      1573         1         0      1576         1         0
      1579         1         0      1582         1         0      1585         1         0
      1588         1         0      1591         1         0      1594         1         0
      1597         1         0      1601         2         0      1617         2         0
      1628         1         0      1636         1         0      1645         1         0
      1648         1         0      1651         1         0      1654         1         0
      1657         1         0      1660         1         0      1663         1         0
      1665         1         0      1667         1         0      1670         1         0
      1673         1         0      1676         1         0      1679         1         0
      1682         1         0      1685         1         0      1688         1         0
      1692         1         0      1695         1         0      1698         1         0
      1701         1         0      1704         1         0      1707         1         0
      1710         1         0      1713         1         0      1716         1         0
      1719         1         0      1722         1         0      1725         1         0
      1728         1         0      1731         1         0      1735         2         0
      1751         2         0      1762         1         0      1770         1         0
      1779         1         0      1782         1         0      1785         1         0
      1788         1         0      1791         1         0      1794         1         0
      1797         1         0      1799         1         0      1801         1         0
      1804         1         0      1807         1         0      1810         1         0
      1813         1         0      1816         1         0      1819         1         0
      1822         1         0      1826         1         0      1829         1         0
      1832         1         0      1835         1         0      1838         1         0
      1841         1         0      1844         1         0      1847         1         0
      1850         1         0      1853         1         0      1856         1         0
      1859         1         0      1862         1         0      1865         1         0
      1869         2         0      1875         2         0      1878         2         0
      1889         1         0      1897         1         0      1906         1         0
      1909         1         0      1912         1         0      1915         1         0
      1918         1         0      1921         1         0      1924         1         0
      1926         1         0      1928         1         0      1931         1         0
      1934         1         0      1937         1         0      1940         1         0
      1943         1         0      1946         1         0      1949         1         0
      1953         1         0      1956         1         0      1959         1         0
      1962         1         0      1965         1         0      1968         1         0
      1971         1         0      1974         1         0      1977         1         0
      1980         1         0      1983         1         0      1986         1         0
      1989         1         0      1992         1         0      1996         2         0
      2012         2         0      2023         1         0      2031         1         0
      2040         1         0      2043         1         0      2046         1         0
      2049         1         0      2052         1         0      2055         1         0
      2058         1         0      2060         1         0      2062         1         0
      2065         1         0      2068         1         0      2071         1         0
      2074         1         0      2077         1         0      2080         1         0
      2083         1         0      2087         1         0      2090         1         0
      2093         1         0      2096         1         0      2099         1         0
      2102         1         0      2105         1         0      2108         1         0
      2111         1         0      2114         1         0      2117         1         0
      2120         1         0      2123         1         0      2126         1         0
      2130         2         0      2146         2         0      2157         1         0
      2165         1         0      2174         1         0      2177         1         0
      2180         1         0      2183         1         0      2186         1         0
      2189         1         0      2192         1         0      2194         1         0
      2196         1         0      2199         1         0      2202         1         0
      2205         1         0      2208         1         0      2211         1         0
      2214         1         0      2217         1         0      2221         1         0
      2224         1         0      2227         1         0      2230         1         0
      2233         1         0      2236         1         0      2239         1         0
      2242         1         0      2245         1         0      2248         1         0
      2251         1         0      2254         1         0      2257         1         0
      2260         1         0      2264         2         0      2280         2         0
      2291         1         0      2299         1         0      2308         1         0
      2311         1         0      2314         1         0      2317         1         0
      2320         1         0      2323         1         0      2326         1         0
      2328         1         0      2330         1         0      2333         1         0
      2336         1         0      2339         1         0      2342         1         0
      2345         1         0      2348         1         0      2351         1         0
      2355         1         0      2358         1         0      2361         1         0
      2364         1         0      2367         1         0      2370         1         0
      2373         1         0      2376         1         0      2379         1         0
      2382         1         0      2385         1         0      2388         1         0
      2391         1         0      2394         1         0      2398         2         0
      2414         2         0      2425         1         0      2433         1         0
      2442         1         0      2445         1         0      2448         1         0
      2451         1         0      2454         1         0      2457         1         0
      2460         1         0      2462         1         0      2464         1         0
      2467         1         0      2470         1         0      2473         1         0
      2476         1         0      2479         1         0      2482         1         0
      2485         1         0      2489         1         0      2492         1         0
      2495         1         0      2498         1         0      2501         1         0
      2504         1         0      2507         1         0      2510         1         0
      2513         1         0      2516         1         0      2519         1         0
      2522         1         0      2525         1         0      2528         1         0
      2532         2         0      2548         2         0      2559         1         0
      2567         1         0      2576         1         0      2579         1         0
      2582         1         0      2585         1         0      2588         1         0
      2591         1         0      2594         1         0      2596         1         0
      2598         1         0      2601         1         0      2604         1         0
      2607         1         0      2610         1         0      2613         1         0
      2616         1         0      2619         1         0      2623         1         0
      2626         1         0      2629         1         0      2632         1         0
      2635         1         0      2638         1         0      2641         1         0
      2644         1         0      2647         1         0      2650         1         0
      2653         1         0      2656         1         0      2659         1         0
      2662         1         0      2666         2         0      2682         2         0
      2693         1         0      2701         1         0      2710         1         0
      2713         1         0      2716         1         0      2719         1         0
      2722         1         0      2725         1         0      2728         1         0
      2730         1         0      2732         1         0      2735         1         0
      2738         1         0      2741         1         0      2744         1         0
      2747         1         0      2750         1         0      2753         1         0
      2757         1         0      2760         1         0      2763         1         0
      2766         1         0      2769         1         0      2772         1         0
      2775         1         0      2778         1         0      2781         1         0
      2784         1         0      2787         1         0      2790         1         0
      2793         1         0      2796         1         0      2800         2         0
      2806         2         0      2809         2         0      2820         1         0
      2828         1         0      2837         1         0      2840         1         0
      2843         1         0      2846         1         0      2849         1         0
      2852         1         0      2855         1         0      2857         1         0
      2859         1         0      2862         1         0      2865         1         0
      2868         1         0      2871         1         0      2874         1         0
      2877         1         0      2880         1         0      2884         1         0
      2887         1         0      2890         1         0      2893         1         0
      2896         1         0      2899         1         0      2902         1         0
      2905         1         0      2908         1         0      2911         1         0
      2914         1         0      2917         1         0      2920         1         0
      2923         1         0      2927         2         0      2943         2         0
      2954         1         0      2962         1         0      2971         1         0
      2974         1         0      2977         1         0      2980         1         0
      2983         1         0      2986         1         0      2989         1         0
      2991         1         0      2993         1         0      2996         1         0
      2999         1         0      3002         1         0      3005         1         0
      3008         1         0      3011         1         0      3014         1         0
      3018         1         0      3021         1         0      3024         1         0
      3027         1         0      3030         1         0      3033         1         0
      3036         1         0      3039         1         0      3042         1         0
      3045         1         0      3048         1         0      3051         1         0
      3054         1         0      3057         1         0      3061         2         0
      3067         2         0      3070         2         0      3081         1         0
      3089         1         0      3098         1         0      3101         1         0
      3104         1         0      3107         1         0      3110         1         0
      3113         1         0      3116         1         0      3118         1         0
      3120         1         0      3123         1         0      3126         1         0
      3129         1         0      3132         1         0      3135         1         0
      3138         1         0      3141         1         0      3145         1         0
      3148         1         0      3151         1         0      3154         1         0
      3157         1         0      3160         1         0      3163         1         0
      3166         1         0      3169         1         0      3172         1         0
      3175         1         0      3178         1         0      3181         1         0
      3184         1         0      3188         2         0      3204         2         0
      3215         1         0      3223         1         0      3232         1         0
      3235         1         0      3238         1         0      3241         1         0
      3244         1         0      3247         1         0      3250         1         0
      3252         1         0      3254         1         0      3257         1         0
      3260         1         0      3263         1         0      3266         1         0
      3269         1         0      3272         1         0      3275         1         0
      3279         1         0      3282         1         0      3285         1         0
      3288         1         0      3291         1         0      3294         1         0
      3297         1         0      3300         1         0      3303         1         0
      3306         1         0      3309         1         0      3312         1         0
      3315         1         0      3318         1         0      3322         2         0
      3338         2         0      3349         1         0      3357         1         0
      3366         1         0      3369         1         0      3372         1         0
      3375         1         0      3378         1         0      3381         1         0
      3384         1         0      3386         1         0      3388         1         0
      3391         1         0      3394         1         0      3397         1         0
      3400         1         0      3403         1         0      3406         1         0
      3409         1         0      3413         1         0      3416         1         0
      3419         1         0      3422         1         0      3425         1         0
      3428         1         0      3431         1         0      3434         1         0
      3437         1         0      3440         1         0      3443         1         0
      3446         1         0      3449         1         0      3452         1         0
      3456         2         0      3462         2         0      3465         2         0
      3476         1         0      3484         1         0      3493         1         0
      3496         1         0      3499         1         0      3502         1         0
      3505         1         0      3508         1         0      3511         1         0
      3513         1         0      3515         1         0      3518         1         0
      3521         1         0      3524         1         0      3527         1         0
      3530         1         0      3533         1         0      3536         1         0
      3540         1         0      3543         1         0      3546         1         0
      3549         1         0      3552         1         0      3555         1         0
      3558         1         0      3561         1         0      3564         1         0
      3567         1         0      3570         1         0      3573         1         0
      3576         1         0      3579         1         0      3583         2         0
      3599         2         0      3610         1         0      3618         1         0
      3627         1         0      3630         1         0      3633         1         0
      3636         1         0      3639         1         0      3642         1         0
      3645         1         0      3647         1         0      3649         1         0
      3652         1         0      3655         1         0      3658         1         0
      3661         1         0      3664         1         0      3667         1         0
      3670         1         0      3674         1         0      3677         1         0
      3680         1         0      3683         1         0      3686         1         0
      3689         1         0      3692         1         0      3695         1         0
      3698         1         0      3701         1         0      3704         1         0
      3707         1         0      3710         1         0      3713         1         0
      3717         2         0      3733         2         0      3744         1         0
      3752         1         0      3761         1         0      3764         1         0
      3767         1         0      3770         1         0      3773         1         0
      3776         1         0      3779         1         0      3781         1         0
      3783         1         0      3786         1         0      3789         1         0
      3792         1         0      3795         1         0      3798         1         0
      3801         1         0      3804         1         0      3808         1         0
      3811         1         0      3814         1         0      3817         1         0
      3820         1         0      3823         1         0      3826         1         0
      3829         1         0      3832         1         0      3835         1         0
      3838         1         0      3841         1         0      3844         1         0
      3847         1         0      3851         2         0      3867         2         0
      3878         1         0      3886         1         0      3895         1         0
      3898         1         0      3901         1         0      3904         1         0
      3907         1         0      3910         1         0      3913         1         0
      3915         1         0      3917         1         0      3920         1         0
      3923         1         0      3926         1         0      3929         1         0
      3932         1         0      3935         1         0      3938         1         0
      3942         1         0      3945         1         0      3948         1         0
      3951         1         0      3954         1         0      3957         1         0
      3960         1         0      3963         1         0      3966         1         0
      3969         1         0      3972         1         0      3975         1         0
      3978         1         0      3981         1         0      3985         2         0
      3991         2         0      3994         2         0      4005         1         0
      4013         1         0      4022         1         0      4025         1         0
      4028         1         0      4031         1         0      4034         1         0
      4037         1         0      4040         1         0      4042         1         0
      4044         1         0      4047         1         0      4050         1         0
      4053         1         0      4056         1         0      4059         1         0
      4062         1         0      4065         1         0      4069         1         0
      4072         1         0      4075         1         0      4078         1         0
      4081         1         0      4084         1         0      4087         1         0
      4090         1         0      4093         1         0      4096         1         0
      4099         1         0      4102         1         0      4105         1         0
      4108         1         0      4112         2         0      4128         2         0
      4139         1         0      4147         1         0      4156         1         0
      4159         1         0      4162         1         0      4165         1         0
      4168         1         0      4171         1         0      4174         1         0
      4176         1         0      4178         1         0      4181         1         0
      4184         1         0      4187         1         0      4190         1         0
      4193         1         0      4196         1         0      4199         1         0
      4203         1         0      4206         1         0      4209         1         0
      4212         1         0      4215         1         0      4218         1         0
      4221         1         0      4224         1         0      4227         1         0
      4230         1         0      4233         1         0      4236         1         0
      4239         1         0      4242         1         0      4246         2         0
      4262         2         0      4273         1         0      4281         1         0
      4290         1         0      4293         1         0      4296         1         0
      4299         1         0      4302         1         0      4305         1         0
      4308         1         0      4310         1         0      4312         1         0
      4315         1         0      4318         1         0      4321         1         0
      4324         1         0      4327         1         0      4330         1         0
      4333         1         0      4337         1         0      4340         1         0
      4343         1         0      4346         1         0      4349         1         0
      4352         1         0      4355         1         0      4358         1         0
      4361         1         0      4364         1         0      4367         1         0
      4370         1         0      4373         1         0      4376         1         0
      4380         2         0      4386         2         0      4389         2         0
      4400         1         0      4408         1         0      4417         1         0
      4420         1         0      4423         1         0      4426         1         0
      4429         1         0      4432         1         0      4435         1         0
      4437         1         0      4439         1         0      4442         1         0
      4445         1         0      4448         1         0      4451         1         0
      4454         1         0      4457         1         0      4460         1         0
      4464         1         0      4467         1         0      4470         1         0
      4473         1         0      4476         1         0      4479         1         0
      4482         1         0      4485         1         0      4488         1         0
      4491         1         0      4494         1         0      4497         1         0
      4500         1         0      4503         1         0      4507         2         0
      4513         2         0      4516         2         0      4527         1         0
      4535         1         0      4544         1         0      4547         1         0
      4550         1         0      4553         1         0      4556         1         0
      4559         1         0      4562         1         0      4564         1         0
      4566         1         0      4569         1         0      4572         1         0
      4575         1         0      4578         1         0      4581         1         0
      4584         1         0      4587         1         0      4591         1         0
      4594         1         0      4597         1         0      4600         1         0
      4603         1         0      4606         1         0      4609         1         0
      4612         1         0      4615         1         0      4618         1         0
      4621         1         0      4624         1         0      4627         1         0
      4630         1         0      4634         2         0      4650         2         0
      4661         1         0      4669         1         0      4678         1         0
      4681         1         0      4684         1         0      4687         1         0
      4690         1         0      4693         1         0      4696         1         0
      4698         1         0      4700         1         0      4703         1         0
      4706         1         0      4709         1         0      4712         1         0
      4715         1         0      4718         1         0      4721         1         0
      4725         1         0      4728         1         0      4731         1         0
      4734         1         0      4737         1         0      4740         1         0
      4743         1         0      4746         1         0      4749         1         0
      4752         1         0      4755         1         0      4758         1         0
      4761         1         0      4764         1         0      4768         2         0
      4784         2         0      4795         1         0      4803         1         0
      4812         1         0      4815         1         0      4818         1         0
      4821         1         0      4824         1         0      4827         1         0
      4830         1         0      4832         1         0      4834         1         0
      4837         1         0      4840         1         0      4843         1         0
      4846         1         0      4849         1         0      4852         1         0
      4855         1         0      4859         1         0      4862         1         0
      4865         1         0      4868         1         0      4871         1         0
      4874         1         0      4877         1         0      4880         1         0
      4883         1         0      4886         1         0      4889         1         0
      4892         1         0      4895         1         0      4898         1         0
      4902         2         0      4908         2         0      4911         2         0
      4922         1         0      4930         1         0      4939         1         0
      4942         1         0      4945         1         0      4948         1         0
      4951         1         0      4954         1         0      4957         1         0
      4959         1         0      4961         1         0      4964         1         0
      4967         1         0      4970         1         0      4973         1         0
      4976         1         0      4979         1         0      4982         1         0
      4986         1         0      4989         1         0      4992         1         0
      4995         1         0      4998         1         0      5001         1         0
      5004         1         0      5007         1         0      5010         1         0
      5013         1         0      5016         1         0      5019         1         0
      5022         1         0      5025         1         0      5029         2         0
      5045         2         0      5056         1         0      5064         1         0
      5073         1         0      5076         1         0      5079         1         0
      5082         1         0      5085         1         0      5088         1         0
      5091         1         0      5093         1         0      5095         1         0
      5098         1         0      5101         1         0      5104         1         0
      5107         1         0      5110         1         0      5113         1         0
      5116         1         0      5120         1         0      5123         1         0
      5126         1         0      5129         1         0      5132         1         0
      5135         1         0      5138         1         0      5141         1         0
      5144         1         0      5147         1         0      5150         1         0
      5153         1         0      5156         1         0      5159         1         0
      5163         2         0      5179         2         0      5190         1         0
      5198         1         0      5207         1         0      5210         1         0
      5213         1         0      5216         1         0      5219         1         0
      5222         1         0      5225         1         0      5227         1         0
      5229         1         0      5232         1         0      5235         1         0
      5238         1         0      5241         1         0      5244         1         0
      5247         1         0      5250         1         0      5254         1         0
      5257         1         0      5260         1         0      5263         1         0
      5266         1         0      5269         1         0      5272         1         0
      5275         1         0      5278         1         0      5281         1         0
      5284         1         0      5287         1         0      5290         1         0
      5293         1         0      5297         2         0      5313         2         0
      5324         1         0      5332         1         0      5341         1         0
      5344         1         0      5347         1         0      5350         1         0
      5353         1         0      5356         1         0      5359         1         0
      5361         1         0      5363         1         0      5366         1         0
      5369         1         0      5372         1         0      5375         1         0
      5378         1         0      5381         1         0      5384         1         0
      5388         1         0      5391         1         0      5394         1         0
      5397         1         0      5400         1         0      5403         1         0
      5406         1         0      5409         1         0      5412         1         0
      5415         1         0      5418         1         0      5421         1         0
      5424         1         0      5427         1         0      5431         2         0
      5447         2         0      5458         1         0      5466         1         0
      5475         1         0      5478         1         0      5481         1         0
      5484         1         0      5487         1         0      5490         1         0
      5493         1         0      5495         1         0      5497         1         0
      5500         1         0      5503         1         0      5506         1         0
      5509         1         0      5512         1         0      5515         1         0
      5518         1         0      5522         1         0      5525         1         0
      5528         1         0      5531         1         0      5534         1         0
      5537         1         0      5540         1         0      5543         1         0
      5546         1         0      5549         1         0      5552         1         0
      5555         1         0      5558         1         0      5561         1         0
      5565         2         0      5581         2         0      5592         1         0
      5600         1         0      5609         1         0      5612         1         0
      5615         1         0      5618         1         0      5621         1         0
      5624         1         0      5627         1         0      5629         1         0
      5631         1         0      5634         1         0      5637         1         0
      5640         1         0      5643         1         0      5646         1         0
      5649         1         0      5652         1         0      5656         1         0
      5659         1         0      5662         1         0      5665         1         0
      5668         1         0      5671         1         0      5674         1         0
      5677         1         0      5680         1         0      5683         1         0
      5686         1         0      5689         1         0      5692         1         0
      5695         1         0      5699         2         0      5715         2         0
      5726         1         0      5734         1         0      5743         1         0
      5746         1         0      5749         1         0      5752         1         0
      5755         1         0      5758         1         0      5761         1         0
      5763         1         0      5765         1         0      5768         1         0
      5771         1         0      5774         1         0      5777         1         0
      5780         1         0      5783         1         0      5786         1         0
      5790         1         0      5793         1         0      5796         1         0
      5799         1         0      5802         1         0      5805         1         0
      5808         1         0      5811         1         0      5814         1         0
      5817         1         0      5820         1         0      5823         1         0
      5826         1         0      5829         1         0      5833         2         0
      5849         2         0      5860         1         0      5868         1         0
      5877         1         0      5880         1         0      5883         1         0
      5886         1         0      5889         1         0      5892         1         0
      5895         1         0      5897         1         0      5899         1         0
      5902         1         0      5905         1         0      5908         1         0
      5911         1         0      5914         1         0      5917         1         0
      5920         1         0      5924         1         0      5927         1         0
      5930         1         0      5933         1         0      5936         1         0
      5939         1         0      5942         1         0      5945         1         0
      5948         1         0      5951         1         0      5954         1         0
      5957         1         0      5960         1         0      5963         1         0
      5967         2         0      5983         2         0      5994         1         0
      6002         1         0      6011         1         0      6014         1         0
      6017         1         0      6020         1         0      6023         1         0
      6026         1         0      6029         1         0      6031         1         0
      6033         1         0      6036         1         0      6039         1         0
      6042         1         0      6045         1         0      6048         1         0
      6051         1         0      6054         1         0      6058         1         0
      6061         1         0      6064         1         0      6067         1         0
      6070         1         0      6073         1         0      6076         1         0
      6079         1         0      6082         1         0      6085         1         0
      6088         1         0      6091         1         0      6094         1         0
      6097         1         0      6101         2         0      6117         2         0
      6128         1         0      6136         1         0      6145         1         0
      6148         1         0      6151         1         0      6154         1         0
      6157         1         0      6160         1         0      6163         1         0
      6165         1         0      6167         1         0      6170         1         0
      6173         1         0      6176         1         0      6179         1         0
      6182         1         0      6185         1         0      6188         1         0
      6192         1         0      6195         1         0      6198         1         0
      6201         1         0      6204         1         0      6207         1         0
      6210         1         0      6213         1         0      6216         1         0
      6219         1         0      6222         1         0      6225         1         0
      6228         1         0      6231         1         0      6235         2         0
      6251         2         0      6262         1         0      6270         1         0
      6279         1         0      6282         1         0      6285         1         0
      6288         1         0      6291         1         0      6294         1         0
      6297         1         0      6299         1         0      6301         1         0
      6304         1         0      6307         1         0      6310         1         0
      6313         1         0      6316         1         0      6319         1         0
      6322         1         0      6326         1         0      6329         1         0
      6332         1         0      6335         1         0      6338         1         0
      6341         1         0      6344         1         0      6347         1         0
      6350         1         0      6353         1         0      6356         1         0
      6359         1         0      6362         1         0      6365         1         0
      6369         2         0      6385         2         0      6396         1         0
      6404         1         0      6413         1         0      6416         1         0
      6419         1         0      6422         1         0      6425         1         0
      6428         1         0      6431         1         0      6433         1         0
      6435         1         0      6438         1         0      6441         1         0
      6444         1         0      6447         1         0      6450         1         0
      6453         1         0      6456         1         0      6460         1         0
      6463         1         0      6466         1         0      6469         1         0
      6472         1         0      6475         1         0      6478         1         0
      6481         1         0      6484         1         0      6487         1         0
      6490         1         0      6493         1         0      6496         1         0
      6499         1         0      6503         2         0      6519         2         0
      6530         1         0      6538         1         0      6547         1         0
      6550         1         0      6553         1         0      6556         1         0
      6559         1         0      6562         1         0      6565         1         0
      6567         1         0      6569         1         0      6572         1         0
      6575         1         0      6578         1         0      6581         1         0
      6584         1         0      6587         1         0      6590         1         0
      6594         1         0      6597         1         0      6600         1         0
      6603         1         0      6606         1         0      6609         1         0
      6612         1         0      6615         1         0      6618         1         0
      6621         1         0      6624         1         0      6627         1         0
      6630         1         0      6633         1         0      6637         2         0
      6653         2         0      6664         1         0      6672         1         0
      6681         1         0      6684         1         0      6687         1         0
      6690         1         0      6693         1         0      6696         1         0
      6699         1         0      6701         1         0      6703         1         0
      6706         1         0      6709         1         0      6712         1         0
      6715         1         0      6718         1         0      6721         1         0
      6724         1         0      6728         1         0      6731         1         0
      6734         1         0      6737         1         0      6740         1         0
      6743         1         0      6746         1         0      6749         1         0
      6752         1         0      6755         1         0      6758         1         0
      6761         1         0      6764         1         0      6767         1         0
      6771         2         0      6787         2         0      6798         1         0
      6806         1         0      6815         1         0      6818         1         0
      6821         1         0      6824         1         0      6827         1         0
      6830         1         0      6833         1         0      6835         1         0
      6837         1         0      6840         1         0      6843         1         0
      6846         1         0      6849         1         0      6852         1         0
      6855         1         0      6858         1         0      6862         1         0
      6865         1         0      6868         1         0      6871         1         0
      6874         1         0      6877         1         0      6880         1         0
      6883         1         0      6886         1         0      6889         1         0
      6892         1         0      6895         1         0      6898         1         0
      6901         1         0      6905         2         0      6921         2         0
      6932         1         0      6940         1         0      6949         1         0
      6952         1         0      6955         1         0      6958         1         0
      6961         1         0      6964         1         0      6967         1         0
      6969         1         0      6971         1         0      6974         1         0
      6977         1         0      6980         1         0      6983         1         0
      6986         1         0      6989         1         0      6992         1         0
      6996         1         0      6999         1         0      7002         1         0
      7005         1         0      7008         1         0      7011         1         0
      7014         1         0      7017         1         0      7020         1         0
      7023         1         0      7026         1         0      7029         1         0
      7032         1         0      7035         1         0      7039         2         0
      7055         2         0      7066         1         0      7074         1         0
      7083         1         0      7086         1         0      7089         1         0
      7092         1         0      7095         1         0      7098         1         0
      7101         1         0      7103         1         0      7105         1         0
      7108         1         0      7111         1         0      7114         1         0
      7117         1         0      7120         1         0      7123         1         0
      7126         1         0      7130         1         0      7133         1         0
      7136         1         0      7139         1         0      7142         1         0
      7145         1         0      7148         1         0      7151         1         0
      7154         1         0      7157         1         0      7160         1         0
      7163         1         0      7166         1         0      7169         1         0
      7173         2         0      7179         2         0      7182         2         0
      7193         1         0      7201         1         0      7210         1         0
      7213         1         0      7216         1         0      7219         1         0
      7222         1         0      7225         1         0      7228         1         0
      7230         1         0      7232         1         0      7235         1         0
      7238         1         0      7241         1         0      7244         1         0
      7247         1         0      7250         1         0      7253         1         0
      7257         1         0      7260         1         0      7263         1         0
      7266         1         0      7269         1         0      7272         1         0
      7275         1         0      7278         1         0      7281         1         0
      7284         1         0      7287         1         0      7290         1         0
      7293         1         0      7296         1         0      7300         2         0
      7306         2         0      7309         2         0      7320         1         0
      7328         1         0      7337         1         0      7340         1         0
      7343         1         0      7346         1         0      7349         1         0
      7352         1         0      7355         1         0      7357         1         0
      7359         1         0      7362         1         0      7365         1         0
      7368         1         0      7371         1         0      7374         1         0
      7377         1         0      7380         1         0      7384         1         0
      7387         1         0      7390         1         0      7393         1         0
      7396         1         0      7399         1         0      7402         1         0
      7405         1         0      7408         1         0      7411         1         0
      7414         1         0      7417         1         0      7420         1         0
      7423         1         0      7427         2         0      7443         2         0
      7454         1         0      7462         1         0      7471         1         0
      7474         1         0      7477         1         0      7480         1         0
      7483         1         0      7486         1         0      7489         1         0
      7491         1         0      7493         1         0      7496         1         0
      7499         1         0      7502         1         0      7505         1         0
      7508         1         0      7511         1         0      7514         1         0
      7518         1         0      7521         1         0      7524         1         0
      7527         1         0      7530         1         0      7533         1         0
      7536         1         0      7539         1         0      7542         1         0
      7545         1         0      7548         1         0      7551         1         0
      7554         1         0      7557         1         0      7561         2         0
      7577         2         0      7588         1         0      7596         1         0
      7605         1         0      7608         1         0      7611         1         0
      7614         1         0      7617         1         0      7620         1         0
      7623         1         0      7625         1         0      7627         1         0
      7630         1         0      7633         1         0      7636         1         0
      7639         1         0      7642         1         0      7645         1         0
      7648         1         0      7652         1         0      7655         1         0
      7658         1         0      7661         1         0      7664         1         0
      7667         1         0      7670         1         0      7673         1         0
      7676         1         0      7679         1         0      7682         1         0
      7685         1         0      7688         1         0      7691         1         0
      7695         2         0      7711         2         0      7722         1         0
      7730         1         0      7739         1         0      7742         1         0
      7745         1         0      7748         1         0      7751         1         0
      7754         1         0      7757         1         0      7759         1         0
      7761         1         0      7764         1         0      7767         1         0
      7770         1         0      7773         1         0      7776         1         0
      7779         1         0      7782         1         0      7786         1         0
      7789         1         0      7792         1         0      7795         1         0
      7798         1         0      7801         1         0      7804         1         0
      7807         1         0      7810         1         0      7813         1         0
      7816         1         0      7819         1         0      7822         1         0
      7825         1         0      7829         2         0      7845         2         0
      7856         1         0      7864         1         0      7873         1         0
      7876         1         0      7879         1         0      7882         1         0
      7885         1         0      7888         1         0      7891         1         0
      7893         1         0      7895         1         0      7898         1         0
      7901         1         0      7904         1         0      7907         1         0
      7910         1         0      7913         1         0      7916         1         0
      7920         1         0      7923         1         0      7926         1         0
      7929         1         0      7932         1         0      7935         1         0
      7938         1         0      7941         1         0      7944         1         0
      7947         1         0      7950         1         0      7953         1         0
      7956         1         0      7959         1         0      7963         2         0
      7979         2         0      7990         1         0      7998         1         0
      8007         1         0      8010         1         0      8013         1         0
      8016         1         0      8019         1         0      8022         1         0
      8025         1         0      8027         1         0      8029         1         0
      8032         1         0      8035         1         0      8038         1         0
      8041         1         0      8044         1         0      8047         1         0
      8050         1         0      8054         1         0      8057         1         0
      8060         1         0      8063         1         0      8066         1         0
      8069         1         0      8072         1         0      8075         1         0
      8078         1         0      8081         1         0      8084         1         0
      8087         1         0      8090         1         0      8093         1         0
      8097         2         0      8103         2         0      8106         2         0
      8117         1         0      8125         1         0      8134         1         0
      8137         1         0      8140         1         0      8143         1         0
      8146         1         0      8149         1         0      8152         1         0
      8154         1         0      8156         1         0      8159         1         0
      8162         1         0      8165         1         0      8168         1         0
      8171         1         0      8174         1         0      8177         1         0
      8181         1         0      8184         1         0      8187         1         0
      8190         1         0      8193         1         0      8196         1         0
      8199         1         0      8202         1         0      8205         1         0
      8208         1         0      8211         1         0      8214         1         0
      8217         1         0      8220         1         0      8224         2         0
      8240         2         0      8251         1         0      8259         1         0
      8268         1         0      8271         1         0      8274         1         0
      8277         1         0      8280         1         0      8283         1         0
      8286         1         0      8288         1         0      8290         1         0
      8293         1         0      8296         1         0      8299         1         0
      8302         1         0      8305         1         0      8308         1         0
      8311         1         0      8315         1         0      8318         1         0
      8321         1         0      8324         1         0      8327         1         0
      8330         1         0      8333         1         0      8336         1         0
      8339         1         0      8342         1         0      8345         1         0
      8348         1         0      8351         1         0      8354         1         0
      8358         2         0      8374         2         0      8385         1         0
      8393         1         0      8402         1         0      8405         1         0
      8408         1         0      8411         1         0      8414         1         0
      8417         1         0      8420         1         0      8422         1         0
      8424         1         0      8427         1         0      8430         1         0
      8433         1         0      8436         1         0      8439         1         0
      8442         1         0      8445         1         0      8449         1         0
      8452         1         0      8455         1         0      8458         1         0
      8461         1         0      8464         1         0      8467         1         0
      8470         1         0      8473         1         0      8476         1         0
      8479         1         0      8482         1         0      8485         1         0
      8488         1         0      8492         2         0      8508         2         0
      8519         1         0      8527         1         0      8536         1         0
      8539         1         0      8542         1         0      8545         1         0
      8548         1         0      8551         1         0      8554         1         0
      8556         1         0      8558         1         0      8561         1         0
      8564         1         0      8567         1         0      8570         1         0
      8573         1         0      8576         1         0      8579         1         0
      8583         1         0      8586         1         0      8589         1         0
      8592         1         0      8595         1         0      8598         1         0
      8601         1         0      8604         1         0      8607         1         0
      8610         1         0      8613         1         0      8616         1         0
      8619         1         0      8622         1         0      8626         2         0
      8632         2         0      8635         2         0      8646         1         0
      8654         1         0      8663         1         0      8666         1         0
      8669         1         0      8672         1         0      8675         1         0
      8678         1         0      8681         1         0      8683         1         0
      8685         1         0      8688         1         0      8691         1         0
      8694         1         0      8697         1         0      8700         1         0
      8703         1         0      8706         1         0      8710         1         0
      8713         1         0      8716         1         0      8719         1         0
      8722         1         0      8725         1         0      8728         1         0
      8731         1         0      8734         1         0      8737         1         0
      8740         1         0      8743         1         0      8746         1         0
      8749         1         0      8753         2         0      8759         2         0
      8762         2         0      8773         1         0      8781         1         0
      8790         1         0      8793         1         0      8796         1         0
      8799         1         0      8802         1         0      8805         1         0
      8808         1         0      8810         1         0      8812         1         0
      8815         1         0      8818         1         0      8821         1         0
      8824         1         0      8827         1         0      8830         1         0
      8833         1         0      8837         1         0      8840         1         0
      8843         1         0      8846         1         0      8849         1         0
      8852         1         0      8855         1         0      8858         1         0
      8861         1         0      8864         1         0      8867         1         0
      8870         1         0      8873         1         0      8876         1         0
      8880         2         0      8896         2         0      8907         1         0
      8915         1         0      8924         1         0      8927         1         0
      8930         1         0      8933         1         0      8936         1         0
      8939         1         0      8942         1         0      8944         1         0
      8946         1         0      8949         1         0      8952         1         0
      8955         1         0      8958         1         0      8961         1         0
      8964         1         0      8967         1         0      8971         1         0
      8974         1         0      8977         1         0      8980         1         0
      8983         1         0      8986         1         0      8989         1         0
      8992         1         0      8995         1         0      8998         1         0
      9001         1         0      9004         1         0      9007         1         0
      9010         1         0      9014         2         0      9030         2         0
      9041         1         0      9049         1         0      9058         1         0
      9061         1         0      9064         1         0      9067         1         0
      9070         1         0      9073         1         0      9076         1         0
      9078         1         0      9080         1         0      9083         1         0
      9086         1         0      9089         1         0      9092         1         0
      9095         1         0      9098         1         0      9101         1         0
      9105         1         0      9108         1         0      9111         1         0
      9114         1         0      9117         1         0      9120         1         0
      9123         1         0      9126         1         0      9129         1         0
      9132         1         0      9135         1         0      9138         1         0
      9141         1         0      9144         1         0      9148         2         0
      9164         2         0      9175         1         0      9183         1         0
      9192         1         0      9195         1         0      9198         1         0
      9201         1         0      9204         1         0      9207         1         0
      9210         1         0      9212         1         0      9214         1         0
      9217         1         0      9220         1         0      9223         1         0
      9226         1         0      9229         1         0      9232         1         0
      9235         1         0      9239         1         0      9242         1         0
      9245         1         0      9248         1         0      9251         1         0
      9254         1         0      9257         1         0      9260         1         0
      9263         1         0      9266         1         0      9269         1         0
      9272         1         0      9275         1         0      9278         1         0
      9282         2         0      9288         2         0      9291         2         0
      9302         1         0      9310         1         0      9319         1         0
      9322         1         0      9325         1         0      9328         1         0
      9331         1         0      9334         1         0      9337         1         0
      9339         1         0      9341         1         0      9344         1         0
      9347         1         0      9350         1         0      9353         1         0
      9356         1         0      9359         1         0      9362         1         0
      9366         1         0      9369         1         0      9372         1         0
      9375         1         0      9378         1         0      9381         1         0
      9384         1         0      9387         1         0      9390         1         0
      9393         1         0      9396         1         0      9399         1         0
      9402         1         0      9405         1         0      9409         2         0
      9425         2         0      9436         1         0      9444         1         0
      9453         1         0      9456         1         0      9459         1         0
      9462         1         0      9465         1         0      9468         1         0
      9471         1         0      9473         1         0      9475         1         0
      9478         1         0      9481         1         0      9484         1         0
      9487         1         0      9490         1         0      9493         1         0
      9496         1         0      9500         1         0      9503         1         0
      9506         1         0      9509         1         0      9512         1         0
      9515         1         0      9518         1         0      9521         1         0
      9524         1         0      9527         1         0      9530         1         0
      9533         1         0      9536         1         0      9539         1         0
      9543         2         0      9559         2         0      9570         1         0
      9578         1         0      9587         1         0      9590         1         0
      9593         1         0      9596         1         0      9599         1         0
      9602         1         0      9605         1         0      9607         1         0
      9609         1         0      9612         1         0      9615         1         0
      9618         1         0      9621         1         0      9624         1         0
      9627         1         0      9630         1         0      9634         1         0
      9637         1         0      9640         1         0      9643         1         0
      9646         1         0      9649         1         0      9652         1         0
      9655         1         0      9658         1         0      9661         1         0
      9664         1         0      9667         1         0      9670         1         0
      9673         1         0      9677         2         0      9693         2         0
      9704         1         0      9712         1         0      9721         1         0
      9724         1         0      9727         1         0      9730         1         0
      9733         1         0      9736         1         0      9739         1         0
      9741         1         0      9743         1         0      9746         1         0
      9749         1         0      9752         1         0      9755         1         0
      9758         1         0      9761         1         0      9764         1         0
      9768         1         0      9771         1         0      9774         1         0
      9777         1         0      9780         1         0      9783         1         0
      9786         1         0      9789         1         0      9792         1         0
      9795         1         0      9798         1         0      9801         1         0
      9804         1         0      9807         1         0      9811         2         0
      9817         2         0      9820         2         0      9831         1         0
      9839         1         0      9848         1         0      9851         1         0
      9854         1         0      9857         1         0      9860         1         0
      9863         1         0      9866         1         0      9868         1         0
      9870         1         0      9873         1         0      9876         1         0
      9879         1         0      9882         1         0      9885         1         0
      9888         1         0      9891         1         0      9895         1         0
      9898         1         0      9901         1         0      9904         1         0
      9907         1         0      9910         1         0      9913         1         0
      9916         1         0      9919         1         0      9922         1         0
      9925         1         0      9928         1         0      9931         1         0
      9934         1         0      9938         2         0      9954         2         0
      9965         1         0      9973         1         0      9982         1         0
      9985         1         0      9988         1         0      9991         1         0
      9994         1         0      9997         1         0     10000         1         0
     10002         1         0     10004         1         0     10007         1         0
     10010         1         0     10013         1         0     10016         1         0
     10019         1         0     10022         1         0     10025         1         0
     10029         1         0     10032         1         0     10035         1         0
     10038         1         0     10041         1         0     10044         1         0
     10047         1         0     10050         1         0     10053         1         0
     10056         1         0     10059         1         0     10062         1         0
     10065         1         0     10068         1         0     10072         2         0
     10088         2         0     10099         1         0     10107         1         0
     10116         1         0     10119         1         0     10122         1         0
     10125         1         0     10128         1         0     10131         1         0
     10134         1         0     10136         1         0     10138         1         0
     10141         1         0     10144         1         0     10147         1         0
     10150         1         0     10153         1         0     10156         1         0
     10159         1         0     10163         1         0     10166         1         0
     10169         1         0     10172         1         0     10175         1         0
     10178         1         0     10181         1         0     10184         1         0
     10187         1         0     10190         1         0     10193         1         0
     10196         1         0     10199         1         0     10202         1         0
     10206         2         0     10222         2         0     10233         1         0
     10241         1         0     10250         1         0     10253         1         0
     10256         1         0     10259         1         0     10262         1         0
     10265         1         0     10268         1         0     10270         1         0
     10272         1         0     10275         1         0     10278         1         0
     10281         1         0     10284         1         0     10287         1         0
     10290         1         0     10293         1         0     10297         1         0
     10300         1         0     10303         1         0     10306         1         0
     10309         1         0     10312         1         0     10315         1         0
     10318         1         0     10321         1         0     10324         1         0
     10327         1         0     10330         1         0     10333         1         0
     10336         1         0     10340         2         0     10356         2         0
     10367         1         0     10375         1         0     10384         1         0
     10387         1         0     10390         1         0     10393         1         0
     10396         1         0     10399         1         0     10402         1         0
     10404         1         0     10406         1         0     10409         1         0
     10412         1         0     10415         1         0     10418         1         0
     10421         1         0     10424         1         0     10427         1         0
     10431         1         0     10434         1         0     10437         1         0
     10440         1         0     10443         1         0     10446         1         0
     10449         1         0     10452         1         0     10455         1         0
     10458         1         0     10461         1         0     10464         1         0
     10467         1         0     10470         1         0     10474         2         0
     10480         2         0     10483         2         0     10494         1         0
     10502         1         0     10511         1         0     10514         1         0
     10517         1         0     10520         1         0     10523         1         0
     10526         1         0     10529         1         0     10531         1         0
     10533         1         0     10536         1         0     10539         1         0
     10542         1         0     10545         1         0     10548         1         0
     10551         1         0     10554         1         0     10558         1         0
     10561         1         0     10564         1         0     10567         1         0
     10570         1         0     10573         1         0     10576         1         0
     10579         1         0     10582         1         0     10585         1         0
     10588         1         0     10591         1         0     10594         1         0
     10597         1         0     10601         2         0     10607         2         0
     10610         2         0     10621         1         0     10629         1         0
     10638         1         0     10641         1         0     10644         1         0
     10647         1         0     10650         1         0     10653         1         0
     10656         1         0     10658         1         0     10660         1         0
     10663         1         0     10666         1         0     10669         1         0
     10672         1         0     10675         1         0     10678         1         0
     10681         1         0     10685         1         0     10688         1         0
     10691         1         0     10694         1         0     10697         1         0
     10700         1         0     10703         1         0     10706         1         0
     10709         1         0     10712         1         0     10715         1         0
     10718         1         0     10721         1         0     10724         1         0
     10728         2         0     10734         2         0     10737         2         0
     10748         1         0     10756         1         0     10765         1         0
     10768         1         0     10771         1         0     10774         1         0
     10777         1         0     10780         1         0     10783         1         0
     10785         1         0     10787         1         0     10790         1         0
     10793         1         0     10796         1         0     10799         1         0
     10802         1         0     10805         1         0     10808         1         0
     10812         1         0     10815         1         0     10818         1         0
     10821         1         0     10824         1         0     10827         1         0
     10830         1         0     10833         1         0     10836         1         0
     10839         1         0     10842         1         0     10845         1         0
     10848         1         0     10851         1         0     10855         2         0
     10871         2         0     10882         1         0     10890         1         0
     10899         1         0     10902         1         0     10905         1         0
     10908         1         0     10911         1         0     10914         1         0
     10917         1         0     10919         1         0     10921         1         0
     10924         1         0     10927         1         0     10930         1         0
     10933         1         0     10936         1         0     10939         1         0
     10942         1         0     10946         1         0     10949         1         0
     10952         1         0     10955         1         0     10958         1         0
     10961         1         0     10964         1         0     10967         1         0
     10970         1         0     10973         1         0     10976         1         0
     10979         1         0     10982         1         0     10985         1         0
     10989         2         0     11005         2         0     11016         1         0
     11024         1         0     11033         1         0     11036         1         0
     11039         1         0     11042         1         0     11045         1         0
     11048         1         0     11051         1         0     11053         1         0
     11055         1         0     11058         1         0     11061         1         0
     11064         1         0     11067         1         0     11070         1         0
     11073         1         0     11076         1         0     11080         1         0
     11083         1         0     11086         1         0     11089         1         0
     11092         1         0     11095         1         0     11098         1         0
     11101         1         0     11104         1         0     11107         1         0
     11110         1         0     11113         1         0     11116         1         0
     11119         1         0     11123         2         0     11139         2         0
     11150         1         0     11158         1         0     11167         1         0
     11170         1         0     11173         1         0     11176         1         0
     11179         1         0     11182         1         0     11185         1         0
     11187         1         0     11189         1         0     11192         1         0
     11195         1         0     11198         1         0     11201         1         0
     11204         1         0     11207         1         0     11210         1         0
     11214         1         0     11217         1         0     11220         1         0
     11223         1         0     11226         1         0     11229         1         0
     11232         1         0     11235         1         0     11238         1         0
     11241         1         0     11244         1         0     11247         1         0
     11250         1         0     11253         1         0     11257         2         0
     11273         2         0     11284         1         0     11292         1         0
     11301         1         0     11304         1         0     11307         1         0
     11310         1         0     11313         1         0     11316         1         0
     11319         1         0     11321         1         0     11323         1         0
     11326         1         0     11329         1         0     11332         1         0
     11335         1         0     11338         1         0     11341         1         0
     11344         1         0     11348         1         0     11351         1         0
     11354         1         0     11357         1         0     11360         1         0
     11363         1         0     11366         1         0     11369         1         0
     11372         1         0     11375         1         0     11378         1         0
     11381         1         0     11384         1         0     11387         1         0
     11391         2         0     11407         2         0     11418         1         0
     11426         1         0     11435         1         0     11438         1         0
     11441         1         0     11444         1         0     11447         1         0
     11450         1         0     11453         1         0     11455         1         0
     11457         1         0     11460         1         0     11463         1         0
     11466         1         0     11469         1         0     11472         1         0
     11475         1         0     11478         1         0     11482         1         0
     11485         1         0     11488         1         0     11491         1         0
     11494         1         0     11497         1         0     11500         1         0
     11503         1         0     11506         1         0     11509         1         0
     11512         1         0     11515         1         0     11518         1         0
     11521         1         0     11525         2         0     11541         2         0
     11552         1         0     11560         1         0     11569         1         0
     11572         1         0     11575         1         0     11578         1         0
     11581         1         0     11584         1         0     11587         1         0
     11589         1         0     11591         1         0     11594         1         0
     11597         1         0     11600         1         0     11603         1         0
     11606         1         0     11609         1         0     11612         1         0
     11616         1         0     11619         1         0     11622         1         0
     11625         1         0     11628         1         0     11631         1         0
     11634         1         0     11637         1         0     11640         1         0
     11643         1         0     11646         1         0     11649         1         0
     11652         1         0     11655         1         0     11659         2         0
     11675         2         0     11686         1         0     11694         1         0
     11703         1         0     11706         1         0     11709         1         0
     11712         1         0     11715         1         0     11718         1         0
     11721         1         0     11723         1         0     11725         1         0
     11728         1         0     11731         1         0     11734         1         0
     11737         1         0     11740         1         0     11743         1         0
     11746         1         0     11750         1         0     11753         1         0
     11756         1         0     11759         1         0     11762         1         0
     11765         1         0     11768         1         0     11771         1         0
     11774         1         0     11777         1         0     11780         1         0
     11783         1         0     11786         1         0     11789         1         0
     11793         2         0     11809         2         0     11820         1         0
     11828         1         0     11837         1         0     11840         1         0
     11843         1         0     11846         1         0     11849         1         0
     11852         1         0     11855         1         0     11857         1         0
     11859         1         0     11862         1         0     11865         1         0
     11868         1         0     11871         1         0     11874         1         0
     11877         1         0     11880         1         0     11884         1         0
     11887         1         0     11890         1         0     11893         1         0
     11896         1         0     11899         1         0     11902         1         0
     11905         1         0     11908         1         0     11911         1         0
     11914         1         0     11917         1         0     11920         1         0
     11923         1         0     11927         2         0     11943         2         0
     11954         1         0     11962         1         0     11971         1         0
     11974         1         0     11977         1         0     11980         1         0
     11983         1         0     11986         1         0     11989         1         0
     11991         1         0     11993         1         0     11996         1         0
     11999         1         0     12002         1         0     12005         1         0
     12008         1         0     12011         1         0     12014         1         0
     12018         1         0     12021         1         0     12024         1         0
     12027         1         0     12030         1         0     12033         1         0
     12036         1         0     12039         1         0     12042         1         0
     12045         1         0     12048         1         0     12051         1         0
     12054         1         0     12057         1         0     12061         2         0
     12067         2         0     12070         2         0     12081         1         0
     12089         1         0     12098         1         0     12101         1         0
     12104         1         0     12107         1         0     12110         1         0
     12113         1         0     12116         1         0     12118         1         0
     12120         1         0     12123         1         0     12126         1         0
     12129         1         0     12132         1         0     12135         1         0
     12138         1         0     12141         1         0     12145         1         0
     12148         1         0     12151         1         0     12154         1         0
     12157         1         0     12160         1         0     12163         1         0
     12166         1         0     12169         1         0     12172         1         0
     12175         1         0     12178         1         0     12181         1         0
     12184         1         0     12188         2         0     12204         2         0
     12215         1         0     12223         1         0     12232         1         0
     12235         1         0     12238         1         0     12241         1         0
     12244         1         0     12247         1         0     12250         1         0
     12252         1         0     12254         1         0     12257         1         0
     12260         1         0     12263         1         0     12266         1         0
     12269         1         0     12272         1         0     12275         1         0
     12279         1         0     12282         1         0     12285         1         0
     12288         1         0     12291         1         0     12294         1         0
     12297         1         0     12300         1         0     12303         1         0
     12306         1         0     12309         1         0     12312         1         0
     12315         1         0     12318         1         0     12322         2         0
     12338         2         0     12349         1         0     12357         1         0
     12366         1         0     12369         1         0     12372         1         0
     12375         1         0     12378         1         0     12381         1         0
     12384         1         0     12386         1         0     12388         1         0
     12391         1         0     12394         1         0     12397         1         0
     12400         1         0     12403         1         0     12406         1         0
     12409         1         0     12413         1         0     12416         1         0
     12419         1         0     12422         1         0     12425         1         0
     12428         1         0     12431         1         0     12434         1         0
     12437         1         0     12440         1         0     12443         1         0
     12446         1         0     12449         1         0     12452         1         0
     12456         2         0     12472         2         0     12483         1         0
     12491         1         0     12500         1         0     12503         1         0
     12506         1         0     12509         1         0     12512         1         0
     12515         1         0     12518         1         0     12520         1         0
     12522         1         0     12525         1         0     12528         1         0
     12531         1         0     12534         1         0     12537         1         0
     12540         1         0     12543         1         0     12547         1         0
     12550         1         0     12553         1         0     12556         1         0
     12559         1         0     12562         1         0     12565         1         0
     12568         1         0     12571         1         0     12574         1         0
     12577         1         0     12580         1         0     12583         1         0
     12586         1         0     12590         2         0     12606         2         0
     12617         1         0     12625         1         0     12634         1         0
     12637         1         0     12640         1         0     12643         1         0
     12646         1         0     12649         1         0     12652         1         0
     12654         1         0     12656         1         0     12659         1         0
     12662         1         0     12665         1         0     12668         1         0
     12671         1         0     12674         1         0     12677         1         0
     12681         1         0     12684         1         0     12687         1         0
     12690         1         0     12693         1         0     12696         1         0
     12699         1         0     12702         1         0     12705         1         0
     12708         1         0     12711         1         0     12714         1         0
     12717         1         0     12720         1         0     12724         2         0
     12740         2         0     12751         1         0     12759         1         0
     12768         1         0     12771         1         0     12774         1         0
     12777         1         0     12780         1         0     12783         1         0
     12786         1         0     12788         1         0     12790         1         0
     12793         1         0     12796         1         0     12799         1         0
     12802         1         0     12805         1         0     12808         1         0
     12811         1         0     12815         1         0     12818         1         0
     12821         1         0     12824         1         0     12827         1         0
     12830         1         0     12833         1         0     12836         1         0
     12839         1         0     12842         1         0     12845         1         0
     12848         1         0     12851         1         0     12854         1         0
     12858         2         0     12864         2         0     12867         2         0
     12878         1         0     12886         1         0     12895         1         0
     12898         1         0     12901         1         0     12904         1         0
     12907         1         0     12910         1         0     12913         1         0
     12915         1         0     12917         1         0     12920         1         0
     12923         1         0     12926         1         0     12929         1         0
     12932         1         0     12935         1         0     12938         1         0
     12942         1         0     12945         1         0     12948         1         0
     12951         1         0     12954         1         0     12957         1         0
     12960         1         0     12963         1         0     12966         1         0
     12969         1         0     12972         1         0     12975         1         0
     12978         1         0     12981         1         0     12985         2         0
     13001         2         0     13012         1         0     13020         1         0
     13029         1         0     13032         1         0     13035         1         0
     13038         1         0     13041         1         0     13044         1         0
     13047         1         0     13049         1         0     13051         1         0
     13054         1         0     13057         1         0     13060         1         0
     13063         1         0     13066         1         0     13069         1         0
     13072         1         0     13076         1         0     13079         1         0
     13082         1         0     13085         1         0     13088         1         0
     13091         1         0     13094         1         0     13097         1         0
     13100         1         0     13103         1         0     13106         1         0
     13109         1         0     13112         1         0     13115         1         0
     13119         2         0     13135         2         0     13146         1         0
     13154         1         0     13163         1         0     13166         1         0
     13169         1         0     13172         1         0     13175         1         0
     13178         1         0     13181         1         0     13183         1         0
     13185         1         0     13188         1         0     13191         1         0
     13194         1         0     13197         1         0     13200         1         0
     13203         1         0     13206         1         0     13210         1         0
     13213         1         0     13216         1         0     13219         1         0
     13222         1         0     13225         1         0     13228         1         0
     13231         1         0     13234         1         0     13237         1         0
     13240         1         0     13243         1         0     13246         1         0
     13249         1         0     13253         2         0     13269         2         0
     13280         1         0     13288         1         0     13297         1         0
     13300         1         0     13303         1         0     13306         1         0
     13309         1         0     13312         1         0     13315         1         0
     13317         1         0     13319         1         0     13322         1         0
     13325         1         0     13328         1         0     13331         1         0
     13334         1         0     13337         1         0     13340         1         0
     13344         1         0     13347         1         0     13350         1         0
     13353         1         0     13356         1         0     13359         1         0
     13362         1         0     13365         1         0     13368         1         0
     13371         1         0     13374         1         0     13377         1         0
     13380         1         0     13383         1         0     13387         2         0
     13403         2         0     13414         1         0     13422         1         0
     13431         1         0     13434         1         0     13437         1         0
     13440         1         0     13443         1         0     13446         1         0
     13449         1         0     13451         1         0     13453         1         0
     13456         1         0     13459         1         0     13462         1         0
     13465         1         0     13468         1         0     13471         1         0
     13474         1         0     13478         1         0     13481         1         0
     13484         1         0     13487         1         0     13490         1         0
     13493         1         0     13496         1         0     13499         1         0
     13502         1         0     13505         1         0     13508         1         0
     13511         1         0     13514         1         0     13517         1         0
     13521         2         0     13527         2         0     13530         2         0
     13541         1         0     13549         1         0     13558         1         0
     13561         1         0     13564         1         0     13567         1         0
     13570         1         0     13573         1         0     13576         1         0
     13578         1         0     13580         1         0     13583         1         0
     13586         1         0     13589         1         0     13592         1         0
     13595         1         0     13598         1         0     13601         1         0
     13605         1         0     13608         1         0     13611         1         0
     13614         1         0     13617         1         0     13620         1         0
     13623         1         0     13626         1         0     13629         1         0
     13632         1         0     13635         1         0     13638         1         0
     13641         1         0     13644         1         0     13648         2         0
     13664         2         0     13675         1         0     13683         1         0
     13692         1         0     13695         1         0     13698         1         0
     13701         1         0     13704         1         0     13707         1         0
     13710         1         0     13712         1         0     13714         1         0
     13717         1         0     13720         1         0     13723         1         0
     13726         1         0     13729         1         0     13732         1         0
     13735         1         0     13739         1         0     13742         1         0
     13745         1         0     13748         1         0     13751         1         0
     13754         1         0     13757         1         0     13760         1         0
     13763         1         0     13766         1         0     13769         1         0
     13772         1         0     13775         1         0     13778         1         0
     13782         2         0     13798         2         0     13809         1         0
     13817         1         0     13826         1         0     13829         1         0
     13832         1         0     13835         1         0     13838         1         0
     13841         1         0     13844         1         0     13846         1         0
     13848         1         0     13851         1         0     13854         1         0
     13857         1         0     13860         1         0     13863         1         0
     13866         1         0     13869         1         0     13873         1         0
     13876         1         0     13879         1         0     13882         1         0
     13885         1         0     13888         1         0     13891         1         0
     13894         1         0     13897         1         0     13900         1         0
     13903         1         0     13906         1         0     13909         1         0
     13912         1         0     13916         2         0     13932         2         0
     13943         1         0     13951         1         0     13960         1         0
     13963         1         0     13966         1         0     13969         1         0
     13972         1         0     13975         1         0     13978         1         0
     13980         1         0     13982         1         0     13985         1         0
     13988         1         0     13991         1         0     13994         1         0
     13997         1         0     14000         1         0     14003         1         0
     14007         1         0     14010         1         0     14013         1         0
     14016         1         0     14019         1         0     14022         1         0
     14025         1         0     14028         1         0     14031         1         0
     14034         1         0     14037         1         0     14040         1         0
     14043         1         0     14046         1         0     14050         2         0
     14066         2         0     14077         1         0     14085         1         0
     14094         1         0     14097         1         0     14100         1         0
     14103         1         0     14106         1         0     14109         1         0
     14112         1         0     14114         1         0     14116         1         0
     14119         1         0     14122         1         0     14125         1         0
     14128         1         0     14131         1         0     14134         1         0
     14137         1         0     14141         1         0     14144         1         0
     14147         1         0     14150         1         0     14153         1         0
     14156         1         0     14159         1         0     14162         1         0
     14165         1         0     14168         1         0     14171         1         0
     14174         1         0     14177         1         0     14180         1         0
     14184         2         0     14200         2         0     14211         1         0
     14219         1         0     14228         1         0     14231         1         0
     14234         1         0     14237         1         0     14240         1         0
     14243         1         0     14246         1         0     14248         1         0
     14250         1         0     14253         1         0     14256         1         0
     14259         1         0     14262         1         0     14265         1         0
     14268         1         0     14271         1         0     14275         1         0
     14278         1         0     14281         1         0     14284         1         0
     14287         1         0     14290         1         0     14293         1         0
     14296         1         0     14299         1         0     14302         1         0
     14305         1         0     14308         1         0     14311         1         0
     14314         1         0     14318         2         0     14334         2         0
     14345         1         0     14353         1         0     14362         1         0
     14365         1         0     14368         1         0     14371         1         0
     14374         1         0     14377         1         0     14380         1         0
     14382         1         0     14384         1         0     14387         1         0
     14390         1         0     14393         1         0     14396         1         0
     14399         1         0     14402         1         0     14405         1         0
     14409         1         0     14412         1         0     14415         1         0
     14418         1         0     14421         1         0     14424         1         0
     14427         1         0     14430         1         0     14433         1         0
     14436         1         0     14439         1         0     14442         1         0
     14445         1         0     14448         1         0     14452         2         0
     14468         2         0     14479         1         0     14487         1         0
     14496         1         0     14499         1         0     14502         1         0
     14505         1         0     14508         1         0     14511         1         0
     14514         1         0     14516         1         0     14518         1         0
     14521         1         0     14524         1         0     14527         1         0
     14530         1         0     14533         1         0     14536         1         0
     14539         1         0     14543         1         0     14546         1         0
     14549         1         0     14552         1         0     14555         1         0
     14558         1         0     14561         1         0     14564         1         0
     14567         1         0     14570         1         0     14573         1         0
     14576         1         0     14579         1         0     14582         1         0
     14586         2         0     14602         2         0     14613         1         0
     14621         1         0     14630         1         0     14633         1         0
     14636         1         0     14639         1         0     14642         1         0
     14645         1         0     14648         1         0     14650         1         0
     14652         1         0     14655         1         0     14658         1         0
     14661         1         0     14664         1         0     14667         1         0
     14670         1         0     14673         1         0     14677         1         0
     14680         1         0     14683         1         0     14686         1         0
     14689         1         0     14692         1         0     14695         1         0
     14698         1         0     14701         1         0     14704         1         0
     14707         1         0     14710         1         0     14713         1         0
     14716         1         0     14720         2         0     14736         2         0
     14747         1         0     14755         1         0     14764         1         0
     14767         1         0     14770         1         0     14773         1         0
     14776         1         0     14779         1         0     14782         1         0
     14784         1         0     14786         1         0     14789         1         0
     14792         1         0     14795         1         0     14798         1         0
     14801         1         0     14804         1         0     14807         1         0
     14811         1         0     14814         1         0     14817         1         0
     14820         1         0     14823         1         0     14826         1         0
     14829         1         0     14832         1         0     14835         1         0
     14838         1         0     14841         1         0     14844         1         0
     14847         1         0     14850         1         0     14854         2         0
     14870         2         0     14881         1         0     14889         1         0
     14898         1         0     14901         1         0     14904         1         0
     14907         1         0     14910         1         0     14913         1         0
     14916         1         0     14918         1         0     14920         1         0
     14923         1         0     14926         1         0     14929         1         0
     14932         1         0     14935         1         0     14938         1         0
     14941         1         0     14945         1         0     14948         1         0
     14951         1         0     14954         1         0     14957         1         0
     14960         1         0     14963         1         0     14966         1         0
     14969         1         0     14972         1         0     14975         1         0
     14978         1         0     14981         1         0     14984         1         0
     14988         2         0     14994         2         0     14997         2         0
     15008         1         0     15016         1         0     15025         1         0
     15028         1         0     15031         1         0     15034         1         0
     15037         1         0     15040         1         0     15043         1         0
     15045         1         0     15047         1         0     15050         1         0
     15053         1         0     15056         1         0     15059         1         0
     15062         1         0     15065         1         0     15068         1         0
     15072         1         0     15075         1         0     15078         1         0
     15081         1         0     15084         1         0     15087         1         0
     15090         1         0     15093         1         0     15096         1         0
     15099         1         0     15102         1         0     15105         1         0
     15108         1         0     15111         1         0     15115         2         0
     15131         2         0     15142         1         0     15150         1         0
     15159         1         0     15162         1         0     15165         1         0
     15168         1         0     15171         1         0     15174         1         0
     15177         1         0     15179         1         0     15181         1         0
     15184         1         0     15187         1         0     15190         1         0
     15193         1         0     15196         1         0     15199         1         0
     15202         1         0     15206         1         0     15209         1         0
     15212         1         0     15215         1         0     15218         1         0
     15221         1         0     15224         1         0     15227         1         0
     15230         1         0     15233         1         0     15236         1         0
     15239         1         0     15242         1         0     15245         1         0
     15249         2         0     15255         2         0     15258         2         0
     15269         1         0     15277         1         0     15286         1         0
     15289         1         0     15292         1         0     15295         1         0
     15298         1         0     15301         1         0     15304         1         0
     15306         1         0     15308         1         0     15311         1         0
     15314         1         0     15317         1         0     15320         1         0
     15323         1         0     15326         1         0     15329         1         0
     15333         1         0     15336         1         0     15339         1         0
     15342         1         0     15345         1         0     15348         1         0
     15351         1         0     15354         1         0     15357         1         0
     15360         1         0     15363         1         0     15366         1         0
     15369         1         0     15372         1         0     15376         2         0
     15392         2         0     15403         1         0     15411         1         0
     15420         1         0     15423         1         0     15426         1         0
     15429         1         0     15432         1         0     15435         1         0
     15438         1         0     15440         1         0     15442         1         0
     15445         1         0     15448         1         0     15451         1         0
     15454         1         0     15457         1         0     15460         1         0
     15463         1         0     15467         1         0     15470         1         0
     15473         1         0     15476         1         0     15479         1         0
     15482         1         0     15485         1         0     15488         1         0
     15491         1         0     15494         1         0     15497         1         0
     15500         1         0     15503         1         0     15506         1         0
     15510         2         0     15526         2         0     15537         1         0
     15545         1         0     15554         1         0     15557         1         0
     15560         1         0     15563         1         0     15566         1         0
     15569         1         0     15572         1         0     15574         1         0
     15576         1         0     15579         1         0     15582         1         0
     15585         1         0     15588         1         0     15591         1         0
     15594         1         0     15597         1         0     15601         1         0
     15604         1         0     15607         1         0     15610         1         0
     15613         1         0     15616         1         0     15619         1         0
     15622         1         0     15625         1         0     15628         1         0
     15631         1         0     15634         1         0     15637         1         0
     15640         1         0     15644         2         0     15650         2         0
     15653         2         0     15664         1         0     15672         1         0
     15681         1         0     15684         1         0     15687         1         0
     15690         1         0     15693         1         0     15696         1         0
     15699         1         0     15701         1         0     15703         1         0
     15706         1         0     15709         1         0     15712         1         0
     15715         1         0     15718         1         0     15721         1         0
     15724         1         0     15728         1         0     15731         1         0
     15734         1         0     15737         1         0     15740         1         0
     15743         1         0     15746         1         0     15749         1         0
     15752         1         0     15755         1         0     15758         1         0
     15761         1         0     15764         1         0     15767         1         0
     15771         2         0     15787         2         0     15798         1         0
     15806         1         0     15815         1         0     15818         1         0
     15821         1         0     15824         1         0     15827         1         0
     15830         1         0     15833         1         0     15835         1         0
     15837         1         0     15840         1         0     15843         1         0
     15846         1         0     15849         1         0     15852         1         0
     15855         1         0     15858         1         0     15862         1         0
     15865         1         0     15868         1         0     15871         1         0
     15874         1         0     15877         1         0     15880         1         0
     15883         1         0     15886         1         0     15889         1         0
     15892         1         0     15895         1         0     15898         1         0
     15901         1         0     15905         2         0     15921         2         0
     15932         1         0     15940         1         0     15949         1         0
     15952         1         0     15955         1         0     15958         1         0
     15961         1         0     15964         1         0     15967         1         0
     15969         1         0     15971         1         0     15974         1         0
     15977         1         0     15980         1         0     15983         1         0
     15986         1         0     15989         1         0     15992         1         0
     15996         1         0     15999         1         0     16002         1         0
     16005         1         0     16008         1         0     16011         1         0
     16014         1         0     16017         1         0     16020         1         0
     16023         1         0     16026         1         0     16029         1         0
     16032         1         0     16035         1         0     16039         2         0
     16055         2         0     16066         1         0     16074         1         0
     16083         1         0     16086         1         0     16089         1         0
     16092         1         0     16095         1         0     16098         1         0
     16101         1         0     16103         1         0     16105         1         0
     16108         1         0     16111         1         0     16114         1         0
     16117         1         0     16120         1         0     16123         1         0
     16126         1         0     16130         1         0     16133         1         0
     16136         1         0     16139         1         0     16142         1         0
     16145         1         0     16148         1         0     16151         1         0
     16154         1         0     16157         1         0     16160         1         0
     16163         1         0     16166         1         0     16169         1         0
     16173         2         0     16189         2         0     16200         1         0
     16208         1         0     16217         1         0     16220         1         0
     16223         1         0     16226         1         0     16229         1         0
     16232         1         0     16235         1         0     16237         1         0
     16239         1         0     16242         1         0     16245         1         0
     16248         1         0     16251         1         0     16254         1         0
     16257         1         0     16260         1         0     16264         1         0
     16267         1         0     16270         1         0     16273         1         0
     16276         1         0     16279         1         0     16282         1         0
     16285         1         0     16288         1         0     16291         1         0
     16294         1         0     16297         1         0     16300         1         0
     16303         1         0     16307         2         0     16313         2         0
     16316         2         0     16327         1         0     16335         1         0
     16344         1         0     16347         1         0     16350         1         0
     16353         1         0     16356         1         0     16359         1         0
     16362         1         0     16364         1         0     16366         1         0
     16369         1         0     16372         1         0     16375         1         0
     16378         1         0     16381         1         0     16384         1         0
     16387         1         0     16391         1         0     16394         1         0
     16397         1         0     16400         1         0     16403         1         0
     16406         1         0     16409         1         0     16412         1         0
     16415         1         0     16418         1         0     16421         1         0
     16424         1         0     16427         1         0     16430         1         0
     16434         2         0     16450         2         0     16461         1         0
     16469         1         0     16478         1         0     16481         1         0
     16484         1         0     16487         1         0     16490         1         0
     16493         1         0     16496         1         0     16498         1         0
     16500         1         0     16503         1         0     16506         1         0
     16509         1         0     16512         1         0     16515         1         0
     16518         1         0     16521         1         0     16525         1         0
     16528         1         0     16531         1         0     16534         1         0
     16537         1         0     16540         1         0     16543         1         0
     16546         1         0     16549         1         0     16552         1         0
     16555         1         0     16558         1         0     16561         1         0
     16564         1         0     16568         2         0     16584         2         0
     16595         1         0     16603         1         0     16612         1         0
     16615         1         0     16618         1         0     16621         1         0
     16624         1         0     16627         1         0     16630         1         0
     16632         1         0     16634         1         0     16637         1         0
     16640         1         0     16643         1         0     16646         1         0
     16649         1         0     16652         1         0     16655         1         0
     16659         1         0     16662         1         0     16665         1         0
     16668         1         0     16671         1         0     16674         1         0
     16677         1         0     16680         1         0     16683         1         0
     16686         1         0     16689         1         0     16692         1         0
     16695         1         0     16698         1         0     16702         2         0
     16708         2         0     16711         2         0     16722         1         0
     16730         1         0     16739         1         0     16742         1         0
     16745         1         0     16748         1         0     16751         1         0
     16754         1         0     16757         1         0     16759         1         0
     16761         1         0     16764         1         0     16767         1         0
     16770         1         0     16773         1         0     16776         1         0
     16779         1         0     16782         1         0     16786         1         0
     16789         1         0     16792         1         0     16795         1         0
     16798         1         0     16801         1         0     16804         1         0
     16807         1         0     16810         1         0     16813         1         0
     16816         1         0     16819         1         0     16822         1         0
     16825         1         0     16829         2         0     16845         2         0
     16856         1         0     16864         1         0     16873         1         0
     16876         1         0     16879         1         0     16882         1         0
     16885         1         0     16888         1         0     16891         1         0
     16893         1         0     16895         1         0     16898         1         0
     16901         1         0     16904         1         0     16907         1         0
     16910         1         0     16913         1         0     16916         1         0
     16920         1         0     16923         1         0     16926         1         0
     16929         1         0     16932         1         0     16935         1         0
     16938         1         0     16941         1         0     16944         1         0
     16947         1         0     16950         1         0     16953         1         0
     16956         1         0     16959         1         0     16963         2         0
     16979         2         0     16990         1         0     16998         1         0
     17007         1         0     17010         1         0     17013         1         0
     17016         1         0     17019         1         0     17022         1         0
     17025         1         0     17027         1         0     17029         1         0
     17032         1         0     17035         1         0     17038         1         0
     17041         1         0     17044         1         0     17047         1         0
     17050         1         0     17054         1         0     17057         1         0
     17060         1         0     17063         1         0     17066         1         0
     17069         1         0     17072         1         0     17075         1         0
     17078         1         0     17081         1         0     17084         1         0
     17087         1         0     17090         1         0     17093         1         0
     17097         2         0     17113         2         0     17124         1         0
     17132         1         0     17141         1         0     17144         1         0
     17147         1         0     17150         1         0     17153         1         0
     17156         1         0     17159         1         0     17161         1         0
     17163         1         0     17166         1         0     17169         1         0
     17172         1         0     17175         1         0     17178         1         0
     17181         1         0     17184         1         0     17188         1         0
     17191         1         0     17194         1         0     17197         1         0
     17200         1         0     17203         1         0     17206         1         0
     17209         1         0     17212         1         0     17215         1         0
     17218         1         0     17221         1         0     17224         1         0
     17227         1         0     17231         2         0     17237         2         0
     17240         2         0     17251         1         0     17259         1         0
     17268         1         0     17271         1         0     17274         1         0
     17277         1         0     17280         1         0     17283         1         0
     17286         1         0     17288         1         0     17290         1         0
     17293         1         0     17296         1         0     17299         1         0
     17302         1         0     17305         1         0     17308         1         0
     17311         1         0     17315         1         0     17318         1         0
     17321         1         0     17324         1         0     17327         1         0
     17330         1         0     17333         1         0     17336         1         0
     17339         1         0     17342         1         0     17345         1         0
     17348         1         0     17351         1         0     17354         1         0
     17358         2         0     17374         2         0     17385         1         0
     17393         1         0     17402         1         0     17405         1         0
     17408         1         0     17411         1         0     17414         1         0
     17417         1         0     17420         1         0     17422         1         0
     17424         1         0     17427         1         0     17430         1         0
     17433         1         0     17436         1         0     17439         1         0
     17442         1         0     17445         1         0     17449         1         0
     17452         1         0     17455         1         0     17458         1         0
     17461         1         0     17464         1         0     17467         1         0
     17470         1         0     17473         1         0     17476         1         0
     17479         1         0     17482         1         0     17485         1         0
     17488         1         0     17492         2         0     17498         2         0
     17501         2         0     17512         1         0     17520         1         0
     17529         1         0     17532         1         0     17535         1         0
     17538         1         0     17541         1         0     17544         1         0
     17547         1         0     17549         1         0     17551         1         0
     17554         1         0     17557         1         0     17560         1         0
     17563         1         0     17566         1         0     17569         1         0
     17572         1         0     17576         1         0     17579         1         0
     17582         1         0     17585         1         0     17588         1         0
     17591         1         0     17594         1         0     17597         1         0
     17600         1         0     17603         1         0     17606         1         0
     17609         1         0     17612         1         0     17615         1         0
     17619         2         0     17635         2         0     17646         1         0
     17654         1         0     17663         1         0     17666         1         0
     17669         1         0     17672         1         0     17675         1         0
     17678         1         0     17681         1         0     17683         1         0
     17685         1         0     17688         1         0     17691         1         0
     17694         1         0     17697         1         0     17700         1         0
     17703         1         0     17706         1         0     17710         1         0
     17713         1         0     17716         1         0     17719         1         0
     17722         1         0     17725         1         0     17728         1         0
     17731         1         0     17734         1         0     17737         1         0
     17740         1         0     17743         1         0     17746         1         0
     17749         1         0     17753         2         0     17769         2         0
     17780         1         0     17788         1         0     17797         1         0
     17800         1         0     17803         1         0     17806         1         0
     17809         1         0     17812         1         0     17815         1         0
     17817         1         0     17819         1         0     17822         1         0
     17825         1         0     17828         1         0     17831         1         0
     17834         1         0     17837         1         0     17840         1         0
     17844         1         0     17847         1         0     17850         1         0
     17853         1         0     17856         1         0     17859         1         0
     17862         1         0     17865         1         0     17868         1         0
     17871         1         0     17874         1         0     17877         1         0
     17880         1         0     17883         1         0     17887         2         0
     17903         2         0     17914         1         0     17922         1         0
     17931         1         0     17934         1         0     17937         1         0
     17940         1         0     17943         1         0     17946         1         0
     17949         1         0     17951         1         0     17953         1         0
     17956         1         0     17959         1         0     17962         1         0
     17965         1         0     17968         1         0     17971         1         0
     17974         1         0     17978         1         0     17981         1         0
     17984         1         0     17987         1         0     17990         1         0
     17993         1         0     17996         1         0     17999         1         0
     18002         1         0     18005         1         0     18008         1         0
     18011         1         0     18014         1         0     18017         1         0
     18021         2         0     18037         2         0     18048         1         0
     18056         1         0     18065         1         0     18068         1         0
     18071         1         0     18074         1         0     18077         1         0
     18080         1         0     18083         1         0     18085         1         0
     18087         1         0     18090         1         0     18093         1         0
     18096         1         0     18099         1         0     18102         1         0
     18105         1         0     18108         1         0     18112         1         0
     18115         1         0     18118         1         0     18121         1         0
     18124         1         0     18127         1         0     18130         1         0
     18133         1         0     18136         1         0     18139         1         0
     18142         1         0     18145         1         0     18148         1         0
     18151         1         0     18155         2         0     18171         2         0
     18182         1         0     18190         1         0     18199         1         0
     18202         1         0     18205         1         0     18208         1         0
     18211         1         0     18214         1         0     18217         1         0
     18219         1         0     18221         1         0     18224         1         0
     18227         1         0     18230         1         0     18233         1         0
     18236         1         0     18239         1         0     18242         1         0
     18246         1         0     18249         1         0     18252         1         0
     18255         1         0     18258         1         0     18261         1         0
     18264         1         0     18267         1         0     18270         1         0
     18273         1         0     18276         1         0     18279         1         0
     18282         1         0     18285         1         0     18289         2         0
     18295         2         0     18298         2         0     18309         1         0
     18317         1         0     18326         1         0     18329         1         0
     18332         1         0     18335         1         0     18338         1         0
     18341         1         0     18344         1         0     18346         1         0
     18348         1         0     18351         1         0     18354         1         0
     18357         1         0     18360         1         0     18363         1         0
     18366         1         0     18369         1         0     18373         1         0
     18376         1         0     18379         1         0     18382         1         0
     18385         1         0     18388         1         0     18391         1         0
     18394         1         0     18397         1         0     18400         1         0
     18403         1         0     18406         1         0     18409         1         0
     18412         1         0     18416         2         0     18422         2         0
     18425         2         0     18436         1         0     18444         1         0
     18453         1         0     18456         1         0     18459         1         0
     18462         1         0     18465         1         0     18468         1         0
     18471         1         0     18473         1         0     18475         1         0
     18478         1         0     18481         1         0     18484         1         0
     18487         1         0     18490         1         0     18493         1         0
     18496         1         0     18500         1         0     18503         1         0
     18506         1         0     18509         1         0     18512         1         0
     18515         1         0     18518         1         0     18521         1         0
     18524         1         0     18527         1         0     18530         1         0
     18533         1         0     18536         1         0     18539         1         0
     18543         2         0     18549         2         0     18552         2         0
     18563         1         0     18571         1         0     18580         1         0
     18583         1         0     18586         1         0     18589         1         0
     18592         1         0     18595         1         0     18598         1         0
     18600         1         0     18602         1         0     18605         1         0
     18608         1         0     18611         1         0     18614         1         0
     18617         1         0     18620         1         0     18623         1         0
     18627         1         0     18630         1         0     18633         1         0
     18636         1         0     18639         1         0     18642         1         0
     18645         1         0     18648         1         0     18651         1         0
     18654         1         0     18657         1         0     18660         1         0
     18663         1         0     18666         1         0     18670         2         0
     18686         2         0     18697         1         0     18705         1         0
     18714         1         0     18717         1         0     18720         1         0
     18723         1         0     18726         1         0     18729         1         0
     18732         1         0     18734         1         0     18736         1         0
     18739         1         0     18742         1         0     18745         1         0
     18748         1         0     18751         1         0     18754         1         0
     18757         1         0     18761         1         0     18764         1         0
     18767         1         0     18770         1         0     18773         1         0
     18776         1         0     18779         1         0     18782         1         0
     18785         1         0     18788         1         0     18791         1         0
     18794         1         0     18797         1         0     18800         1         0
     18804         2         0     18820         2         0     18831         1         0
     18839         1         0     18848         1         0     18851         1         0
     18854         1         0     18857         1         0     18860         1         0
     18863         1         0     18866         1         0     18868         1         0
     18870         1         0     18873         1         0     18876         1         0
     18879         1         0     18882         1         0     18885         1         0
     18888         1         0     18891         1         0     18895         1         0
     18898         1         0     18901         1         0     18904         1         0
     18907         1         0     18910         1         0     18913         1         0
     18916         1         0     18919         1         0     18922         1         0
     18925         1         0     18928         1         0     18931         1         0
     18934         1         0     18938         2         0     18954         2         0
     18965         1         0     18973         1         0     18982         1         0
     18985         1         0     18988         1         0     18991         1         0
     18994         1         0     18997         1         0     19000         1         0
     19002         1         0     19004         1         0     19007         1         0
     19010         1         0     19013         1         0     19016         1         0
     19019         1         0     19022         1         0     19025         1         0
     19029         1         0     19032         1         0     19035         1         0
     19038         1         0     19041         1         0     19044         1         0
     19047         1         0     19050         1         0     19053         1         0
     19056         1         0     19059         1         0     19062         1         0
     19065         1         0     19068         1         0     19072         2         0
     19088         2         0     19099         1         0     19107         1         0
     19116         1         0     19119         1         0     19122         1         0
     19125         1         0     19128         1         0     19131         1         0
     19134         1         0     19136         1         0     19138         1         0
     19141         1         0     19144         1         0     19147         1         0
     19150         1         0     19153         1         0     19156         1         0
     19159         1         0     19163         1         0     19166         1         0
     19169         1         0     19172         1         0     19175         1         0
     19178         1         0     19181         1         0     19184         1         0
     19187         1         0     19190         1         0     19193         1         0
     19196         1         0     19199         1         0     19202         1         0
     19206         2         0     19222         2         0     19233         1         0
     19241         1         0     19250         1         0     19253         1         0
     19256         1         0     19259         1         0     19262         1         0
     19265         1         0     19268         1         0     19270         1         0
     19272         1         0     19275         1         0     19278         1         0
     19281         1         0     19284         1         0     19287         1         0
     19290         1         0     19293         1         0     19297         1         0
     19300         1         0     19303         1         0     19306         1         0
     19309         1         0     19312         1         0     19315         1         0
     19318         1         0     19321         1         0     19324         1         0
     19327         1         0     19330         1         0     19333         1         0
     19336         1         0     19340         2         0     19346         2         0
     19349         2         0     19360         1         0     19368         1         0
     19377         1         0     19380         1         0     19383         1         0
     19386         1         0     19389         1         0     19392         1         0
     19395         1         0     19397         1         0     19399         1         0
     19402         1         0     19405         1         0     19408         1         0
     19411         1         0     19414         1         0     19417         1         0
     19420         1         0     19424         1         0     19427         1         0
     19430         1         0     19433         1         0     19436         1         0
     19439         1         0     19442         1         0     19445         1         0
     19448         1         0     19451         1         0     19454         1         0
     19457         1         0     19460         1         0     19463         1         0
     19467         2         0     19483         2         0     19494         1         0
     19502         1         0     19511         1         0     19514         1         0
     19517         1         0     19520         1         0     19523         1         0
     19526         1         0     19529         1         0     19531         1         0
     19533         1         0     19536         1         0     19539         1         0
     19542         1         0     19545         1         0     19548         1         0
     19551         1         0     19554         1         0     19558         1         0
     19561         1         0     19564         1         0     19567         1         0
     19570         1         0     19573         1         0     19576         1         0
     19579         1         0     19582         1         0     19585         1         0
     19588         1         0     19591         1         0     19594         1         0
     19597         1         0     19601         2         0     19617         2         0
     19628         1         0     19636         1         0     19645         1         0
     19648         1         0     19651         1         0     19654         1         0
     19657         1         0     19660         1         0     19663         1         0
     19665         1         0     19667         1         0     19670         1         0
     19673         1         0     19676         1         0     19679         1         0
     19682         1         0     19685         1         0     19688         1         0
     19692         1         0     19695         1         0     19698         1         0
     19701         1         0     19704         1         0     19707         1         0
     19710         1         0     19713         1         0     19716         1         0
     19719         1         0     19722         1         0     19725         1         0
     19728         1         0     19731         1         0     19735         2         0
     19751         2         0     19762         1         0     19770         1         0
     19779         1         0     19782         1         0     19785         1         0
     19788         1         0     19791         1         0     19794         1         0
     19797         1         0     19799         1         0     19801         1         0
     19804         1         0     19807         1         0     19810         1         0
     19813         1         0     19816         1         0     19819         1         0
     19822         1         0     19826         1         0     19829         1         0
     19832         1         0     19835         1         0     19838         1         0
     19841         1         0     19844         1         0     19847         1         0
     19850         1         0     19853         1         0     19856         1         0
     19859         1         0     19862         1         0     19865         1         0
     19869         2         0     19885         2         0     19896         1         0
     19904         1         0     19913         1         0     19916         1         0
     19919         1         0     19922         1         0     19925         1         0
     19928         1         0     19931         1         0     19933         1         0
     19935         1         0     19938         1         0     19941         1         0
     19944         1         0     19947         1         0     19950         1         0
     19953         1         0     19956         1         0     19960         1         0
     19963         1         0     19966         1         0     19969         1         0
     19972         1         0     19975         1         0     19978         1         0
     19981         1         0     19984         1         0     19987         1         0
     19990         1         0     19993         1         0     19996         1         0
     19999         1         0     20003         2         0     20019         2         0
     20030         1         0     20038         1         0     20047         1         0
     20050         1         0     20053         1         0     20056         1         0
     20059         1         0     20062         1         0     20065         1         0
     20067         1         0     20069         1         0     20072         1         0
     20075         1         0     20078         1         0     20081         1         0
     20084         1         0     20087         1         0     20090         1         0
     20094         1         0     20097         1         0     20100         1         0
     20103         1         0     20106         1         0     20109         1         0
     20112         1         0     20115         1         0     20118         1         0
     20121         1         0     20124         1         0     20127         1         0
     20130         1         0     20133         1         0     20137         2         0
     20143         2         0     20146         2         0     20157         1         0
     20165         1         0     20174         1         0     20177         1         0
     20180         1         0     20183         1         0     20186         1         0
     20189         1         0     20192         1         0     20194         1         0
     20196         1         0     20199         1         0     20202         1         0
     20205         1         0     20208         1         0     20211         1         0
     20214         1         0     20217         1         0     20221         1         0
     20224         1         0     20227         1         0     20230         1         0
     20233         1         0     20236         1         0     20239         1         0
     20242         1         0     20245         1         0     20248         1         0
     20251         1         0     20254         1         0     20257         1         0
     20260         1         0     20264         2         0     20270         2         0
     20273         2         0     20284         1         0     20292         1         0
     20301         1         0     20304         1         0     20307         1         0
     20310         1         0     20313         1         0     20316         1         0
     20319         1         0     20321         1         0     20323         1         0
     20326         1         0     20329         1         0     20332         1         0
     20335         1         0     20338         1         0     20341         1         0
     20344         1         0     20348         1         0     20351         1         0
     20354         1         0     20357         1         0     20360         1         0
     20363         1         0     20366         1         0     20369         1         0
     20372         1         0     20375         1         0     20378         1         0
     20381         1         0     20384         1         0     20387         1         0
     20391         2         0     20407         2         0     20418         1         0
     20426         1         0     20435         1         0     20438         1         0
     20441         1         0     20444         1         0     20447         1         0
     20450         1         0     20453         1         0     20455         1         0
     20457         1         0     20460         1         0     20463         1         0
     20466         1         0     20469         1         0     20472         1         0
     20475         1         0     20478         1         0     20482         1         0
     20485         1         0     20488         1         0     20491         1         0
     20494         1         0     20497         1         0     20500         1         0
     20503         1         0     20506         1         0     20509         1         0
     20512         1         0     20515         1         0     20518         1         0
     20521         1         0     20525         2         0     20541         2         0
     20552         1         0     20560         1         0     20569         1         0
     20572         1         0     20575         1         0     20578         1         0
     20581         1         0     20584         1         0     20587         1         0
     20589         1         0     20591         1         0     20594         1         0
     20597         1         0     20600         1         0     20603         1         0
     20606         1         0     20609         1         0     20612         1         0
     20616         1         0     20619         1         0     20622         1         0
     20625         1         0     20628         1         0     20631         1         0
     20634         1         0     20637         1         0     20640         1         0
     20643         1         0     20646         1         0     20649         1         0
     20652         1         0     20655         1         0     20659         2         0
     20675         2         0     20686         1         0     20694         1         0
     20703         1         0     20706         1         0     20709         1         0
     20712         1         0     20715         1         0     20718         1         0
     20721         1         0     20723         1         0     20725         1         0
     20728         1         0     20731         1         0     20734         1         0
     20737         1         0     20740         1         0     20743         1         0
     20746         1         0     20750         1         0     20753         1         0
     20756         1         0     20759         1         0     20762         1         0
     20765         1         0     20768         1         0     20771         1         0
     20774         1         0     20777         1         0     20780         1         0
     20783         1         0     20786         1         0     20789         1         0
     20793         2         0     20809         2         0     20820         1         0
     20828         1         0     20837         1         0     20840         1         0
     20843         1         0     20846         1         0     20849         1         0
     20852         1         0     20855         1         0     20857         1         0
     20859         1         0     20862         1         0     20865         1         0
     20868         1         0     20871         1         0     20874         1         0
     20877         1         0     20880         1         0     20884         1         0
     20887         1         0     20890         1         0     20893         1         0
     20896         1         0     20899         1         0     20902         1         0
     20905         1         0     20908         1         0     20911         1         0
     20914         1         0     20917         1         0     20920         1         0
     20923         1         0     20927         2         0     20943         2         0
     20954         1         0     20962         1         0     20971         1         0
     20974         1         0     20977         1         0     20980         1         0
     20983         1         0     20986         1         0     20989         1         0
     20991         1         0     20993         1         0     20996         1         0
     20999         1         0     21002         1         0     21005         1         0
     21008         1         0     21011         1         0     21014         1         0
     21018         1         0     21021         1         0     21024         1         0
     21027         1         0     21030         1         0     21033         1         0
     21036         1         0     21039         1         0     21042         1         0
     21045         1         0     21048         1         0     21051         1         0
     21054         1         0     21057         1         0     21061         2         0
     21067         2         0     21070         2         0     21081         1         0
     21089         1         0     21098         1         0     21101         1         0
     21104         1         0     21107         1         0     21110         1         0
     21113         1         0     21116         1         0     21118         1         0
     21120         1         0     21123         1         0     21126         1         0
     21129         1         0     21132         1         0     21135         1         0
     21138         1         0     21141         1         0     21145         1         0
     21148         1         0     21151         1         0     21154         1         0
     21157         1         0     21160         1         0     21163         1         0
     21166         1         0     21169         1         0     21172         1         0
     21175         1         0     21178         1         0     21181         1         0
     21184         1         0     21188         2         0     21204         2         0
     21215         1         0     21223         1         0     21232         1         0
     21235         1         0     21238         1         0     21241         1         0
     21244         1         0     21247         1         0     21250         1         0
     21252         1         0     21254         1         0     21257         1         0
     21260         1         0     21263         1         0     21266         1         0
     21269         1         0     21272         1         0     21275         1         0
     21279         1         0     21282         1         0     21285         1         0
     21288         1         0     21291         1         0     21294         1         0
     21297         1         0     21300         1         0     21303         1         0
     21306         1         0     21309         1         0     21312         1         0
     21315         1         0     21318         1         0     21322         2         0
     21338         2         0     21349         1         0     21357         1         0
     21366         1         0     21369         1         0     21372         1         0
     21375         1         0     21378         1         0     21381         1         0
     21384         1         0     21386         1         0     21388         1         0
     21391         1         0     21394         1         0     21397         1         0
     21400         1         0     21403         1         0     21406         1         0
     21409         1         0     21413         1         0     21416         1         0
     21419         1         0     21422         1         0     21425         1         0
     21428         1         0     21431         1         0     21434         1         0
     21437         1         0     21440         1         0     21443         1         0
     21446         1         0     21449         1         0     21452         1         0
     21456         2         0     21472         2         0     21483         1         0
     21491         1         0     21500         1         0     21503         1         0
     21506         1         0     21509         1         0     21512         1         0
     21515         1         0     21518         1         0     21520         1         0
     21522         1         0     21525         1         0     21528         1         0
     21531         1         0     21534         1         0     21537         1         0
     21540         1         0     21543         1         0     21547         1         0
     21550         1         0     21553         1         0     21556         1         0
     21559         1         0     21562         1         0     21565         1         0
     21568         1         0     21571         1         0     21574         1         0
     21577         1         0     21580         1         0     21583         1         0
     21586         1         0     21590         2         0     21606         2         0
     21617         1         0     21625         1         0     21634         1         0
     21637         1         0     21640         1         0     21643         1         0
     21646         1         0     21649         1         0     21652         1         0
     21654         1         0     21656         1         0     21659         1         0
     21662         1         0     21665         1         0     21668         1         0
     21671         1         0     21674         1         0     21677         1         0
     21681         1         0     21684         1         0     21687         1         0
     21690         1         0     21693         1         0     21696         1         0
     21699         1         0     21702         1         0     21705         1         0
     21708         1         0     21711         1         0     21714         1         0
     21717         1         0     21720         1         0     21724         2         0
     21740         2         0     21751         1         0     21759         1         0
     21768         1         0     21771         1         0     21774         1         0
     21777         1         0     21780         1         0     21783         1         0
     21786         1         0     21788         1         0     21790         1         0
     21793         1         0     21796         1         0     21799         1         0
     21802         1         0     21805         1         0     21808         1         0
     21811         1         0     21815         1         0     21818         1         0
     21821         1         0     21824         1         0     21827         1         0
     21830         1         0     21833         1         0     21836         1         0
     21839         1         0     21842         1         0     21845         1         0
     21848         1         0     21851         1         0     21854         1         0
     21858         2         0     21874         2         0     21885         1         0
     21893         1         0     21902         1         0     21905         1         0
     21908         1         0     21911         1         0     21914         1         0
     21917         1         0     21920         1         0     21922         1         0
     21924         1         0     21927         1         0     21930         1         0
     21933         1         0     21936         1         0     21939         1         0
     21942         1         0     21945         1         0     21949         1         0
     21952         1         0     21955         1         0     21958         1         0
     21961         1         0     21964         1         0     21967         1         0
     21970         1         0     21973         1         0     21976         1         0
     21979         1         0     21982         1         0     21985         1         0
     21988         1         0     21992         2         0     22008         2         0
     22019         1         0     22027         1         0     22036         1         0
     22039         1         0     22042         1         0     22045         1         0
     22048         1         0     22051         1         0     22054         1         0
     22056         1         0     22058         1         0     22061         1         0
     22064         1         0     22067         1         0     22070         1         0
     22073         1         0     22076         1         0     22079         1         0
     22083         1         0     22086         1         0     22089         1         0
     22092         1         0     22095         1         0     22098         1         0
     22101         1         0     22104         1         0     22107         1         0
     22110         1         0     22113         1         0     22116         1         0
     22119         1         0     22122         1         0     22126         2         0
     22142         2         0     22153         1         0     22161         1         0
     22170         1         0     22173         1         0     22176         1         0
     22179         1         0     22182         1         0     22185         1         0
     22188         1         0     22190         1         0     22192         1         0
     22195         1         0     22198         1         0     22201         1         0
     22204         1         0     22207         1         0     22210         1         0
     22213         1         0     22217         1         0     22220         1         0
     22223         1         0     22226         1         0     22229         1         0
     22232         1         0     22235         1         0     22238         1         0
     22241         1         0     22244         1         0     22247         1         0
     22250         1         0     22253         1         0     22256         1         0
     22260         2         0     22276         2         0     22287         1         0
     22295         1         0     22304         1         0     22307         1         0
     22310         1         0     22313         1         0     22316         1         0
     22319         1         0     22322         1         0     22324         1         0
     22326         1         0     22329         1         0     22332         1         0
     22335         1         0     22338         1         0     22341         1         0
     22344         1         0     22347         1         0     22351         1         0
     22354         1         0     22357         1         0     22360         1         0
     22363         1         0     22366         1         0     22369         1         0
     22372         1         0     22375         1         0     22378         1         0
     22381         1         0     22384         1         0     22387         1         0
     22390         1         0     22394         2         0     22400         2         0
     22403         2         0     22414         1         0     22422         1         0
     22431         1         0     22434         1         0     22437         1         0
     22440         1         0     22443         1         0     22446         1         0
     22449         1         0     22451         1         0     22453         1         0
     22456         1         0     22459         1         0     22462         1         0
     22465         1         0     22468         1         0     22471         1         0
     22474         1         0     22478         1         0     22481         1         0
     22484         1         0     22487         1         0     22490         1         0
     22493         1         0     22496         1         0     22499         1         0
     22502         1         0     22505         1         0     22508         1         0
     22511         1         0     22514         1         0     22517         1         0
     22521         2         0     22537         2         0     22548         1         0
     22556         1         0     22565         1         0     22568         1         0
     22571         1         0     22574         1         0     22577         1         0
     22580         1         0     22583         1         0     22585         1         0
     22587         1         0     22590         1         0     22593         1         0
     22596         1         0     22599         1         0     22602         1         0
     22605         1         0     22608         1         0     22612         1         0
     22615         1         0     22618         1         0     22621         1         0
     22624         1         0     22627         1         0     22630         1         0
     22633         1         0     22636         1         0     22639         1         0
     22642         1         0     22645         1         0     22648         1         0
     22651         1         0     22655         2         0     22671         2         0
     22682         1         0     22690         1         0     22699         1         0
     22702         1         0     22705         1         0     22708         1         0
     22711         1         0     22714         1         0     22717         1         0
     22719         1         0     22721         1         0     22724         1         0
     22727         1         0     22730         1         0     22733         1         0
     22736         1         0     22739         1         0     22742         1         0
     22746         1         0     22749         1         0     22752         1         0
     22755         1         0     22758         1         0     22761         1         0
     22764         1         0     22767         1         0     22770         1         0
     22773         1         0     22776         1         0     22779         1         0
     22782         1         0     22785         1         0     22789         2         0
     22805         2         0     22816         1         0     22824         1         0
     22833         1         0     22836         1         0     22839         1         0
     22842         1         0     22845         1         0     22848         1         0
     22851         1         0     22853         1         0     22855         1         0
     22858         1         0     22861         1         0     22864         1         0
     22867         1         0     22870         1         0     22873         1         0
     22876         1         0     22880         1         0     22883         1         0
     22886         1         0     22889         1         0     22892         1         0
     22895         1         0     22898         1         0     22901         1         0
     22904         1         0     22907         1         0     22910         1         0
     22913         1         0     22916         1         0     22919         1         0
     22923         2         0     22939         2         0     22950         1         0
     22958         1         0     22967         1         0     22970         1         0
     22973         1         0     22976         1         0     22979         1         0
     22982         1         0     22985         1         0     22987         1         0
     22989         1         0     22992         1         0     22995         1         0
     22998         1         0     23001         1         0     23004         1         0
     23007         1         0     23010         1         0     23014         1         0
     23017         1         0     23020         1         0     23023         1         0
     23026         1         0     23029         1         0     23032         1         0
     23035         1         0     23038         1         0     23041         1         0
     23044         1         0     23047         1         0     23050         1         0
     23053         1         0     23057         2         0     23073         2         0
     23084         1         0     23092         1         0     23101         1         0
     23104         1         0     23107         1         0     23110         1         0
     23113         1         0     23116         1         0     23119         1         0
     23121         1         0     23123         1         0     23126         1         0
     23129         1         0     23132         1         0     23135         1         0
     23138         1         0     23141         1         0     23144         1         0
     23148         1         0     23151         1         0     23154         1         0
     23157         1         0     23160         1         0     23163         1         0
     23166         1         0     23169         1         0     23172         1         0
     23175         1         0     23178         1         0     23181         1         0
     23184         1         0     23187         1         0     23191         2         0
     23207         2         0     23218         1         0     23226         1         0
     23235         1         0     23238         1         0     23241         1         0
     23244         1         0     23247         1         0     23250         1         0
     23253         1         0     23255         1         0     23257         1         0
     23260         1         0     23263         1         0     23266         1         0
     23269         1         0     23272         1         0     23275         1         0
     23278         1         0     23282         1         0     23285         1         0
     23288         1         0     23291         1         0     23294         1         0
     23297         1         0     23300         1         0     23303         1         0
     23306         1         0     23309         1         0     23312         1         0
     23315         1         0     23318         1         0     23321         1         0
     23325         2         0     23331         2         0     23334         2         0
     23345         1         0     23353         1         0     23362         1         0
     23365         1         0     23368         1         0     23371         1         0
     23374         1         0     23377         1         0     23380         1         0
     23382         1         0     23384         1         0     23387         1         0
     23390         1         0     23393         1         0     23396         1         0
     23399         1         0     23402         1         0     23405         1         0
     23409         1         0     23412         1         0     23415         1         0
     23418         1         0     23421         1         0     23424         1         0
     23427         1         0     23430         1         0     23433         1         0
     23436         1         0     23439         1         0     23442         1         0
     23445         1         0     23448         1         0     23452         2         0
     23468         2         0     23479         1         0     23487         1         0
     23496         1         0     23499         1         0     23502         1         0
     23505         1         0     23508         1         0     23511         1         0
     23514         1         0     23516         1         0     23518         1         0
     23521         1         0     23524         1         0     23527         1         0
     23530         1         0     23533         1         0     23536         1         0
     23539         1         0     23543         1         0     23546         1         0
     23549         1         0     23552         1         0     23555         1         0
     23558         1         0     23561         1         0     23564         1         0
     23567         1         0     23570         1         0     23573         1         0
     23576         1         0     23579         1         0     23582         1         0
     23586         2         0     23602         2         0     23613         1         0
     23621         1         0     23630         1         0     23633         1         0
     23636         1         0     23639         1         0     23642         1         0
     23645         1         0     23648         1         0     23650         1         0
     23652         1         0     23655         1         0     23658         1         0
     23661         1         0     23664         1         0     23667         1         0
     23670         1         0     23673         1         0     23677         1         0
     23680         1         0     23683         1         0     23686         1         0
     23689         1         0     23692         1         0     23695         1         0
     23698         1         0     23701         1         0     23704         1         0
     23707         1         0     23710         1         0     23713         1         0
     23716         1         0     23720         2         0     23736         2         0
     23747         1         0     23755         1         0     23764         1         0
     23767         1         0     23770         1         0     23773         1         0
     23776         1         0     23779         1         0     23782         1         0
     23784         1         0     23786         1         0     23789         1         0
     23792         1         0     23795         1         0     23798         1         0
     23801         1         0     23804         1         0     23807         1         0
     23811         1         0     23814         1         0     23817         1         0
     23820         1         0     23823         1         0     23826         1         0
     23829         1         0     23832         1         0     23835         1         0
     23838         1         0     23841         1         0     23844         1         0
     23847         1         0     23850         1         0     23854         2         0
     23870         2         0     23881         1         0     23889         1         0
     23898         1         0     23901         1         0     23904         1         0
     23907         1         0     23910         1         0     23913         1         0
     23916         1         0     23918         1         0     23920         1         0
     23923         1         0     23926         1         0     23929         1         0
     23932         1         0     23935         1         0     23938         1         0
     23941         1         0     23945         1         0     23948         1         0
     23951         1         0     23954         1         0     23957         1         0
     23960         1         0     23963         1         0     23966         1         0
     23969         1         0     23972         1         0     23975         1         0
     23978         1         0     23981         1         0     23984         1         0
     23988         2         0     24004         2         0     24015         1         0
     24023         1         0     24032         1         0     24035         1         0
     24038         1         0     24041         1         0     24044         1         0
     24047         1         0     24050         1         0     24052         1         0
     24054         1         0     24057         1         0     24060         1         0
     24063         1         0     24066         1         0     24069         1         0
     24072         1         0     24075         1         0     24079         1         0
     24082         1         0     24085         1         0     24088         1         0
     24091         1         0     24094         1         0     24097         1         0
     24100         1         0     24103         1         0     24106         1         0
     24109         1         0     24112         1         0     24115         1         0
     24118         1         0     24122         2         0     24138         2         0
     24149         1         0     24157         1         0     24166         1         0
     24169         1         0     24172         1         0     24175         1         0
     24178         1         0     24181         1         0     24184         1         0
     24186         1         0     24188         1         0     24191         1         0
     24194         1         0     24197         1         0     24200         1         0
     24203         1         0     24206         1         0     24209         1         0
     24213         1         0     24216         1         0     24219         1         0
     24222         1         0     24225         1         0     24228         1         0
     24231         1         0     24234         1         0     24237         1         0
     24240         1         0     24243         1         0     24246         1         0
     24249         1         0     24252         1         0     24256         2         0
     24272         2         0     24283         1         0     24291         1         0
     24300         1         0     24303         1         0     24306         1         0
     24309         1         0     24312         1         0     24315         1         0
     24318         1         0     24320         1         0     24322         1         0
     24325         1         0     24328         1         0     24331         1         0
     24334         1         0     24337         1         0     24340         1         0
     24343         1         0     24347         1         0     24350         1         0
     24353         1         0     24356         1         0     24359         1         0
     24362         1         0     24365         1         0     24368         1         0
     24371         1         0     24374         1         0     24377         1         0
     24380         1         0     24383         1         0     24386         1         0
     24390         2         0     24406         2         0     24417         1         0
     24425         1         0     24434         1         0     24437         1         0
     24440         1         0     24443         1         0     24446         1         0
     24449         1         0     24452         1         0     24454         1         0
     24456         1         0     24459         1         0     24462         1         0
     24465         1         0     24468         1         0     24471         1         0
     24474         1         0     24477         1         0     24481         1         0
     24484         1         0     24487         1         0     24490         1         0
     24493         1         0     24496         1         0     24499         1         0
     24502         1         0     24505         1         0     24508         1         0
     24511         1         0     24514         1         0     24517         1         0
     24520         1         0     24524         2         0     24540         2         0
     24551         1         0     24559         1         0     24568         1         0
     24571         1         0     24574         1         0     24577         1         0
     24580         1         0     24583         1         0     24586         1         0
     24588         1         0     24590         1         0     24593         1         0
     24596         1         0     24599         1         0     24602         1         0
     24605         1         0     24608         1         0     24611         1         0
     24615         1         0     24618         1         0     24621         1         0
     24624         1         0     24627         1         0     24630         1         0
     24633         1         0     24636         1         0     24639         1         0
     24642         1         0     24645         1         0     24648         1         0
     24651         1         0     24654         1         0     24658         2         0
     24674         2         0     24685         1         0     24693         1         0
     24702         1         0     24705         1         0     24708         1         0
     24711         1         0     24714         1         0     24717         1         0
     24720         1         0     24722         1         0     24724         1         0
     24727         1         0     24730         1         0     24733         1         0
     24736         1         0     24739         1         0     24742         1         0
     24745         1         0     24749         1         0     24752         1         0
     24755         1         0     24758         1         0     24761         1         0
     24764         1         0     24767         1         0     24770         1         0
     24773         1         0     24776         1         0     24779         1         0
     24782         1         0     24785         1         0     24788         1         0
     24792         2         0     24808         2         0     24819         1         0
     24827         1         0     24836         1         0     24839         1         0
     24842         1         0     24845         1         0     24848         1         0
     24851         1         0     24854         1         0     24856         1         0
     24858         1         0     24861         1         0     24864         1         0
     24867         1         0     24870         1         0     24873         1         0
     24876         1         0     24879         1         0     24883         1         0
     24886         1         0     24889         1         0     24892         1         0
     24895         1         0     24898         1         0     24901         1         0
     24904         1         0     24907         1         0     24910         1         0
     24913         1         0     24916         1         0     24919         1         0
     24922         1         0     24926         2         0     24942         2         0
     24953         1         0     24961         1         0     24970         1         0
     24973         1         0     24976         1         0     24979         1         0
     24982         1         0     24985         1         0     24988         1         0
     24990         1         0     24992         1         0     24995         1         0
     24998         1         0     25001         1         0     25004         1         0
     25007         1         0     25010         1         0     25013         1         0
     25017         1         0     25020         1         0     25023         1         0
     25026         1         0     25029         1         0     25032         1         0
     25035         1         0     25038         1         0     25041         1         0
     25044         1         0     25047         1         0     25050         1         0
     25053         1         0     25056         1         0     25060         2         0
     25076         2         0     25087         1         0     25095         1         0
     25104         1         0     25107         1         0     25110         1         0
     25113         1         0     25116         1         0     25119         1         0
     25122         1         0     25124         1         0     25126         1         0
     25129         1         0     25132         1         0     25135         1         0
     25138         1         0     25141         1         0     25144         1         0
     25147         1         0     25151         1         0     25154         1         0
     25157         1         0     25160         1         0     25163         1         0
     25166         1         0     25169         1         0     25172         1         0
     25175         1         0     25178         1         0     25181         1         0
     25184         1         0     25187         1         0     25190         1         0
     25194         2         0     25210         2         0     25221         1         0
     25229         1         0     25238         1         0     25241         1         0
     25244         1         0     25247         1         0     25250         1         0
     25253         1         0     25256         1         0     25258         1         0
     25260         1         0     25263         1         0     25266         1         0
     25269         1         0     25272         1         0     25275         1         0
     25278         1         0     25281         1         0     25285         1         0
     25288         1         0     25291         1         0     25294         1         0
     25297         1         0     25300         1         0     25303         1         0
     25306         1         0     25309         1         0     25312         1         0
     25315         1         0     25318         1         0     25321         1         0
     25324         1         0     25328         2         0     25344         2         0
     25355         1         0     25363         1         0     25372         1         0
     25375         1         0     25378         1         0     25381         1         0
     25384         1         0     25387         1         0     25390         1         0
     25392         1         0     25394         1         0     25397         1         0
     25400         1         0     25403         1         0     25406         1         0
     25409         1         0     25412         1         0     25415         1         0
     25419         1         0     25422         1         0     25425         1         0
     25428         1         0     25431         1         0     25434         1         0
     25437         1         0     25440         1         0     25443         1         0
     25446         1         0     25449         1         0     25452         1         0
     25455         1         0     25458         1         0     25462         2         0
     25478         2         0     25489         1         0     25497         1         0
     25506         1         0     25509         1         0     25512         1         0
     25515         1         0     25518         1         0     25521         1         0
     25524         1         0     25526         1         0     25528         1         0
     25531         1         0     25534         1         0     25537         1         0
     25540         1         0     25543         1         0     25546         1         0
     25549         1         0     25553         1         0     25556         1         0
     25559         1         0     25562         1         0     25565         1         0
     25568         1         0     25571         1         0     25574         1         0
     25577         1         0     25580         1         0     25583         1         0
     25586         1         0     25589         1         0     25592         1         0
     25596         2         0     25612         2         0     25623         1         0
     25631         1         0     25640         1         0     25643         1         0
     25646         1         0     25649         1         0     25652         1         0
     25655         1         0     25658         1         0     25660         1         0
     25662         1         0     25665         1         0     25668         1         0
     25671         1         0     25674         1         0     25677         1         0
     25680         1         0     25683         1         0     25687         1         0
     25690         1         0     25693         1         0     25696         1         0
     25699         1         0     25702         1         0     25705         1         0
     25708         1         0     25711         1         0     25714         1         0
     25717         1         0     25720         1         0     25723         1         0
     25726         1         0     25730         2         0     25746         2         0
     25757         1         0     25765         1         0     25774         1         0
     25777         1         0     25780         1         0     25783         1         0
     25786         1         0     25789         1         0     25792         1         0
     25794         1         0     25796         1         0     25799         1         0
     25802         1         0     25805         1         0     25808         1         0
     25811         1         0     25814         1         0     25817         1         0
     25821         1         0     25824         1         0     25827         1         0
     25830         1         0     25833         1         0     25836         1         0
     25839         1         0     25842         1         0     25845         1         0
     25848         1         0     25851         1         0     25854         1         0
     25857         1         0     25860         1         0     25864         2         0
     25880         2         0     25891         1         0     25899         1         0
     25908         1         0     25911         1         0     25914         1         0
     25917         1         0     25920         1         0     25923         1         0
     25926         1         0     25928         1         0     25930         1         0
     25933         1         0     25936         1         0     25939         1         0
     25942         1         0     25945         1         0     25948         1         0
     25951         1         0     25955         1         0     25958         1         0
     25961         1         0     25964         1         0     25967         1         0
     25970         1         0     25973         1         0     25976         1         0
     25979         1         0     25982         1         0     25985         1         0
     25988         1         0     25991         1         0     25994         1         0
     25998         2         0     26004         2         0     26007         2         0
     26018         1         0     26026         1         0     26035         1         0
     26038         1         0     26041         1         0     26044         1         0
     26047         1         0     26050         1         0     26053         1         0
     26055         1         0     26057         1         0     26060         1         0
     26063         1         0     26066         1         0     26069         1         0
     26072         1         0     26075         1         0     26078         1         0
     26082         1         0     26085         1         0     26088         1         0
     26091         1         0     26094         1         0     26097         1         0
     26100         1         0     26103         1         0     26106         1         0
     26109         1         0     26112         1         0     26115         1         0
     26118         1         0     26121         1         0     26125         2         0
     26141         2         0     26152         1         0     26160         1         0
     26169         1         0     26172         1         0     26175         1         0
     26178         1         0     26181         1         0     26184         1         0
     26187         1         0     26189         1         0     26191         1         0
     26194         1         0     26197         1         0     26200         1         0
     26203         1         0     26206         1         0     26209         1         0
     26212         1         0     26216         1         0     26219         1         0
     26222         1         0     26225         1         0     26228         1         0
     26231         1         0     26234         1         0     26237         1         0
     26240         1         0     26243         1         0     26246         1         0
     26249         1         0     26252         1         0     26255         1         0
     26259         2         0     26265         2         0     26268         2         0
     26279         1         0     26287         1         0     26296         1         0
     26299         1         0     26302         1         0     26305         1         0
     26308         1         0     26311         1         0     26314         1         0
     26316         1         0     26318         1         0     26321         1         0
     26324         1         0     26327         1         0     26330         1         0
     26333         1         0     26336         1         0     26339         1         0
     26343         1         0     26346         1         0     26349         1         0
     26352         1         0     26355         1         0     26358         1         0
     26361         1         0     26364         1         0     26367         1         0
     26370         1         0     26373         1         0     26376         1         0
     26379         1         0     26382         1         0     26386         2         0
     26392         2         0     26395         2         0     26406         1         0
     26414         1         0     26423         1         0     26426         1         0
     26429         1         0     26432         1         0     26435         1         0
     26438         1         0     26441         1         0     26443         1         0
     26445         1         0     26448         1         0     26451         1         0
     26454         1         0     26457         1         0     26460         1         0
     26463         1         0     26466         1         0     26470         1         0
     26473         1         0     26476         1         0     26479         1         0
     26482         1         0     26485         1         0     26488         1         0
     26491         1         0     26494         1         0     26497         1         0
     26500         1         0     26503         1         0     26506         1         0
     26509         1         0     26513         2         0     26529         2         0
     26540         1         0     26548         1         0     26557         1         0
     26560         1         0     26563         1         0     26566         1         0
     26569         1         0     26572         1         0     26575         1         0
     26577         1         0     26579         1         0     26582         1         0
     26585         1         0     26588         1         0     26591         1         0
     26594         1         0     26597         1         0     26600         1         0
     26604         1         0     26607         1         0     26610         1         0
     26613         1         0     26616         1         0     26619         1         0
     26622         1         0     26625         1         0     26628         1         0
     26631         1         0     26634         1         0     26637         1         0
     26640         1         0     26643         1         0     26647         2         0
     26663         2         0     26674         1         0     26682         1         0
     26691         1         0     26694         1         0     26697         1         0
     26700         1         0     26703         1         0     26706         1         0
     26709         1         0     26711         1         0     26713         1         0
     26716         1         0     26719         1         0     26722         1         0
     26725         1         0     26728         1         0     26731         1         0
     26734         1         0     26738         1         0     26741         1         0
     26744         1         0     26747         1         0     26750         1         0
     26753         1         0     26756         1         0     26759         1         0
     26762         1         0     26765         1         0     26768         1         0
     26771         1         0     26774         1         0     26777         1         0
     26781         2         0     26797         2         0     26808         1         0
     26816         1         0     26825         1         0     26828         1         0
     26831         1         0     26834         1         0     26837         1         0
     26840         1         0     26843         1         0     26845         1         0
     26847         1         0     26850         1         0     26853         1         0
     26856         1         0     26859         1         0     26862         1         0
     26865         1         0     26868         1         0     26872         1         0
     26875         1         0     26878         1         0     26881         1         0
     26884         1         0     26887         1         0     26890         1         0
     26893         1         0     26896         1         0     26899         1         0
     26902         1         0     26905         1         0     26908         1         0
     26911         1         0     26915         2         0     26931         2         0
     26942         1         0     26950         1         0     26959         1         0
     26962         1         0     26965         1         0     26968         1         0
     26971         1         0     26974         1         0     26977         1         0
     26979         1         0     26981         1         0     26984         1         0
     26987         1         0     26990         1         0     26993         1         0
     26996         1         0     26999         1         0     27002         1         0
     27006         1         0     27009         1         0     27012         1         0
     27015         1         0     27018         1         0     27021         1         0
     27024         1         0     27027         1         0     27030         1         0
     27033         1         0     27036         1         0     27039         1         0
     27042         1         0     27045         1         0     27049         2         0
     27055         2         0     27058         2         0     27069         1         0
     27077         1         0     27086         1         0     27089         1         0
     27092         1         0     27095         1         0     27098         1         0
     27101         1         0     27104         1         0     27106         1         0
     27108         1         0     27111         1         0     27114         1         0
     27117         1         0     27120         1         0     27123         1         0
     27126         1         0     27129         1         0     27133         1         0
     27136         1         0     27139         1         0     27142         1         0
     27145         1         0     27148         1         0     27151         1         0
     27154         1         0     27157         1         0     27160         1         0
     27163         1         0     27166         1         0     27169         1         0
     27172         1         0     27176         2         0     27192         2         0
     27203         1         0     27211         1         0     27220         1         0
     27223         1         0     27226         1         0     27229         1         0
     27232         1         0     27235         1         0     27238         1         0
     27240         1         0     27242         1         0     27245         1         0
     27248         1         0     27251         1         0     27254         1         0
     27257         1         0     27260         1         0     27263         1         0
     27267         1         0     27270         1         0     27273         1         0
     27276         1         0     27279         1         0     27282         1         0
     27285         1         0     27288         1         0     27291         1         0
     27294         1         0     27297         1         0     27300         1         0
     27303         1         0     27306         1         0     27310         2         0
     27326         2         0     27337         1         0     27345         1         0
     27354         1         0     27357         1         0     27360         1         0
     27363         1         0     27366         1         0     27369         1         0
     27372         1         0     27374         1         0     27376         1         0
     27379         1         0     27382         1         0     27385         1         0
     27388         1         0     27391         1         0     27394         1         0
     27397         1         0     27401         1         0     27404         1         0
     27407         1         0     27410         1         0     27413         1         0
     27416         1         0     27419         1         0     27422         1         0
     27425         1         0     27428         1         0     27431         1         0
     27434         1         0     27437         1         0     27440         1         0
     27444         2         0     27460         2         0     27471         1         0
     27479         1         0     27488         1         0     27491         1         0
     27494         1         0     27497         1         0     27500         1         0
     27503         1         0     27506         1         0     27508         1         0
     27510         1         0     27513         1         0     27516         1         0
     27519         1         0     27522         1         0     27525         1         0
     27528         1         0     27531         1         0     27535         1         0
     27538         1         0     27541         1         0     27544         1         0
     27547         1         0     27550         1         0     27553         1         0
     27556         1         0     27559         1         0     27562         1         0
     27565         1         0     27568         1         0     27571         1         0
     27574         1         0     27578         2         0     27594         2         0
     27605         1         0     27613         1         0     27622         1         0
     27625         1         0     27628         1         0     27631         1         0
     27634         1         0     27637         1         0     27640         1         0
     27642         1         0     27644         1         0     27647         1         0
     27650         1         0     27653         1         0     27656         1         0
     27659         1         0     27662         1         0     27665         1         0
     27669         1         0     27672         1         0     27675         1         0
     27678         1         0     27681         1         0     27684         1         0
     27687         1         0     27690         1         0     27693         1         0
     27696         1         0     27699         1         0     27702         1         0
     27705         1         0     27708         1         0     27712         2         0
     27718         2         0     27721         2         0     27732         1         0
     27740         1         0     27749         1         0     27752         1         0
     27755         1         0     27758         1         0     27761         1         0
     27764         1         0     27767         1         0     27769         1         0
     27771         1         0     27774         1         0     27777         1         0
     27780         1         0     27783         1         0     27786         1         0
     27789         1         0     27792         1         0     27796         1         0
     27799         1         0     27802         1         0     27805         1         0
     27808         1         0     27811         1         0     27814         1         0
     27817         1         0     27820         1         0     27823         1         0
     27826         1         0     27829         1         0     27832         1         0
     27835         1         0     27839         2         0     27855         2         0
     27866         1         0     27874         1         0     27883         1         0
     27886         1         0     27889         1         0     27892         1         0
     27895         1         0     27898         1         0     27901         1         0
     27903         1         0     27905         1         0     27908         1         0
     27911         1         0     27914         1         0     27917         1         0
     27920         1         0     27923         1         0     27926         1         0
     27930         1         0     27933         1         0     27936         1         0
     27939         1         0     27942         1         0     27945         1         0
     27948         1         0     27951         1         0     27954         1         0
     27957         1         0     27960         1         0     27963         1         0
     27966         1         0     27969         1         0     27973         2         0
     27979         2         0     27982         2         0     27993         1         0
     28001         1         0     28010         1         0     28013         1         0
     28016         1         0     28019         1         0     28022         1         0
     28025         1         0     28028         1         0     28030         1         0
     28032         1         0     28035         1         0     28038         1         0
     28041         1         0     28044         1         0     28047         1         0
     28050         1         0     28053         1         0     28057         1         0
     28060         1         0     28063         1         0     28066         1         0
     28069         1         0     28072         1         0     28075         1         0
     28078         1         0     28081         1         0     28084         1         0
     28087         1         0     28090         1         0     28093         1         0
     28096         1         0     28100         2         0     28116         2         0
     28127         1         0     28135         1         0     28144         1         0
     28147         1         0     28150         1         0     28153         1         0
     28156         1         0     28159         1         0     28162         1         0
     28164         1         0     28166         1         0     28169         1         0
     28172         1         0     28175         1         0     28178         1         0
     28181         1         0     28184         1         0     28187         1         0
     28191         1         0     28194         1         0     28197         1         0
     28200         1         0     28203         1         0     28206         1         0
     28209         1         0     28212         1         0     28215         1         0
     28218         1         0     28221         1         0     28224         1         0
     28227         1         0     28230         1         0     28234         2         0
     28250         2         0     28261         1         0     28269         1         0
     28278         1         0     28281         1         0     28284         1         0
     28287         1         0     28290         1         0     28293         1         0
     28296         1         0     28298         1         0     28300         1         0
     28303         1         0     28306         1         0     28309         1         0
     28312         1         0     28315         1         0     28318         1         0
     28321         1         0     28325         1         0     28328         1         0
     28331         1         0     28334         1         0     28337         1         0
     28340         1         0     28343         1         0     28346         1         0
     28349         1         0     28352         1         0     28355         1         0
     28358         1         0     28361         1         0     28364         1         0
     28368         2         0     28384         2         0     28395         1         0
     28403         1         0     28412         1         0     28415         1         0
     28418         1         0     28421         1         0     28424         1         0
     28427         1         0     28430         1         0     28432         1         0
     28434         1         0     28437         1         0     28440         1         0
     28443         1         0     28446         1         0     28449         1         0
     28452         1         0     28455         1         0     28459         1         0
     28462         1         0     28465         1         0     28468         1         0
     28471         1         0     28474         1         0     28477         1         0
     28480         1         0     28483         1         0     28486         1         0
     28489         1         0     28492         1         0     28495         1         0
     28498         1         0     28502         2         0     28518         2         0
     28529         1         0     28537         1         0     28546         1         0
     28549         1         0     28552         1         0     28555         1         0
     28558         1         0     28561         1         0     28564         1         0
     28566         1         0     28568         1         0     28571         1         0
     28574         1         0     28577         1         0     28580         1         0
     28583         1         0     28586         1         0     28589         1         0
     28593         1         0     28596         1         0     28599         1         0
     28602         1         0     28605         1         0     28608         1         0
     28611         1         0     28614         1         0     28617         1         0
     28620         1         0     28623         1         0     28626         1         0
     28629         1         0     28632         1         0     28636         1         0
     28639         1         0     28642         1         0     28645         1         0
     28648         1         0     28651         1         0     28654         1         0
     28657         1         0     28660         1         0     28663         1         0
     28666         1         0     28669         1         0     28672         1         0
     28675         1         0     28678         1         0     28681         1         0
     28684         1         0     28687         1         0     28690         1         0
     28693         1         0     28696         1         0     28699         1         0
     28702         1         0     28705         1         0     28708         1         0
     28711         1         0     28714         1         0     28717         1         0
     28720         1         0     28723         1         0     28726         1         0
     28729         1         0     28732         1         0     28735         1         0
     28738         1         0     28741         1         0     28744         1         0
     28747         1         0     28750         1         0     28753         1         0
     28756         1         0     28759         1         0     28762         1         0
     28765         1         0     28768         1         0     28771         1         0
     28774         1         0     28777         1         0     28780         1         0
     28783         1         0     28786         1         0     28789         1         0
     28792         1         0     28795         1         0     28798         1         0
     28801         1         0     28804         1         0     28807         1         0
     28810         1         0     28813         1         0     28816         1         0
     28819         1         0     28822         1         0     28825         1         0
     28828         1         0     28831         1         0     28834         1         0
     28837         1         0     28840         1         0     28843         1         0
     28846         1         0     28849         1         0     28852         1         0
     28855         1         0     28858         1         0     28861         1         0
     28864         1         0     28867         1         0     28870         1         0
     28873         1         0     28876         1         0     28879         1         0
     28882         1         0     28885         1         0     28888         1         0
     28891         1         0     28894         1         0     28897         1         0
     28900         1         0     28903         1         0     28906         1         0
     28909         1         0     28912         1         0     28915         1         0
     28918         1         0     28921         1         0     28924         1         0
     28927         1         0     28930         1         0     28933         1         0
     28936         1         0     28939         1         0     28942         1         0
     28945         1         0     28948         1         0     28951         1         0
     28954         1         0     28957         1         0     28960         1         0
     28963         1         0     28966         1         0     28969         1         0
     28972         1         0     28975         1         0     28978         1         0
     28981         1         0     28984         1         0     28987         1         0
     28990         1         0     28993         1         0     28996         1         0
     28999         1         0     29002         1         0     29005         1         0
     29008         1         0     29011         1         0     29014         1         0
     29017         1         0     29020         1         0     29023         1         0
     29026         1         0     29029         1         0     29032         1         0
     29035         1         0     29038         1         0     29041         1         0
     29044         1         0     29047         1         0     29050         1         0
     29053         1         0     29056         1         0     29059         1         0
     29062         1         0     29065         1         0     29068         1         0
     29071         1         0     29074         1         0     29077         1         0
     29080         1         0     29083         1         0     29086         1         0
     29089         1         0     29092         1         0     29095         1         0
     29098         1         0     29101         1         0     29104         1         0
     29107         1         0     29110         1         0     29113         1         0
     29116         1         0     29119         1         0     29122         1         0
     29125         1         0     29128         1         0     29131         1         0
     29134         1         0     29137         1         0     29140         1         0
     29143         1         0     29146         1         0     29149         1         0
     29152         1         0     29155         1         0     29158         1         0
     29161         1         0     29164         1         0     29167         1         0
     29170         1         0     29173         1         0     29176         1         0
     29179         1         0     29182         1         0     29185         1         0
     29188         1         0     29191         1         0     29194         1         0
     29197         1         0     29200         1         0     29203         1         0
     29206         1         0     29209         1         0     29212         1         0
     29215         1         0     29218         1         0     29221         1         0
     29224         1         0     29227         1         0     29230         1         0
     29233         1         0     29236         1         0     29239         1         0
     29242         1         0     29245         1         0     29248         1         0
     29251         1         0     29254         1         0     29257         1         0
     29260         1         0     29263         1         0     29266         1         0
     29269         1         0     29272         1         0     29275         1         0
     29278         1         0     29281         1         0     29284         1         0
     29287         1         0     29290         1         0     29293         1         0
     29296         1         0     29299         1         0     29302         1         0
     29305         1         0     29308         1         0     29311         1         0
     29314         1         0     29317         1         0     29320         1         0
     29323         1         0     29326         1         0     29329         1         0
     29332         1         0     29335         1         0     29338         1         0
     29341         1         0     29344         1         0     29347         1         0
     29350         1         0     29353         1         0     29356         1         0
     29359         1         0     29362         1         0     29365         1         0
     29368         1         0     29371         1         0     29374         1         0
     29377         1         0     29380         1         0     29383         1         0
     29386         1         0     29389         1         0     29392         1         0
     29395         1         0     29398         1         0     29401         1         0
     29404         1         0     29407         1         0     29410         1         0
     29413         1         0     29416         1         0     29419         1         0
     29422         1         0     29425         1         0     29428         1         0
     29431         1         0     29434         1         0     29437         1         0
     29440         1         0     29443         1         0     29446         1         0
     29449         1         0     29452         1         0     29455         1         0
     29458         1         0     29461         1         0     29464         1         0
     29467         1         0     29470         1         0     29473         1         0
     29476         1         0     29479         1         0     29482         1         0
     29485         1         0     29488         1         0     29491         1         0
     29494         1         0     29497         1         0     29500         1         0
     29503         1         0     29506         1         0     29509         1         0
     29512         1         0     29515         1         0     29518         1         0
     29521         1         0     29524         1         0     29527         1         0
     29530         1         0     29533         1         0     29536         1         0
     29539         1         0     29542         1         0     29545         1         0
     29548         1         0     29551         1         0     29554         1         0
     29557         1         0     29560         1         0     29563         1         0
     29566         1         0     29569         1         0     29572         1         0
     29575         1         0     29578         1         0     29581         1         0
     29584         1         0     29587         1         0     29590         1         0
     29593         1         0     29596         1         0     29599         1         0
     29602         1         0     29605         1         0     29608         1         0
     29611         1         0     29614         1         0     29617         1         0
     29620         1         0     29623         1         0     29626         1         0
     29629         1         0     29632         1         0     29635         1         0
     29638         1         0     29641         1         0     29644         1         0
     29647         1         0     29650         1         0     29653         1         0
     29656         1         0     29659         1         0     29662         1         0
     29665         1         0     29668         1         0     29671         1         0
     29674         1         0     29677         1         0     29680         1         0
     29683         1         0     29686         1         0     29689         1         0
     29692         1         0     29695         1         0     29698         1         0
     29701         1         0     29704         1         0     29707         1         0
     29710         1         0     29713         1         0     29716         1         0
     29719         1         0     29722         1         0     29725         1         0
     29728         1         0     29731         1         0     29734         1         0
     29737         1         0     29740         1         0     29743         1         0
     29746         1         0     29749         1         0     29752         1         0
     29755         1         0     29758         1         0     29761         1         0
     29764         1         0     29767         1         0     29770         1         0
     29773         1         0     29776         1         0     29779         1         0
     29782         1         0     29785         1         0     29788         1         0
     29791         1         0     29794         1         0     29797         1         0
     29800         1         0     29803         1         0     29806         1         0
     29809         1         0     29812         1         0     29815         1         0
     29818         1         0     29821         1         0     29824         1         0
     29827         1         0     29830         1         0     29833         1         0
     29836         1         0     29839         1         0     29842         1         0
     29845         1         0     29848         1         0     29851         1         0
     29854         1         0     29857         1         0     29860         1         0
     29863         1         0     29866         1         0     29869         1         0
     29872         1         0     29875         1         0     29878         1         0
     29881         1         0     29884         1         0     29887         1         0
     29890         1         0     29893         1         0     29896         1         0
     29899         1         0     29902         1         0     29905         1         0
     29908         1         0     29911         1         0     29914         1         0
     29917         1         0     29920         1         0     29923         1         0
     29926         1         0     29929         1         0     29932         1         0
     29935         1         0     29938         1         0     29941         1         0
     29944         1         0     29947         1         0     29950         1         0
     29953         1         0     29956         1         0     29959         1         0
     29962         1         0     29965         1         0     29968         1         0
     29971         1         0     29974         1         0     29977         1         0
     29980         1         0     29983         1         0     29986         1         0
     29989         1         0     29992         1         0     29995         1         0
     29998         1         0     30001         1         0     30004         1         0
     30007         1         0     30010         1         0     30013         1         0
     30016         1         0     30019         1         0     30022         1         0
     30025         1         0     30028         1         0     30031         1         0
     30034         1         0     30037         1         0     30040         1         0
     30043         1         0     30046         1         0     30049         1         0
     30052         1         0     30055         1         0     30058         1         0
     30061         1         0     30064         1         0     30067         1         0
     30070         1         0     30073         1         0     30076         1         0
     30079         1         0     30082         1         0     30085         1         0
     30088         1         0     30091         1         0     30094         1         0
     30097         1         0     30100         1         0     30103         1         0
     30106         1         0     30109         1         0     30112         1         0
     30115         1         0     30118         1         0     30121         1         0
     30124         1         0     30127         1         0     30130         1         0
     30133         1         0     30136         1         0     30139         1         0
     30142         1         0     30145         1         0     30148         1         0
     30151         1         0     30154         1         0     30157         1         0
     30160         1         0     30163         1         0     30166         1         0
     30169         1         0     30172         1         0     30175         1         0
     30178         1         0     30181         1         0     30184         1         0
     30187         1         0     30190         1         0     30193         1         0
     30196         1         0     30199         1         0     30202         1         0
     30205         1         0     30208         1         0     30211         1         0
     30214         1         0     30217         1         0     30220         1         0
     30223         1         0     30226         1         0     30229         1         0
     30232         1         0     30235         1         0     30238         1         0
     30241         1         0     30244         1         0     30247         1         0
     30250         1         0     30253         1         0     30256         1         0
     30259         1         0     30262         1         0     30265         1         0
     30268         1         0     30271         1         0     30274         1         0
     30277         1         0     30280         1         0     30283         1         0
     30286         1         0     30289         1         0     30292         1         0
     30295         1         0     30298         1         0     30301         1         0
     30304         1         0     30307         1         0     30310         1         0
     30313         1         0     30316         1         0     30319         1         0
     30322         1         0     30325         1         0     30328         1         0
     30331         1         0     30334         1         0     30337         1         0
     30340         1         0     30343         1         0     30346         1         0
     30349         1         0     30352         1         0     30355         1         0
     30358         1         0     30361         1         0     30364         1         0
     30367         1         0     30370         1         0     30373         1         0
     30376         1         0     30379         1         0     30382         1         0
     30385         1         0     30388         1         0     30391         1         0
     30394         1         0     30397         1         0     30400         1         0
     30403         1         0     30406         1         0     30409         1         0
     30412         1         0     30415         1         0     30418         1         0
     30421         1         0     30424         1         0     30427         1         0
     30430         1         0     30433         1         0     30436         1         0
     30439         1         0     30442         1         0     30445         1         0
     30448         1         0     30451         1         0     30454         1         0
     30457         1         0     30460         1         0     30463         1         0
     30466         1         0     30469         1         0     30472         1         0
     30475         1         0     30478         1         0     30481         1         0
     30484         1         0     30487         1         0     30490         1         0
     30493         1         0     30496         1         0     30499         1         0
     30502         1         0     30505         1         0     30508         1         0
     30511         1         0     30514         1         0     30517         1         0
     30520         1         0     30523         1         0     30526         1         0
     30529         1         0     30532         1         0     30535         1         0
     30538         1         0     30541         1         0     30544         1         0
     30547         1         0     30550         1         0     30553         1         0
     30556         1         0     30559         1         0     30562         1         0
     30565         1         0     30568         1         0     30571         1         0
     30574         1         0     30577         1         0     30580         1         0
     30583         1         0     30586         1         0     30589         1         0
     30592         1         0     30595         1         0     30598         1         0
     30601         1         0     30604         1         0     30607         1         0
     30610         1         0     30613         1         0     30616         1         0
     30619         1         0     30622         1         0     30625         1         0
     30628         1         0     30631         1         0     30634         1         0
     30637         1         0     30640         1         0     30643         1         0
     30646         1         0     30649         1         0     30652         1         0
     30655         1         0     30658         1         0     30661         1         0
     30664         1         0     30667         1         0     30670         1         0
     30673         1         0     30676         1         0     30679         1         0
     30682         1         0     30685         1         0     30688         1         0
     30691         1         0     30694         1         0     30697         1         0
     30700         1         0     30703         1         0     30706         1         0
     30709         1         0     30712         1         0     30715         1         0
     30718         1         0     30721         1         0     30724         1         0
     30727         1         0     30730         1         0     30733         1         0
     30736         1         0     30739         1         0     30742         1         0
     30745         1         0     30748         1         0     30751         1         0
     30754         1         0     30757         1         0     30760         1         0
     30763         1         0     30766         1         0     30769         1         0
     30772         1         0     30775         1         0     30778         1         0
     30781         1         0     30784         1         0     30787         1         0
     30790         1         0     30793         1         0     30796         1         0
     30799         1         0     30802         1         0     30805         1         0
     30808         1         0     30811         1         0     30814         1         0
     30817         1         0     30820         1         0     30823         1         0
     30826         1         0     30829         1         0     30832         1         0
     30835         1         0     30838         1         0     30841         1         0
     30844         1         0     30847         1         0     30850         1         0
     30853         1         0     30856         1         0     30859         1         0
     30862         1         0     30865         1         0     30868         1         0
     30871         1         0     30874         1         0     30877         1         0
     30880         1         0     30883         1         0     30886         1         0
     30889         1         0     30892         1         0     30895         1         0
     30898         1         0     30901         1         0     30904         1         0
     30907         1         0     30910         1         0     30913         1         0
     30916         1         0     30919         1         0     30922         1         0
     30925         1         0     30928         1         0     30931         1         0
     30934         1         0     30937         1         0     30940         1         0
     30943         1         0     30946         1         0     30949         1         0
     30952         1         0     30955         1         0     30958         1         0
     30961         1         0     30964         1         0     30967         1         0
     30970         1         0     30973         1         0     30976         1         0
     30979         1         0     30982         1         0     30985         1         0
     30988         1         0     30991         1         0     30994         1         0
     30997         1         0     31000         1         0     31003         1         0
     31006         1         0     31009         1         0     31012         1         0
     31015         1         0     31018         1         0     31021         1         0
     31024         1         0     31027         1         0     31030         1         0
     31033         1         0     31036         1         0     31039         1         0
     31042         1         0     31045         1         0     31048         1         0
     31051         1         0     31054         1         0     31057         1         0
     31060         1         0     31063         1         0     31066         1         0
     31069         1         0     31072         1         0     31075         1         0
     31078         1         0     31081         1         0     31084         1         0
     31087         1         0     31090         1         0     31093         1         0
     31096         1         0     31099         1         0     31102         1         0
     31105         1         0     31108         1         0     31111         1         0
     31114         1         0     31117         1         0     31120         1         0
     31123         1         0     31126         1         0     31129         1         0
     31132         1         0     31135         1         0     31138         1         0
     31141         1         0     31144         1         0     31147         1         0
     31150         1         0     31153         1         0     31156         1         0
     31159         1         0     31162         1         0     31165         1         0
     31168         1         0     31171         1         0     31174         1         0
     31177         1         0     31180         1         0     31183         1         0
     31186         1         0     31189         1         0     31192         1         0
     31195         1         0     31198         1         0     31201         1         0
     31204         1         0     31207         1         0     31210         1         0
     31213         1         0     31216         1         0     31219         1         0
     31222         1         0     31225         1         0     31228         1         0
     31231         1         0     31234         1         0     31237         1         0
     31240         1         0     31243         1         0     31246         1         0
     31249         1         0     31252         1         0     31255         1         0
     31258         1         0     31261         1         0     31264         1         0
     31267         1         0     31270         1         0     31273         1         0
     31276         1         0     31279         1         0     31282         1         0
     31285         1         0     31288         1         0     31291         1         0
     31294         1         0     31297         1         0     31300         1         0
     31303         1         0     31306         1         0     31309         1         0
     31312         1         0     31315         1         0     31318         1         0
     31321         1         0     31324         1         0     31327         1         0
     31330         1         0     31333         1         0     31336         1         0
     31339         1         0     31342         1         0     31345         1         0
     31348         1         0     31351         1         0     31354         1         0
     31357         1         0     31360         1         0     31363         1         0
     31366         1         0     31369         1         0     31372         1         0
     31375         1         0     31378         1         0     31381         1         0
     31384         1         0     31387         1         0     31390         1         0
     31393         1         0     31396         1         0     31399         1         0
     31402         1         0     31405         1         0     31408         1         0
     31411         1         0     31414         1         0     31417         1         0
     31420         1         0     31423         1         0     31426         1         0
     31429         1         0     31432         1         0     31435         1         0
     31438         1         0     31441         1         0     31444         1         0
     31447         1         0     31450         1         0     31453         1         0
     31456         1         0     31459         1         0     31462         1         0
     31465         1         0     31468         1         0     31471         1         0
     31474         1         0     31477         1         0     31480         1         0
     31483         1         0     31486         1         0     31489         1         0
     31492         1         0     31495         1         0     31498         1         0
     31501         1         0     31504         1         0     31507         1         0
     31510         1         0     31513         1         0     31516         1         0
     31519         1         0     31522         1         0     31525         1         0
     31528         1         0     31531         1         0     31534         1         0
     31537         1         0     31540         1         0     31543         1         0
     31546         1         0     31549         1         0     31552         1         0
     31555         1         0     31558         1         0     31561         1         0
     31564         1         0     31567         1         0     31570         1         0
     31573         1         0     31576         1         0     31579         1         0
     31582         1         0     31585         1         0     31588         1         0
     31591         1         0     31594         1         0     31597         1         0
     31600         1         0     31603         1         0     31606         1         0
     31609         1         0     31612         1         0     31615         1         0
     31618         1         0     31621         1         0     31624         1         0
     31627         1         0     31630         1         0     31633         1         0
     31636         1         0     31639         1         0     31642         1         0
     31645         1         0     31648         1         0     31651         1         0
     31654         1         0     31657         1         0     31660         1         0
     31663         1         0     31666         1         0     31669         1         0
     31672         1         0     31675         1         0     31678         1         0
     31681         1         0     31684         1         0     31687         1         0
     31690         1         0     31693         1         0     31696         1         0
     31699         1         0     31702         1         0     31705         1         0
     31708         1         0     31711         1         0     31714         1         0
     31717         1         0     31720         1         0     31723         1         0
     31726         1         0     31729         1         0     31732         1         0
     31735         1         0     31738         1         0     31741         1         0
     31744         1         0     31747         1         0     31750         1         0
     31753         1         0     31756         1         0     31759         1         0
     31762         1         0     31765         1         0     31768         1         0
     31771         1         0     31774         1         0     31777         1         0
     31780         1         0     31783         1         0     31786         1         0
     31789         1         0     31792         1         0     31795         1         0
     31798         1         0     31801         1         0     31804         1         0
     31807         1         0     31810         1         0     31813         1         0
     31816         1         0     31819         1         0     31822         1         0
     31825         1         0     31828         1         0     31831         1         0
     31834         1         0     31837         1         0     31840         1         0
     31843         1         0     31846         1         0     31849         1         0
     31852         1         0     31855         1         0     31858         1         0
     31861         1         0     31864         1         0     31867         1         0
     31870         1         0     31873         1         0     31876         1         0
     31879         1         0     31882         1         0     31885         1         0
     31888         1         0     31891         1         0     31894         1         0
     31897         1         0     31900         1         0     31903         1         0
     31906         1         0     31909         1         0     31912         1         0
     31915         1         0     31918         1         0     31921         1         0
     31924         1         0     31927         1         0     31930         1         0
     31933         1         0     31936         1         0     31939         1         0
     31942         1         0     31945         1         0     31948         1         0
     31951         1         0     31954         1         0     31957         1         0
     31960         1         0     31963         1         0     31966         1         0
     31969         1         0     31972         1         0     31975         1         0
     31978         1         0     31981         1         0     31984         1         0
     31987         1         0     31990         1         0     31993         1         0
     31996         1         0     31999         1         0     32002         1         0
     32005         1         0     32008         1         0     32011         1         0
     32014         1         0     32017         1         0     32020         1         0
     32023         1         0     32026         1         0     32029         1         0
     32032         1         0     32035         1         0     32038         1         0
     32041         1         0     32044         1         0     32047         1         0
     32050         1         0     32053         1         0     32056         1         0
     32059         1         0     32062         1         0     32065         1         0
     32068         1         0     32071         1         0     32074         1         0
     32077         1         0     32080         1         0     32083         1         0
     32086         1         0     32089         1         0     32092         1         0
     32095         1         0     32098         1         0     32101         1         0
     32104         1         0     32107         1         0     32110         1         0
     32113         1         0     32116         1         0     32119         1         0
     32122         1         0     32125         1         0     32128         1         0
     32131         1         0     32134         1         0     32137         1         0
     32140         1         0     32143         1         0     32146         1         0
     32149         1         0     32152         1         0     32155         1         0
     32158         1         0     32161         1         0     32164         1         0
     32167         1         0     32170         1         0     32173         1         0
     32176         1         0     32179         1         0     32182         1         0
     32185         1         0     32188         1         0     32191         1         0
     32194         1         0     32197         1         0     32200         1         0
     32203         1         0     32206         1         0     32209         1         0
     32212         1         0     32215         1         0     32218         1         0
     32221         1         0     32224         1         0     32227         1         0
     32230         1         0     32233         1         0     32236         1         0
     32239         1         0     32242         1         0     32245         1         0
     32248         1         0     32251         1         0     32254         1         0
     32257         1         0     32260         1         0     32263         1         0
     32266         1         0     32269         1         0     32272         1         0
     32275         1         0     32278         1         0     32281         1         0
     32284         1         0     32287         1         0     32290         1         0
     32293         1         0     32296         1         0     32299         1         0
     32302         1         0     32305         1         0     32308         1         0
     32311         1         0     32314         1         0     32317         1         0
     32320         1         0     32323         1         0     32326         1         0
     32329         1         0     32332         1         0     32335         1         0
     32338         1         0     32341         1         0     32344         1         0
     32347         1         0     32350         1         0     32353         1         0
     32356         1         0     32359         1         0     32362         1         0
     32365         1         0     32368         1         0     32371         1         0
     32374         1         0     32377         1         0     32380         1         0
     32383         1         0     32386         1         0     32389         1         0
     32392         1         0     32395         1         0     32398         1         0
     32401         1         0     32404         1         0     32407         1         0
     32410         1         0     32413         1         0     32416         1         0
     32419         1         0     32422         1         0     32425         1         0
     32428         1         0     32431         1         0     32434         1         0
     32437         1         0     32440         1         0     32443         1         0
     32446         1         0     32449         1         0     32452         1         0
     32455         1         0     32458         1         0     32461         1         0
     32464         1         0     32467         1         0     32470         1         0
     32473         1         0     32476         1         0     32479         1         0
     32482         1         0     32485         1         0     32488         1         0
     32491         1         0     32494         1         0     32497         1         0
     32500         1         0     32503         1         0     32506         1         0
     32509         1         0     32512         1         0     32515         1         0
     32518         1         0     32521         1         0     32524         1         0
     32527         1         0     32530         1         0     32533         1         0
     32536         1         0     32539         1         0     32542         1         0
     32545         1         0     32548         1         0     32551         1         0
     32554         1         0     32557         1         0     32560         1         0
     32563         1         0     32566         1         0     32569         1         0
     32572         1         0     32575         1         0     32578         1         0
     32581         1         0     32584         1         0     32587         1         0
     32590         1         0     32593         1         0     32596         1         0
     32599         1         0     32602         1         0     32605         1         0
     32608         1         0     32611         1         0     32614         1         0
     32617         1         0     32620         1         0     32623         1         0
     32626         1         0     32629         1         0     32632         1         0
     32635         1         0     32638         1         0     32641         1         0
     32644         1         0     32647         1         0     32650         1         0
     32653         1         0     32656         1         0     32659         1         0
     32662         1         0     32665         1         0     32668         1         0
     32671         1         0     32674         1         0     32677         1         0
     32680         1         0     32683         1         0     32686         1         0
     32689         1         0     32692         1         0     32695         1         0
     32698         1         0     32701         1         0     32704         1         0
     32707         1         0     32710         1         0     32713         1         0
     32716         1         0     32719         1         0     32722         1         0
     32725         1         0     32728         1         0     32731         1         0
     32734         1         0     32737         1         0     32740         1         0
     32743         1         0     32746         1         0     32749         1         0
     32752         1         0     32755         1         0     32758         1         0
     32761         1         0     32764         1         0     32767         1         0
     32770         1         0     32773         1         0     32776         1         0
     32779         1         0     32782         1         0     32785         1         0
     32788         1         0     32791         1         0     32794         1         0
     32797         1         0     32800         1         0     32803         1         0
     32806         1         0     32809         1         0     32812         1         0
     32815         1         0     32818         1         0     32821         1         0
     32824         1         0     32827         1         0     32830         1         0
     32833         1         0     32836         1         0     32839         1         0
     32842         1         0     32845         1         0     32848         1         0
     32851         1         0     32854         1         0     32857         1         0
     32860         1         0     32863         1         0     32866         1         0
     32869         1         0     32872         1         0     32875         1         0
     32878         1         0     32881         1         0     32884         1         0
     32887         1         0     32890         1         0     32893         1         0
     32896         1         0     32899         1         0     32902         1         0
     32905         1         0     32908         1         0     32911         1         0
     32914         1         0     32917         1         0     32920         1         0
     32923         1         0     32926         1         0     32929         1         0
     32932         1         0     32935         1         0     32938         1         0
     32941         1         0     32944         1         0     32947         1         0
     32950         1         0     32953         1         0     32956         1         0
     32959         1         0     32962         1         0     32965         1         0
     32968         1         0     32971         1         0     32974         1         0
     32977         1         0     32980         1         0     32983         1         0
     32986         1         0     32989         1         0     32992         1         0
     32995         1         0     32998         1         0     33001         1         0
     33004         1         0     33007         1         0     33010         1         0
     33013         1         0     33016         1         0     33019         1         0
     33022         1         0     33025         1         0     33028         1         0
     33031         1         0     33034         1         0     33037         1         0
     33040         1         0     33043         1         0     33046         1         0
     33049         1         0     33052         1         0     33055         1         0
     33058         1         0     33061         1         0     33064         1         0
     33067         1         0     33070         1         0     33073         1         0
     33076         1         0     33079         1         0     33082         1         0
     33085         1         0     33088         1         0     33091         1         0
     33094         1         0     33097         1         0     33100         1         0
     33103         1         0     33106         1         0     33109         1         0
     33112         1         0     33115         1         0     33118         1         0
     33121         1         0     33124         1         0     33127         1         0
     33130         1         0     33133         1         0     33136         1         0
     33139         1         0     33142         1         0     33145         1         0
     33148         1         0     33151         1         0     33154         1         0
     33157         1         0     33160         1         0     33163         1         0
     33166         1         0     33169         1         0     33172         1         0
     33175         1         0     33178         1         0     33181         1         0
     33184         1         0     33187         1         0     33190         1         0
     33193         1         0     33196         1         0     33199         1         0
     33202         1         0     33205         1         0     33208         1         0
     33211         1         0     33214         1         0     33217         1         0
     33220         1         0     33223         1         0     33226         1         0
     33229         1         0     33232         1         0     33235         1         0
     33238         1         0     33241         1         0     33244         1         0
     33247         1         0     33250         1         0     33253         1         0
     33256         1         0     33259         1         0     33262         1         0
     33265         1         0     33268         1         0     33271         1         0
     33274         1         0     33277         1         0     33280         1         0
     33283         1         0     33286         1         0     33289         1         0
     33292         1         0     33295         1         0     33298         1         0
     33301         1         0     33304         1         0     33307         1         0
     33310         1         0     33313         1         0     33316         1         0
     33319         1         0     33322         1         0     33325         1         0
     33328         1         0     33331         1         0     33334         1         0
     33337         1         0     33340         1         0     33343         1         0
     33346         1         0     33349         1         0     33352         1         0
     33355         1         0     33358         1         0     33361         1         0
     33364         1         0     33367         1         0     33370         1         0
     33373         1         0     33376         1         0     33379         1         0
     33382         1         0     33385         1         0     33388         1         0
     33391         1         0     33394         1         0     33397         1         0
     33400         1         0     33403         1         0     33406         1         0
     33409         1         0     33412         1         0     33415         1         0
     33418         1         0     33421         1         0     33424         1         0
     33427         1         0     33430         1         0     33433         1         0
     33436         1         0     33439         1         0     33442         1         0
     33445         1         0     33448         1         0     33451         1         0
     33454         1         0     33457         1         0     33460         1         0
     33463         1         0     33466         1         0     33469         1         0
     33472         1         0     33475         1         0     33478         1         0
     33481         1         0     33484         1         0     33487         1         0
     33490         1         0     33493         1         0     33496         1         0
     33499         1         0     33502         1         0     33505         1         0
     33508         1         0     33511         1         0     33514         1         0
     33517         1         0     33520         1         0     33523         1         0
     33526         1         0     33529         1         0     33532         1         0
     33535         1         0     33538         1         0     33541         1         0
     33544         1         0     33547         1         0     33550         1         0
     33553         1         0     33556         1         0     33559         1         0
     33562         1         0     33565         1         0     33568         1         0
     33571         1         0     33574         1         0     33577         1         0
     33580         1         0     33583         1         0     33586         1         0
     33589         1         0     33592         1         0     33595         1         0
     33598         1         0     33601         1         0     33604         1         0
     33607         1         0     33610         1         0     33613         1         0
     33616         1         0     33619         1         0     33622         1         0
     33625         1         0     33628         1         0     33631         1         0
     33634         1         0     33637         1         0     33640         1         0
     33643         1         0     33646         1         0     33649         1         0
     33652         1         0     33655         1         0     33658         1         0
     33661         1         0     33664         1         0     33667         1         0
     33670         1         0     33673         1         0     33676         1         0
     33679         1         0     33682         1         0     33685         1         0
     33688         1         0     33691         1         0     33694         1         0
     33697         1         0     33700         1         0     33703         1         0
     33706         1         0     33709         1         0     33712         1         0
     33715         1         0     33718         1         0     33721         1         0
     33724         1         0     33727         1         0     33730         1         0
     33733         1         0     33736         1         0     33739         1         0
     33742         1         0     33745         1         0     33748         1         0
     33751         1         0     33754         1         0     33757         1         0
     33760         1         0     33763         1         0     33766         1         0
     33769         1         0     33772         1         0     33775         1         0
     33778         1         0     33781         1         0     33784         1         0
     33787         1         0     33790         1         0     33793         1         0
     33796         1         0     33799         1         0     33802         1         0
     33805         1         0     33808         1         0     33811         1         0
     33814         1         0     33817         1         0     33820         1         0
     33823         1         0     33826         1         0     33829         1         0
     33832         1         0     33835         1         0     33838         1         0
     33841         1         0     33844         1         0     33847         1         0
     33850         1         0     33853         1         0     33856         1         0
     33859         1         0     33862         1         0     33865         1         0
     33868         1         0     33871         1         0     33874         1         0
     33877         1         0     33880         1         0     33883         1         0
     33886         1         0     33889         1         0     33892         1         0
     33895         1         0     33898         1         0     33901         1         0
     33904         1         0     33907         1         0     33910         1         0
     33913         1         0     33916         1         0     33919         1         0
     33922         1         0     33925         1         0     33928         1         0
     33931         1         0     33934         1         0     33937         1         0
     33940         1         0     33943         1         0     33946         1         0
     33949         1         0     33952         1         0     33955         1         0
     33958         1         0     33961         1         0     33964         1         0
     33967         1         0     33970         1         0     33973         1         0
     33976         1         0     33979         1         0     33982         1         0
     33985         1         0     33988         1         0     33991         1         0
     33994         1         0     33997         1         0     34000         1         0
     34003         1         0     34006         1         0     34009         1         0
     34012         1         0     34015         1         0     34018         1         0
     34021         1         0     34024         1         0     34027         1         0
     34030         1         0     34033         1         0     34036         1         0
     34039         1         0     34042         1         0     34045         1         0
     34048         1         0     34051         1         0     34054         1         0
     34057         1         0     34060         1         0     34063         1         0
     34066         1         0     34069         1         0     34072         1         0
     34075         1         0     34078         1         0     34081         1         0
     34084         1         0     34087         1         0     34090         1         0
     34093         1         0     34096         1         0     34099         1         0
     34102         1         0     34105         1         0     34108         1         0
     34111         1         0     34114         1         0     34117         1         0
     34120         1         0     34123         1         0     34126         1         0
     34129         1         0     34132         1         0     34135         1         0
     34138         1         0     34141         1         0     34144         1         0
     34147         1         0     34150         1         0     34153         1         0
     34156         1         0     34159         1         0     34162         1         0
     34165         1         0     34168         1         0     34171         1         0
     34174         1         0     34177         1         0     34180         1         0
     34183         1         0     34186         1         0     34189         1         0
     34192         1         0     34195         1         0     34198         1         0
     34201         1         0     34204         1         0     34207         1         0
     34210         1         0     34213         1         0     34216         1         0
     34219         1         0     34222         1         0     34225         1         0
     34228         1         0     34231         1         0     34234         1         0
     34237         1         0     34240         1         0     34243         1         0
     34246         1         0     34249         1         0     34252         1         0
     34255         1         0     34258         1         0     34261         1         0
     34264         1         0     34267         1         0     34270         1         0
     34273         1         0     34276         1         0     34279         1         0
     34282         1         0     34285         1         0     34288         1         0
     34291         1         0     34294         1         0     34297         1         0
     34300         1         0     34303         1         0     34306         1         0
     34309         1         0     34312         1         0     34315         1         0
     34318         1         0     34321         1         0     34324         1         0
     34327         1         0     34330         1         0     34333         1         0
     34336         1         0     34339         1         0     34342         1         0
     34345         1         0     34348         1         0     34351         1         0
     34354         1         0     34357         1         0     34360         1         0
     34363         1         0     34366         1         0     34369         1         0
     34372         1         0     34375         1         0     34378         1         0
     34381         1         0     34384         1         0     34387         1         0
     34390         1         0     34393         1         0     34396         1         0
     34399         1         0     34402         1         0     34405         1         0
     34408         1         0     34411         1         0     34414         1         0
     34417         1         0     34420         1         0     34423         1         0
     34426         1         0     34429         1         0     34432         1         0
     34435         1         0     34438         1         0     34441         1         0
     34444         1         0     34447         1         0     34450         1         0
     34453         1         0     34456         1         0     34459         1         0
     34462         1         0     34465         1         0     34468         1         0
     34471         1         0     34474         1         0     34477         1         0
     34480         1         0     34483         1         0     34486         1         0
     34489         1         0     34492         1         0     34495         1         0
     34498         1         0     34501         1         0     34504         1         0
     34507         1         0     34510         1         0     34513         1         0
     34516         1         0     34519         1         0     34522         1         0
     34525         1         0     34528         1         0     34531         1         0
     34534         1         0     34537         1         0     34540         1         0
     34543         1         0     34546         1         0     34549         1         0
     34552         1         0     34555         1         0     34558         1         0
     34561         1         0     34564         1         0     34567         1         0
     34570         1         0     34573         1         0     34576         1         0
     34579         1         0     34582         1         0     34585         1         0
     34588         1         0     34591         1         0     34594         1         0
     34597         1         0     34600         1         0     34603         1         0
     34606         1         0     34609         1         0     34612         1         0
     34615         1         0     34618         1         0     34621         1         0
     34624         1         0     34627         1         0     34630         1         0
     34633         1         0     34636         1         0     34639         1         0
     34642         1         0     34645         1         0     34648         1         0
     34651         1         0     34654         1         0     34657         1         0
     34660         1         0     34663         1         0     34666         1         0
     34669         1         0     34672         1         0     34675         1         0
     34678         1         0     34681         1         0     34684         1         0
     34687         1         0     34690         1         0     34693         1         0
     34696         1         0     34699         1         0     34702         1         0
     34705         1         0     34708         1         0     34711         1         0
     34714         1         0     34717         1         0     34720         1         0
     34723         1         0     34726         1         0     34729         1         0
     34732         1         0     34735         1         0     34738         1         0
     34741         1         0     34744         1         0     34747         1         0
     34750         1         0     34753         1         0     34756         1         0
     34759         1         0     34762         1         0     34765         1         0
     34768         1         0     34771         1         0     34774         1         0
     34777         1         0     34780         1         0     34783         1         0
     34786         1         0     34789         1         0     34792         1         0
     34795         1         0     34798         1         0     34801         1         0
     34804         1         0     34807         1         0     34810         1         0
     34813         1         0     34816         1         0     34819         1         0
     34822         1         0     34825         1         0     34828         1         0
     34831         1         0     34834         1         0     34837         1         0
     34840         1         0     34843         1         0     34846         1         0
     34849         1         0     34852         1         0     34855         1         0
     34858         1         0     34861         1         0     34864         1         0
     34867         1         0     34870         1         0     34873         1         0
     34876         1         0     34879         1         0     34882         1         0
     34885         1         0     34888         1         0     34891         1         0
     34894         1         0     34897         1         0     34900         1         0
     34903         1         0     34906         1         0     34909         1         0
     34912         1         0     34915         1         0     34918         1         0
     34921         1         0     34924         1         0     34927         1         0
     34930         1         0     34933         1         0     34936         1         0
     34939         1         0     34942         1         0     34945         1         0
     34948         1         0     34951         1         0     34954         1         0
     34957         1         0     34960         1         0     34963         1         0
     34966         1         0     34969         1         0     34972         1         0
     34975         1         0     34978         1         0     34981         1         0
     34984         1         0     34987         1         0     34990         1         0
     34993         1         0     34996         1         0     34999         1         0
     35002         1         0     35005         1         0     35008         1         0
     35011         1         0     35014         1         0     35017         1         0
     35020         1         0     35023         1         0     35026         1         0
     35029         1         0     35032         1         0     35035         1         0
     35038         1         0     35041         1         0     35044         1         0
     35047         1         0     35050         1         0     35053         1         0
     35056         1         0     35059         1         0     35062         1         0
     35065         1         0     35068         1         0     35071         1         0
     35074         1         0     35077         1         0     35080         1         0
     35083         1         0     35086         1         0     35089         1         0
     35092         1         0     35095         1         0     35098         1         0
     35101         1         0     35104         1         0     35107         1         0
     35110         1         0     35113         1         0     35116         1         0
     35119         1         0     35122         1         0     35125         1         0
     35128         1         0     35131         1         0     35134         1         0
     35137         1         0     35140         1         0     35143         1         0
     35146         1         0     35149         1         0     35152         1         0
     35155         1         0     35158         1         0     35161         1         0
     35164         1         0     35167         1         0     35170         1         0
     35173         1         0     35176         1         0     35179         1         0
     35182         1         0     35185         1         0     35188         1         0
     35191         1         0     35194         1         0     35197         1         0
     35200         1         0     35203         1         0     35206         1         0
     35209         1         0     35212         1         0     35215         1         0
     35218         1         0     35221         1         0     35224         1         0
     35227         1         0     35230         1         0     35233         1         0
     35236         1         0     35239         1         0     35242         1         0
     35245         1         0     35248         1         0     35251         1         0
     35254         1         0     35257         1         0     35260         1         0
     35263         1         0     35266         1         0     35269         1         0
     35272         1         0     35275         1         0     35278         1         0
     35281         1         0     35284         1         0     35287         1         0
     35290         1         0     35293         1         0     35296         1         0
     35299         1         0     35302         1         0     35305         1         0
     35308         1         0     35311         1         0     35314         1         0
     35317         1         0     35320         1         0     35323         1         0
     35326         1         0     35329         1         0     35332         1         0
     35335         1         0     35338         1         0     35341         1         0
     35344         1         0     35347         1         0     35350         1         0
     35353         1         0     35356         1         0     35359         1         0
     35362         1         0     35365         1         0     35368         1         0
     35371         1         0     35374         1         0     35377         1         0
     35380         1         0     35383         1         0     35386         1         0
     35389         1         0     35392         1         0     35395         1         0
     35398         1         0     35401         1         0     35404         1         0
     35407         1         0     35410         1         0     35413         1         0
     35416         1         0     35419         1         0     35422         1         0
     35425         1         0     35428         1         0     35431         1         0
     35434         1         0     35437         1         0     35440         1         0
     35443         1         0     35446         1         0     35449         1         0
     35452         1         0     35455         1         0     35458         1         0
     35461         1         0     35464         1         0     35467         1         0
     35470         1         0     35473         1         0     35476         1         0
     35479         1         0     35482         1         0     35485         1         0
     35488         1         0     35491         1         0     35494         1         0
     35497         1         0     35500         1         0     35503         1         0
     35506         1         0     35509         1         0     35512         1         0
     35515         1         0     35518         1         0     35521         1         0
     35524         1         0     35527         1         0     35530         1         0
     35533         1         0     35536         1         0     35539         1         0
     35542         1         0     35545         1         0     35548         1         0
     35551         1         0     35554         1         0     35557         1         0
     35560         1         0     35563         1         0     35566         1         0
     35569         1         0     35572         1         0     35575         1         0
     35578         1         0     35581         1         0     35584         1         0
     35587         1         0     35590         1         0     35593         1         0
     35596         1         0     35599         1         0     35602         1         0
     35605         1         0     35608         1         0     35611         1         0
     35614         1         0     35617         1         0     35620         1         0
     35623         1         0     35626         1         0     35629         1         0
     35632         1         0     35635         1         0     35638         1         0
     35641         1         0     35644         1         0     35647         1         0
     35650         1         0     35653         1         0     35656         1         0
     35659         1         0     35662         1         0     35665         1         0
     35668         1         0     35671         1         0     35674         1         0
     35677         1         0     35680         1         0     35683         1         0
     35686         1         0     35689         1         0     35692         1         0
     35695         1         0     35698         1         0     35701         1         0
     35704         1         0     35707         1         0     35710         1         0
     35713         1         0     35716         1         0     35719         1         0
     35722         1         0     35725         1         0     35728         1         0
     35731         1         0     35734         1         0     35737         1         0
     35740         1         0     35743         1         0     35746         1         0
     35749         1         0     35752         1         0     35755         1         0
     35758         1         0     35761         1         0     35764         1         0
     35767         1         0     35770         1         0     35773         1         0
     35776         1         0     35779         1         0     35782         1         0
     35785         1         0     35788         1         0     35791         1         0
     35794         1         0     35797         1         0     35800         1         0
     35803         1         0     35806         1         0     35809         1         0
     35812         1         0     35815         1         0     35818         1         0
     35821         1         0     35824         1         0     35827         1         0
     35830         1         0     35833         1         0     35836         1         0
     35839         1         0     35842         1         0     35845         1         0
     35848         1         0     35851         1         0     35854         1         0
     35857         1         0     35860         1         0     35863         1         0
     35866         1         0     35869         1         0     35872         1         0
     35875         1         0     35878         1         0     35881         1         0
     35884         1         0     35887         1         0     35890         1         0
     35893         1         0     35896         1         0     35899         1         0
     35902         1         0     35905         1         0     35908         1         0
     35911         1         0     35914         1         0     35917         1         0
     35920         1         0     35923         1         0     35926         1         0
     35929         1         0     35932         1         0     35935         1         0
     35938         1         0     35941         1         0     35944         1         0
     35947         1         0     35950         1         0     35953         1         0
     35956         1         0     35959         1         0     35962         1         0
     35965         1         0     35968         1         0     35971         1         0
     35974         1         0     35977         1         0     35980         1         0
     35983         1         0     35986         1         0     35989         1         0
     35992         1         0     35995         1         0     35998         1         0
     36001         1         0     36004         1         0     36007         1         0
     36010         1         0     36013         1         0     36016         1         0
     36019         1         0     36022         1         0     36025         1         0
     36028         1         0     36031         1         0     36034         1         0
     36037         1         0     36040         1         0     36043         1         0
     36046         1         0     36049         1         0     36052         1         0
     36055         1         0     36058         1         0     36061         1         0
     36064         1         0     36067         1         0     36070         1         0
     36073         1         0     36076         1         0     36079         1         0
     36082         1         0     36085         1         0     36088         1         0
     36091         1         0     36094         1         0     36097         1         0
     36100         1         0     36103         1         0     36106         1         0
     36109         1         0     36112         1         0     36115         1         0
     36118         1         0     36121         1         0     36124         1         0
     36127         1         0     36130         1         0     36133         1         0
     36136         1         0     36139         1         0     36142         1         0
     36145         1         0     36148         1         0     36151         1         0
     36154         1         0     36157         1         0     36160         1         0
     36163         1         0     36166         1         0     36169         1         0
     36172         1         0     36175         1         0     36178         1         0
     36181         1         0     36184         1         0     36187         1         0
     36190         1         0     36193         1         0     36196         1         0
     36199         1         0     36202         1         0     36205         1         0
     36208         1         0     36211         1         0     36214         1         0
     36217         1         0     36220         1         0     36223         1         0
     36226         1         0     36229         1         0     36232         1         0
     36235         1         0     36238         1         0     36241         1         0
     36244         1         0     36247         1         0     36250         1         0
     36253         1         0     36256         1         0     36259         1         0
     36262         1         0     36265         1         0     36268         1         0
     36271         1         0     36274         1         0     36277         1         0
     36280         1         0     36283         1         0     36286         1         0
     36289         1         0     36292         1         0     36295         1         0
     36298         1         0     36301         1         0     36304         1         0
     36307         1         0     36310         1         0     36313         1         0
     36316         1         0     36319         1         0     36322         1         0
     36325         1         0     36328         1         0     36331         1         0
     36334         1         0     36337         1         0     36340         1         0
     36343         1         0     36346         1         0     36349         1         0
     36352         1         0     36355         1         0     36358         1         0
     36361         1         0     36364         1         0     36367         1         0
     36370         1         0     36373         1         0     36376         1         0
     36379         1         0     36382         1         0     36385         1         0
     36388         1         0     36391         1         0     36394         1         0
     36397         1         0     36400         1         0     36403         1         0
     36406         1         0     36409         1         0     36412         1         0
     36415         1         0     36418         1         0     36421         1         0
     36424         1         0     36427         1         0     36430         1         0
     36433         1         0     36436         1         0     36439         1         0
     36442         1         0     36445         1         0     36448         1         0
     36451         1         0     36454         1         0     36457         1         0
     36460         1         0     36463         1         0     36466         1         0
     36469         1         0     36472         1         0     36475         1         0
     36478         1         0     36481         1         0     36484         1         0
     36487         1         0     36490         1         0     36493         1         0
     36496         1         0     36499         1         0     36502         1         0
     36505         1         0     36508         1         0     36511         1         0
     36514         1         0     36517         1         0     36520         1         0
     36523         1         0     36526         1         0     36529         1         0
     36532         1         0     36535         1         0     36538         1         0
     36541         1         0     36544         1         0     36547         1         0
     36550         1         0     36553         1         0     36556         1         0
     36559         1         0     36562         1         0     36565         1         0
     36568         1         0     36571         1         0     36574         1         0
     36577         1         0     36580         1         0     36583         1         0
     36586         1         0     36589         1         0     36592         1         0
     36595         1         0     36598         1         0     36601         1         0
     36604         1         0     36607         1         0     36610         1         0
     36613         1         0     36616         1         0     36619         1         0
     36622         1         0     36625         1         0     36628         1         0
     36631         1         0     36634         1         0     36637         1         0
     36640         1         0     36643         1         0     36646         1         0
     36649         1         0     36652         1         0     36655         1         0
     36658         1         0     36661         1         0     36664         1         0
     36667         1         0     36670         1         0     36673         1         0
     36676         1         0     36679         1         0     36682         1         0
     36685         1         0     36688         1         0     36691         1         0
     36694         1         0     36697         1         0     36700         1         0
     36703         1         0     36706         1         0     36709         1         0
     36712         1         0     36715         1         0     36718         1         0
     36721         1         0     36724         1         0     36727         1         0
     36730         1         0     36733         1         0     36736         1         0
     36739         1         0     36742         1         0     36745         1         0
     36748         1         0     36751         1         0     36754         1         0
     36757         1         0     36760         1         0     36763         1         0
     36766         1         0     36769         1         0     36772         1         0
     36775         1         0     36778         1         0     36781         1         0
     36784         1         0     36787         1         0     36790         1         0
     36793         1         0     36796         1         0     36799         1         0
     36802         1         0     36805         1         0     36808         1         0
     36811         1         0     36814         1         0     36817         1         0
     36820         1         0     36823         1         0     36826         1         0
     36829         1         0     36832         1         0     36835         1         0
     36838         1         0     36841         1         0     36844         1         0
     36847         1         0     36850         1         0     36853         1         0
     36856         1         0     36859         1         0     36862         1         0
     36865         1         0     36868         1         0     36871         1         0
     36874         1         0     36877         1         0     36880         1         0
     36883         1         0     36886         1         0     36889         1         0
     36892         1         0     36895         1         0     36898         1         0
     36901         1         0     36904         1         0     36907         1         0
     36910         1         0     36913         1         0     36916         1         0
     36919         1         0     36922         1         0     36925         1         0
     36928         1         0     36931         1         0     36934         1         0
     36937         1         0     36940         1         0     36943         1         0
     36946         1         0     36949         1         0     36952         1         0
     36955         1         0     36958         1         0     36961         1         0
     36964         1         0     36967         1         0     36970         1         0
     36973         1         0     36976         1         0     36979         1         0
     36982         1         0     36985         1         0     36988         1         0
     36991         1         0     36994         1         0     36997         1         0
     37000         1         0     37003         1         0     37006         1         0
     37009         1         0     37012         1         0     37015         1         0
     37018         1         0     37021         1         0     37024         1         0
     37027         1         0     37030         1         0     37033         1         0
     37036         1         0     37039         1         0     37042         1         0
     37045         1         0     37048         1         0     37051         1         0
     37054         1         0     37057         1         0     37060         1         0
     37063         1         0     37066         1         0     37069         1         0
     37072         1         0     37075         1         0     37078         1         0
     37081         1         0     37084         1         0     37087         1         0
     37090         1         0     37093         1         0     37096         1         0
     37099         1         0     37102         1         0     37105         1         0
     37108         1         0     37111         1         0     37114         1         0
     37117         1         0     37120         1         0     37123         1         0
     37126         1         0     37129         1         0     37132         1         0
     37135         1         0     37138         1         0     37141         1         0
     37144         1         0     37147         1         0     37150         1         0
     37153         1         0     37156         1         0     37159         1         0
     37162         1         0     37165         1         0     37168         1         0
     37171         1         0     37174         1         0     37177         1         0
     37180         1         0     37183         1         0     37186         1         0
     37189         1         0     37192         1         0     37195         1         0
     37198         1         0     37201         1         0     37204         1         0
     37207         1         0     37210         1         0     37213         1         0
     37216         1         0     37219         1         0     37222         1         0
     37225         1         0     37228         1         0     37231         1         0
     37234         1         0     37237         1         0     37240         1         0
     37243         1         0     37246         1         0     37249         1         0
     37252         1         0     37255         1         0     37258         1         0
     37261         1         0     37264         1         0     37267         1         0
     37270         1         0     37273         1         0     37276         1         0
     37279         1         0     37282         1         0     37285         1         0
     37288         1         0     37291         1         0     37294         1         0
     37297         1         0     37300         1         0     37303         1         0
     37306         1         0     37309         1         0     37312         1         0
     37315         1         0     37318         1         0     37321         1         0
     37324         1         0     37327         1         0     37330         1         0
     37333         1         0     37336         1         0     37339         1         0
     37342         1         0     37345         1         0     37348         1         0
     37351         1         0     37354         1         0     37357         1         0
     37360         1         0     37363         1         0     37366         1         0
     37369         1         0     37372         1         0     37375         1         0
     37378         1         0     37381         1         0     37384         1         0
     37387         1         0     37390         1         0     37393         1         0
     37396         1         0     37399         1         0     37402         1         0
     37405         1         0     37408         1         0     37411         1         0
     37414         1         0     37417         1         0     37420         1         0
     37423         1         0     37426         1         0     37429         1         0
     37432         1         0     37435         1         0     37438         1         0
     37441         1         0     37444         1         0     37447         1         0
     37450         1         0     37453         1         0     37456         1         0
     37459         1         0     37462         1         0     37465         1         0
     37468         1         0     37471         1         0     37474         1         0
     37477         1         0     37480         1         0     37483         1         0
     37486         1         0     37489         1         0     37492         1         0
     37495         1         0     37498         1         0     37501         1         0
     37504         1         0     37507         1         0     37510         1         0
     37513         1         0     37516         1         0     37519         1         0
     37522         1         0     37525         1         0     37528         1         0
     37531         1         0     37534         1         0     37537         1         0
     37540         1         0     37543         1         0     37546         1         0
     37549         1         0     37552         1         0     37555         1         0
     37558         1         0     37561         1         0     37564         1         0
     37567         1         0     37570         1         0     37573         1         0
     37576         1         0     37579         1         0     37582         1         0
     37585         1         0     37588         1         0     37591         1         0
     37594         1         0     37597         1         0     37600         1         0
     37603         1         0     37606         1         0     37609         1         0
     37612         1         0     37615         1         0     37618         1         0
     37621         1         0     37624         1         0     37627         1         0
     37630         1         0     37633         1         0     37636         1         0
     37639         1         0     37642         1         0     37645         1         0
     37648         1         0     37651         1         0     37654         1         0
     37657         1         0     37660         1         0     37663         1         0
     37666         1         0     37669         1         0     37672         1         0
     37675         1         0     37678         1         0     37681         1         0
     37684         1         0     37687         1         0     37690         1         0
     37693         1         0     37696         1         0     37699         1         0
     37702         1         0     37705         1         0     37708         1         0
     37711         1         0     37714         1         0     37717         1         0
     37720         1         0     37723         1         0     37726         1         0
     37729         1         0     37732         1         0     37735         1         0
     37738         1         0     37741         1         0     37744         1         0
     37747         1         0     37750         1         0     37753         1         0
     37756         1         0     37759         1         0     37762         1         0
     37765         1         0     37768         1         0     37771         1         0
     37774         1         0     37777         1         0     37780         1         0
     37783         1         0     37786         1         0     37789         1         0
     37792         1         0     37795         1         0     37798         1         0
     37801         1         0     37804         1         0     37807         1         0
     37810         1         0     37813         1         0     37816         1         0
     37819         1         0     37822         1         0     37825         1         0
     37828         1         0     37831         1         0     37834         1         0
     37837         1         0     37840         1         0     37843         1         0
     37846         1         0     37849         1         0     37852         1         0
     37855         1         0     37858         1         0     37861         1         0
     37864         1         0     37867         1         0     37870         1         0
     37873         1         0     37876         1         0     37879         1         0
     37882         1         0     37885         1         0     37888         1         0
     37891         1         0     37894         1         0     37897         1         0
     37900         1         0     37903         1         0     37906         1         0
     37909         1         0     37912         1         0     37915         1         0
     37918         1         0     37921         1         0     37924         1         0
     37927         1         0     37930         1         0     37933         1         0
     37936         1         0     37939         1         0     37942         1         0
     37945         1         0     37948         1         0     37951         1         0
     37954         1         0     37957         1         0     37960         1         0
     37963         1         0     37966         1         0     37969         1         0
     37972         1         0     37975         1         0     37978         1         0
     37981         1         0     37984         1         0     37987         1         0
     37990         1         0     37993         1         0     37996         1         0
     37999         1         0     38002         1         0     38005         1         0
     38008         1         0     38011         1         0     38014         1         0
     38017         1         0     38020         1         0     38023         1         0
     38026         1         0     38029         1         0     38032         1         0
     38035         1         0     38038         1         0     38041         1         0
     38044         1         0     38047         1         0     38050         1         0
     38053         1         0     38056         1         0     38059         1         0
     38062         1         0     38065         1         0     38068         1         0
     38071         1         0     38074         1         0     38077         1         0
     38080         1         0     38083         1         0     38086         1         0
     38089         1         0     38092         1         0     38095         1         0
     38098         1         0     38101         1         0     38104         1         0
     38107         1         0     38110         1         0     38113         1         0
     38116         1         0     38119         1         0     38122         1         0
     38125         1         0     38128         1         0     38131         1         0
     38134         1         0     38137         1         0     38140         1         0
     38143         1         0     38146         1         0     38149         1         0
     38152         1         0     38155         1         0     38158         1         0
     38161         1         0     38164         1         0     38167         1         0
     38170         1         0     38173         1         0     38176         1         0
     38179         1         0     38182         1         0     38185         1         0
     38188         1         0     38191         1         0     38194         1         0
     38197         1         0     38200         1         0     38203         1         0
     38206         1         0     38209         1         0     38212         1         0
     38215         1         0     38218         1         0     38221         1         0
     38224         1         0     38227         1         0     38230         1         0
     38233         1         0     38236         1         0     38239         1         0
     38242         1         0     38245         1         0     38248         1         0
     38251         1         0     38254         1         0     38257         1         0
     38260         1         0     38263         1         0     38266         1         0
     38269         1         0     38272         1         0     38275         1         0
     38278         1         0     38281         1         0     38284         1         0
     38287         1         0     38290         1         0     38293         1         0
     38296         1         0     38299         1         0     38302         1         0
     38305         1         0     38308         1         0     38311         1         0
     38314         1         0     38317         1         0     38320         1         0
     38323         1         0     38326         1         0     38329         1         0
     38332         1         0     38335         1         0     38338         1         0
     38341         1         0     38344         1         0     38347         1         0
     38350         1         0     38353         1         0     38356         1         0
     38359         1         0     38362         1         0     38365         1         0
     38368         1         0     38371         1         0     38374         1         0
     38377         1         0     38380         1         0     38383         1         0
     38386         1         0     38389         1         0     38392         1         0
     38395         1         0     38398         1         0     38401         1         0
     38404         1         0     38407         1         0     38410         1         0
     38413         1         0     38416         1         0     38419         1         0
     38422         1         0     38425         1         0     38428         1         0
     38431         1         0     38434         1         0     38437         1         0
     38440         1         0     38443         1         0     38446         1         0
     38449         1         0     38452         1         0     38455         1         0
     38458         1         0     38461         1         0     38464         1         0
     38467         1         0     38470         1         0     38473         1         0
     38476         1         0     38479         1         0     38482         1         0
     38485         1         0     38488         1         0     38491         1         0
     38494         1         0     38497         1         0     38500         1         0
     38503         1         0     38506         1         0     38509         1         0
     38512         1         0     38515         1         0     38518         1         0
     38521         1         0     38524         1         0     38527         1         0
     38530         1         0     38533         1         0     38536         1         0
     38539         1         0     38542         1         0     38545         1         0
     38548         1         0     38551         1         0     38554         1         0
     38557         1         0     38560         1         0     38563         1         0
     38566         1         0     38569         1         0     38572         1         0
     38575         1         0     38578         1         0     38581         1         0
     38584         1         0     38587         1         0     38590         1         0
     38593         1         0     38596         1         0     38599         1         0
     38602         1         0     38605         1         0     38608         1         0
     38611         1         0     38614         1         0     38617         1         0
     38620         1         0     38623         1         0     38626         1         0
     38629         1         0     38632         1         0     38635         1         0
     38638         1         0     38641         1         0     38644         1         0
     38647         1         0     38650         1         0     38653         1         0
     38656         1         0     38659         1         0     38662         1         0
     38665         1         0     38668         1         0     38671         1         0
     38674         1         0     38677         1         0     38680         1         0
     38683         1         0     38686         1         0     38689         1         0
     38692         1         0     38695         1         0     38698         1         0
     38701         1         0     38704         1         0     38707         1         0
     38710         1         0     38713         1         0     38716         1         0
     38719         1         0     38722         1         0     38725         1         0
     38728         1         0     38731         1         0     38734         1         0
     38737         1         0     38740         1         0     38743         1         0
     38746         1         0     38749         1         0     38752         1         0
     38755         1         0     38758         1         0     38761         1         0
     38764         1         0     38767         1         0     38770         1         0
     38773         1         0     38776         1         0     38779         1         0
     38782         1         0     38785         1         0     38788         1         0
     38791         1         0     38794         1         0     38797         1         0
     38800         1         0     38803         1         0     38806         1         0
     38809         1         0     38812         1         0     38815         1         0
     38818         1         0     38821         1         0     38824         1         0
     38827         1         0     38830         1         0     38833         1         0
     38836         1         0     38839         1         0     38842         1         0
     38845         1         0     38848         1         0     38851         1         0
     38854         1         0     38857         1         0     38860         1         0
     38863         1         0     38866         1         0     38869         1         0
     38872         1         0     38875         1         0     38878         1         0
     38881         1         0     38884         1         0     38887         1         0
     38890         1         0     38893         1         0     38896         1         0
     38899         1         0     38902         1         0     38905         1         0
     38908         1         0     38911         1         0     38914         1         0
     38917         1         0     38920         1         0     38923         1         0
     38926         1         0     38929         1         0     38932         1         0
     38935         1         0     38938         1         0     38941         1         0
     38944         1         0     38947         1         0     38950         1         0
     38953         1         0     38956         1         0     38959         1         0
     38962         1         0     38965         1         0     38968         1         0
     38971         1         0     38974         1         0     38977         1         0
     38980         1         0     38983         1         0     38986         1         0
     38989         1         0     38992         1         0     38995         1         0
     38998         1         0     39001         1         0     39004         1         0
     39007         1         0     39010         1         0     39013         1         0
     39016         1         0     39019         1         0     39022         1         0
     39025         1         0     39028         1         0     39031         1         0
     39034         1         0     39037         1         0     39040         1         0
     39043         1         0     39046         1         0     39049         1         0
     39052         1         0     39055         1         0     39058         1         0
     39061         1         0     39064         1         0     39067         1         0
     39070         1         0     39073         1         0     39076         1         0
     39079         1         0     39082         1         0     39085         1         0
     39088         1         0     39091         1         0     39094         1         0
     39097         1         0     39100         1         0     39103         1         0
     39106         1         0     39109         1         0     39112         1         0
     39115         1         0     39118         1         0     39121         1         0
     39124         1         0     39127         1         0     39130         1         0
     39133         1         0     39136         1         0     39139         1         0
     39142         1         0     39145         1         0     39148         1         0
     39151         1         0     39154         1         0     39157         1         0
     39160         1         0     39163         1         0     39166         1         0
     39169         1         0     39172         1         0     39175         1         0
     39178         1         0     39181         1         0     39184         1         0
     39187         1         0     39190         1         0     39193         1         0
     39196         1         0     39199         1         0     39202         1         0
     39205         1         0     39208         1         0     39211         1         0
     39214         1         0     39217         1         0     39220         1         0
     39223         1         0     39226         1         0     39229         1         0
     39232         1         0     39235         1         0     39238         1         0
     39241         1         0     39244         1         0     39247         1         0
     39250         1         0     39253         1         0     39256         1         0
     39259         1         0     39262         1         0     39265         1         0
     39268         1         0     39271         1         0     39274         1         0
     39277         1         0     39280         1         0     39283         1         0
     39286         1         0     39289         1         0     39292         1         0
     39295         1         0     39298         1         0     39301         1         0
     39304         1         0     39307         1         0     39310         1         0
     39313         1         0     39316         1         0     39319         1         0
     39322         1         0     39325         1         0     39328         1         0
     39331         1         0     39334         1         0     39337         1         0
     39340         1         0     39343         1         0     39346         1         0
     39349         1         0     39352         1         0     39355         1         0
     39358         1         0     39361         1         0     39364         1         0
     39367         1         0     39370         1         0     39373         1         0
     39376         1         0     39379         1         0     39382         1         0
     39385         1         0     39388         1         0     39391         1         0
     39394         1         0     39397         1         0     39400         1         0
     39403         1         0     39406         1         0     39409         1         0
     39412         1         0     39415         1         0     39418         1         0
     39421         1         0     39424         1         0     39427         1         0
     39430         1         0     39433         1         0     39436         1         0
     39439         1         0     39442         1         0     39445         1         0
     39448         1         0     39451         1         0     39454         1         0
     39457         1         0     39460         1         0     39463         1         0
     39466         1         0     39469         1         0     39472         1         0
     39475         1         0     39478         1         0     39481         1         0
     39484         1         0     39487         1         0     39490         1         0
     39493         1         0     39496         1         0     39499         1         0
     39502         1         0     39505         1         0     39508         1         0
     39511         1         0     39514         1         0     39517         1         0
     39520         1         0     39523         1         0     39526         1         0
     39529         1         0     39532         1         0     39535         1         0
     39538         1         0     39541         1         0     39544         1         0
     39547         1         0     39550         1         0     39553         1         0
     39556         1         0     39559         1         0     39562         1         0
     39565         1         0     39568         1         0     39571         1         0
     39574         1         0     39577         1         0     39580         1         0
     39583         1         0     39586         1         0     39589         1         0
     39592         1         0     39595         1         0     39598         1         0
     39601         1         0     39604         1         0     39607         1         0
     39610         1         0     39613         1         0     39616         1         0
     39619         1         0     39622         1         0     39625         1         0
     39628         1         0     39631         1         0     39634         1         0
     39637         1         0     39640         1         0     39643         1         0
     39646         1         0     39649         1         0     39652         1         0
     39655         1         0     39658         1         0     39661         1         0
     39664         1         0     39667         1         0     39670         1         0
     39673         1         0     39676         1         0     39679         1         0
     39682         1         0     39685         1         0     39688         1         0
     39691         1         0     39694         1         0     39697         1         0
     39700         1         0     39703         1         0     39706         1         0
     39709         1         0     39712         1         0     39715         1         0
     39718         1         0     39721         1         0     39724         1         0
     39727         1         0     39730         1         0     39733         1         0
     39736         1         0     39739         1         0     39742         1         0
     39745         1         0     39748         1         0     39751         1         0
     39754         1         0     39757         1         0     39760         1         0
     39763         1         0     39766         1         0     39769         1         0
     39772         1         0     39775         1         0     39778         1         0
     39781         1         0     39784         1         0     39787         1         0
     39790         1         0     39793         1         0     39796         1         0
     39799         1         0     39802         1         0     39805         1         0
     39808         1         0     39811         1         0     39814         1         0
     39817         1         0     39820         1         0     39823         1         0
     39826         1         0     39829         1         0     39832         1         0
     39835         1         0     39838         1         0     39841         1         0
     39844         1         0     39847         1         0     39850         1         0
     39853         1         0     39856         1         0     39859         1         0
     39862         1         0     39865         1         0     39868         1         0
     39871         1         0     39874         1         0     39877         1         0
     39880         1         0     39883         1         0     39886         1         0
     39889         1         0     39892         1         0     39895         1         0
     39898         1         0     39901         1         0     39904         1         0
     39907         1         0     39910         1         0     39913         1         0
     39916         1         0     39919         1         0     39922         1         0
     39925         1         0     39928         1         0     39931         1         0
     39934         1         0     39937         1         0     39940         1         0
     39943         1         0     39946         1         0     39949         1         0
     39952         1         0     39955         1         0     39958         1         0
     39961         1         0     39964         1         0     39967         1         0
     39970         1         0     39973         1         0     39976         1         0
     39979         1         0     39982         1         0     39985         1         0
     39988         1         0     39991         1         0     39994         1         0
     39997         1         0     40000         1         0     40003         1         0
     40006         1         0     40009         1         0     40012         1         0
     40015         1         0     40018         1         0     40021         1         0
     40024         1         0     40027         1         0     40030         1         0
     40033         1         0     40036         1         0     40039         1         0
     40042         1         0     40045         1         0     40048         1         0
     40051         1         0     40054         1         0     40057         1         0
     40060         1         0     40063         1         0     40066         1         0
     40069         1         0     40072         1         0     40075         1         0
     40078         1         0     40081         1         0     40084         1         0
     40087         1         0     40090         1         0     40093         1         0
     40096         1         0     40099         1         0     40102         1         0
     40105         1         0     40108         1         0     40111         1         0
     40114         1         0     40117         1         0     40120         1         0
     40123         1         0     40126         1         0     40129         1         0
     40132         1         0     40135         1         0     40138         1         0
     40141         1         0     40144         1         0     40147         1         0
     40150         1         0     40153         1         0     40156         1         0
     40159         1         0     40162         1         0     40165         1         0
     40168         1         0     40171         1         0     40174         1         0
     40177         1         0     40180         1         0     40183         1         0
     40186         1         0     40189         1         0     40192         1         0
     40195         1         0     40198         1         0     40201         1         0
     40204         1         0     40207         1         0     40210         1         0
     40213         1         0     40216         1         0     40219         1         0
     40222         1         0     40225         1         0     40228         1         0
     40231         1         0     40234         1         0     40237         1         0
     40240         1         0     40243         1         0     40246         1         0
     40249         1         0     40252         1         0     40255         1         0
     40258         1         0     40261         1         0     40264         1         0
     40267         1         0     40270         1         0     40273         1         0
     40276         1         0     40279         1         0     40282         1         0
     40285         1         0     40288         1         0     40291         1         0
     40294         1         0     40297         1         0     40300         1         0
     40303         1         0     40306         1         0     40309         1         0
     40312         1         0     40315         1         0     40318         1         0
     40321         1         0     40324         1         0     40327         1         0
     40330         1         0     40333         1         0     40336         1         0
     40339         1         0     40342         1         0     40345         1         0
     40348         1         0     40351         1         0     40354         1         0
     40357         1         0     40360         1         0     40363         1         0
     40366         1         0     40369         1         0     40372         1         0
     40375         1         0     40378         1         0     40381         1         0
     40384         1         0     40387         1         0     40390         1         0
     40393         1         0     40396         1         0     40399         1         0
     40402         1         0     40405         1         0     40408         1         0
     40411         1         0     40414         1         0     40417         1         0
     40420         1         0     40423         1         0     40426         1         0
     40429         1         0     40432         1         0     40435         1         0
     40438         1         0     40441         1         0     40444         1         0
     40447         1         0     40450         1         0     40453         1         0
     40456         1         0     40459         1         0     40462         1         0
     40465         1         0     40468         1         0     40471         1         0
     40474         1         0     40477         1         0     40480         1         0
     40483         1         0     40486         1         0     40489         1         0
     40492         1         0     40495         1         0     40498         1         0
     40501         1         0     40504         1         0     40507         1         0
     40510         1         0     40513         1         0     40516         1         0
     40519         1         0     40522         1         0     40525         1         0
     40528         1         0     40531         1         0     40534         1         0
     40537         1         0     40540         1         0     40543         1         0
     40546         1         0     40549         1         0     40552         1         0
     40555         1         0     40558         1         0     40561         1         0
     40564         1         0     40567         1         0     40570         1         0
     40573         1         0     40576         1         0     40579         1         0
     40582         1         0     40585         1         0     40588         1         0
     40591         1         0     40594         1         0     40597         1         0
     40600         1         0     40603         1         0     40606         1         0
     40609         1         0     40612         1         0     40615         1         0
     40618         1         0     40621         1         0     40624         1         0
     40627         1         0     40630         1         0     40633         1         0
     40636         1         0     40639         1         0     40642         1         0
     40645         1         0     40648         1         0     40651         1         0
     40654         1         0     40657         1         0     40660         1         0
     40663         1         0     40666         1         0     40669         1         0
     40672         1         0     40675         1         0     40678         1         0
     40681         1         0     40684         1         0     40687         1         0
     40690         1         0     40693         1         0     40696         1         0
     40699         1         0     40702         1         0     40705         1         0
     40708         1         0     40711         1         0     40714         1         0
     40717         1         0     40720         1         0     40723         1         0
     40726         1         0     40729         1         0     40732         1         0
     40735         1         0     40738         1         0     40741         1         0
     40744         1         0     40747         1         0     40750         1         0
     40753         1         0     40756         1         0     40759         1         0
     40762         1         0     40765         1         0     40768         1         0
     40771         1         0     40774         1         0     40777         1         0
     40780         1         0     40783         1         0     40786         1         0
     40789         1         0     40792         1         0     40795         1         0
     40798         1         0     40801         1         0     40804         1         0
     40807         1         0     40810         1         0     40813         1         0
     40816         1         0     40819         1         0     40822         1         0
     40825         1         0     40828         1         0     40831         1         0
     40834         1         0     40837         1         0     40840         1         0
     40843         1         0     40846         1         0     40849         1         0
     40852         1         0     40855         1         0     40858         1         0
     40861         1         0     40864         1         0     40867         1         0
     40870         1         0     40873         1         0     40876         1         0
     40879         1         0     40882         1         0     40885         1         0
     40888         1         0     40891         1         0     40894         1         0
     40897         1         0     40900         1         0     40903         1         0
     40906         1         0     40909         1         0     40912         1         0
     40915         1         0     40918         1         0     40921         1         0
     40924         1         0     40927         1         0     40930         1         0
     40933         1         0     40936         1         0     40939         1         0
     40942         1         0     40945         1         0     40948         1         0
     40951         1         0     40954         1         0     40957         1         0
     40960         1         0     40963         1         0     40966         1         0
     40969         1         0     40972         1         0     40975         1         0
     40978         1         0     40981         1         0     40984         1         0
     40987         1         0     40990         1         0     40993         1         0
     40996         1         0     40999         1         0     41002         1         0
     41005         1         0     41008         1         0     41011         1         0
     41014         1         0     41017         1         0     41020         1         0
     41023         1         0     41026         1         0     41029         1         0
     41032         1         0     41035         1         0     41038         1         0
     41041         1         0     41044         1         0     41047         1         0
     41050         1         0     41053         1         0     41056         1         0
     41059         1         0     41062         1         0     41065         1         0
     41068         1         0     41071         1         0     41074         1         0
     41077         1         0     41080         1         0     41083         1         0
     41086         1         0     41089         1         0     41092         1         0
     41095         1         0     41098         1         0     41101         1         0
     41104         1         0     41107         1         0     41110         1         0
     41113         1         0     41116         1         0     41119         1         0
     41122         1         0     41125         1         0     41128         1         0
     41131         1         0     41134         1         0     41137         1         0
     41140         1         0     41143         1         0     41146         1         0
     41149         1         0     41152         1         0     41155         1         0
     41158         1         0     41161         1         0     41164         1         0
     41167         1         0     41170         1         0     41173         1         0
     41176         1         0     41179         1         0     41182         1         0
     41185         1         0     41188         1         0     41191         1         0
     41194         1         0     41197         1         0     41200         1         0
     41203         1         0     41206         1         0     41209         1         0
     41212         1         0     41215         1         0     41218         1         0
     41221         1         0     41224         1         0     41227         1         0
     41230         1         0     41233         1         0     41236         1         0
     41239         1         0     41242         1         0     41245         1         0
     41248         1         0     41251         1         0     41254         1         0
     41257         1         0     41260         1         0     41263         1         0
     41266         1         0     41269         1         0     41272         1         0
     41275         1         0     41278         1         0     41281         1         0
     41284         1         0     41287         1         0     41290         1         0
     41293         1         0     41296         1         0     41299         1         0
     41302         1         0     41305         1         0     41308         1         0
     41311         1         0     41314         1         0     41317         1         0
     41320         1         0     41323         1         0     41326         1         0
     41329         1         0     41332         1         0     41335         1         0
     41338         1         0     41341         1         0     41344         1         0
     41347         1         0     41350         1         0     41353         1         0
     41356         1         0     41359         1         0     41362         1         0
     41365         1         0     41368         1         0     41371         1         0
     41374         1         0     41377         1         0     41380         1         0
     41383         1         0     41386         1         0     41389         1         0
     41392         1         0     41395         1         0     41398         1         0
     41401         1         0     41404         1         0     41407         1         0
     41410         1         0     41413         1         0     41416         1         0
     41419         1         0     41422         1         0     41425         1         0
     41428         1         0     41431         1         0     41434         1         0
     41437         1         0     41440         1         0     41443         1         0
     41446         1         0     41449         1         0     41452         1         0
     41455         1         0     41458         1         0     41461         1         0
     41464         1         0     41467         1         0     41470         1         0
     41473         1         0     41476         1         0     41479         1         0
     41482         1         0     41485         1         0     41488         1         0
     41491         1         0     41494         1         0     41497         1         0
     41500         1         0     41503         1         0     41506         1         0
     41509         1         0     41512         1         0     41515         1         0
     41518         1         0     41521         1         0     41524         1         0
     41527         1         0     41530         1         0     41533         1         0
     41536         1         0     41539         1         0     41542         1         0
     41545         1         0     41548         1         0     41551         1         0
     41554         1         0     41557         1         0     41560         1         0
     41563         1         0     41566         1         0     41569         1         0
     41572         1         0     41575         1         0     41578         1         0
     41581         1         0     41584         1         0     41587         1         0
     41590         1         0     41593         1         0     41596         1         0
     41599         1         0     41602         1         0     41605         1         0
     41608         1         0     41611         1         0     41614         1         0
     41617         1         0     41620         1         0     41623         1         0
     41626         1         0     41629         1         0     41632         1         0
     41635         1         0     41638         1         0     41641         1         0
     41644         1         0     41647         1         0     41650         1         0
     41653         1         0     41656         1         0     41659         1         0
     41662         1         0     41665         1         0     41668         1         0
     41671         1         0     41674         1         0     41677         1         0
     41680         1         0     41683         1         0     41686         1         0
     41689         1         0     41692         1         0     41695         1         0
     41698         1         0     41701         1         0     41704         1         0
     41707         1         0     41710         1         0     41713         1         0
     41716         1         0     41719         1         0     41722         1         0
     41725         1         0     41728         1         0     41731         1         0
     41734         1         0     41737         1         0     41740         1         0
     41743         1         0     41746         1         0     41749         1         0
     41752         1         0     41755         1         0     41758         1         0
     41761         1         0     41764         1         0     41767         1         0
     41770         1         0     41773         1         0     41776         1         0
     41779         1         0     41782         1         0     41785         1         0
     41788         1         0     41791         1         0     41794         1         0
     41797         1         0     41800         1         0     41803         1         0
     41806         1         0     41809         1         0     41812         1         0
     41815         1         0     41818         1         0     41821         1         0
     41824         1         0     41827         1         0     41830         1         0
     41833         1         0     41836         1         0     41839         1         0
     41842         1         0     41845         1         0     41848         1         0
     41851         1         0     41854         1         0     41857         1         0
     41860         1         0     41863         1         0     41866         1         0
     41869         1         0     41872         1         0     41875         1         0
     41878         1         0     41881         1         0     41884         1         0
     41887         1         0     41890         1         0     41893         1         0
     41896         1         0     41899         1         0     41902         1         0
     41905         1         0     41908         1         0     41911         1         0
     41914         1         0     41917         1         0     41920         1         0
     41923         1         0     41926         1         0     41929         1         0
     41932         1         0     41935         1         0     41938         1         0
     41941         1         0     41944         1         0     41947         1         0
     41950         1         0     41953         1         0     41956         1         0
     41959         1         0     41962         1         0     41965         1         0
     41968         1         0     41971         1         0     41974         1         0
     41977         1         0     41980         1         0     41983         1         0
     41986         1         0     41989         1         0     41992         1         0
     41995         1         0     41998         1         0     42001         1         0
     42004         1         0     42007         1         0     42010         1         0
     42013         1         0     42016         1         0     42019         1         0
     42022         1         0     42025         1         0     42028         1         0
     42031         1         0     42034         1         0     42037         1         0
     42040         1         0     42043         1         0     42046         1         0
     42049         1         0     42052         1         0     42055         1         0
     42058         1         0     42061         1         0     42064         1         0
     42067         1         0     42070         1         0     42073         1         0
     42076         1         0     42079         1         0     42082         1         0
     42085         1         0     42088         1         0     42091         1         0
     42094         1         0     42097         1         0     42100         1         0
     42103         1         0     42106         1         0     42109         1         0
     42112         1         0     42115         1         0     42118         1         0
     42121         1         0     42124         1         0     42127         1         0
     42130         1         0     42133         1         0     42136         1         0
     42139         1         0     42142         1         0     42145         1         0
     42148         1         0     42151         1         0     42154         1         0
     42157         1         0     42160         1         0     42163         1         0
     42166         1         0     42169         1         0     42172         1         0
     42175         1         0     42178         1         0     42181         1         0
     42184         1         0     42187         1         0     42190         1         0
     42193         1         0     42196         1         0     42199         1         0
     42202         1         0     42205         1         0     42208         1         0
     42211         1         0     42214         1         0     42217         1         0
     42220         1         0     42223         1         0     42226         1         0
     42229         1         0     42232         1         0     42235         1         0
     42238         1         0     42241         1         0     42244         1         0
     42247         1         0     42250         1         0     42253         1         0
     42256         1         0     42259         1         0     42262         1         0
     42265         1         0     42268         1         0     42271         1         0
     42274         1         0     42277         1         0     42280         1         0
     42283         1         0     42286         1         0     42289         1         0
     42292         1         0     42295         1         0     42298         1         0
     42301         1         0     42304         1         0     42307         1         0
     42310         1         0     42313         1         0     42316         1         0
     42319         1         0     42322         1         0     42325         1         0
     42328         1         0     42331         1         0     42334         1         0
     42337         1         0     42340         1         0     42343         1         0
     42346         1         0     42349         1         0     42352         1         0
     42355         1         0     42358         1         0     42361         1         0
     42364         1         0     42367         1         0     42370         1         0
     42373         1         0     42376         1         0     42379         1         0
     42382         1         0     42385         1         0     42388         1         0
     42391         1         0     42394         1         0     42397         1         0
     42400         1         0     42403         1         0     42406         1         0
     42409         1         0     42412         1         0     42415         1         0
     42418         1         0     42421         1         0     42424         1         0
     42427         1         0     42430         1         0     42433         1         0
     42436         1         0     42439         1         0     42442         1         0
     42445         1         0     42448         1         0     42451         1         0
     42454         1         0     42457         1         0     42460         1         0
     42463         1         0     42466         1         0     42469         1         0
     42472         1         0     42475         1         0     42478         1         0
     42481         1         0     42484         1         0     42487         1         0
     42490         1         0     42493         1         0     42496         1         0
     42499         1         0     42502         1         0     42505         1         0
     42508         1         0     42511         1         0     42514         1         0
     42517         1         0     42520         1         0     42523         1         0
     42526         1         0     42529         1         0     42532         1         0
     42535         1         0     42538         1         0     42541         1         0
     42544         1         0     42547         1         0     42550         1         0
     42553         1         0     42556         1         0     42559         1         0
     42562         1         0     42565         1         0     42568         1         0
     42571         1         0     42574         1         0     42577         1         0
     42580         1         0     42583         1         0     42586         1         0
     42589         1         0     42592         1         0     42595         1         0
     42598         1         0     42601         1         0     42604         1         0
     42607         1         0     42610         1         0     42613         1         0
     42616         1         0     42619         1         0     42622         1         0
     42625         1         0     42628         1         0     42631         1         0
     42634         1         0     42637         1         0     42640         1         0
     42643         1         0     42646         1         0     42649         1         0
     42652         1         0     42655         1         0     42658         1         0
     42661         1         0     42664         1         0     42667         1         0
     42670         1         0     42673         1         0     42676         1         0
     42679         1         0     42682         1         0     42685         1         0
     42688         1         0     42691         1         0     42694         1         0
     42697         1         0     42700         1         0     42703         1         0
     42706         1         0     42709         1         0     42712         1         0
     42715         1         0     42718         1         0     42721         1         0
     42724         1         0     42727         1         0     42730         1         0
     42733         1         0     42736         1         0     42739         1         0
     42742         1         0     42745         1         0     42748         1         0
     42751         1         0     42754         1         0     42757         1         0
     42760         1         0     42763         1         0     42766         1         0
     42769         1         0     42772         1         0     42775         1         0
     42778         1         0     42781         1         0     42784         1         0
     42787         1         0     42790         1         0     42793         1         0
     42796         1         0     42799         1         0     42802         1         0
     42805         1         0     42808         1         0     42811         1         0
     42814         1         0     42817         1         0     42820         1         0
     42823         1         0     42826         1         0     42829         1         0
     42832         1         0     42835         1         0     42838         1         0
     42841         1         0     42844         1         0     42847         1         0
     42850         1         0     42853         1         0     42856         1         0
     42859         1         0     42862         1         0     42865         1         0
     42868         1         0     42871         1         0     42874         1         0
     42877         1         0     42880         1         0     42883         1         0
     42886         1         0     42889         1         0     42892         1         0
     42895         1         0     42898         1         0     42901         1         0
     42904         1         0     42907         1         0     42910         1         0
     42913         1         0     42916         1         0     42919         1         0
     42922         1         0     42925         1         0     42928         1         0
     42931         1         0     42934         1         0     42937         1         0
     42940         1         0     42943         1         0     42946         1         0
     42949         1         0     42952         1         0     42955         1         0
     42958         1         0     42961         1         0     42964         1         0
     42967         1         0     42970         1         0     42973         1         0
     42976         1         0     42979         1         0     42982         1         0
     42985         1         0     42988         1         0     42991         1         0
     42994         1         0     42997         1         0     43000         1         0
     43003         1         0     43006         1         0     43009         1         0
     43012         1         0     43015         1         0     43018         1         0
     43021         1         0     43024         1         0     43027         1         0
     43030         1         0     43033         1         0     43036         1         0
     43039         1         0     43042         1         0     43045         1         0
     43048         1         0     43051         1         0     43054         1         0
     43057         1         0     43060         1         0     43063         1         0
     43066         1         0     43069         1         0     43072         1         0
     43075         1         0     43078         1         0     43081         1         0
     43084         1         0     43087         1         0     43090         1         0
     43093         1         0     43096         1         0     43099         1         0
     43102         1         0     43105         1         0     43108         1         0
     43111         1         0     43114         1         0     43117         1         0
     43120         1         0     43123         1         0     43126         1         0
     43129         1         0     43132         1         0     43135         1         0
     43138         1         0     43141         1         0     43144         1         0
     43147         1         0     43150         1         0     43153         1         0
     43156         1         0     43159         1         0     43162         1         0
     43165         1         0     43168         1         0     43171         1         0
     43174         1         0     43177         1         0     43180         1         0
     43183         1         0     43186         1         0     43189         1         0
     43192         1         0     43195         1         0     43198         1         0
     43201         1         0     43204         1         0     43207         1         0
     43210         1         0     43213         1         0     43216         1         0
     43219         1         0     43222         1         0     43225         1         0
     43228         1         0     43231         1         0     43234         1         0
     43237         1         0     43240         1         0     43243         1         0
     43246         1         0     43249         1         0     43252         1         0
     43255         1         0     43258         1         0     43261         1         0
     43264         1         0     43267         1         0     43270         1         0
     43273         1         0     43276         1         0     43279         1         0
     43282         1         0     43285         1         0     43288         1         0
     43291         1         0     43294         1         0     43297         1         0
     43300         1         0     43303         1         0     43306         1         0
     43309         1         0     43312         1         0     43315         1         0
     43318         1         0     43321         1         0     43324         1         0
     43327         1         0     43330         1         0     43333         1         0
     43336         1         0     43339         1         0     43342         1         0
     43345         1         0     43348         1         0     43351         1         0
     43354         1         0     43357         1         0     43360         1         0
     43363         1         0     43366         1         0     43369         1         0
     43372         1         0     43375         1         0     43378         1         0
     43381         1         0     43384         1         0     43387         1         0
     43390         1         0     43393         1         0     43396         1         0
     43399         1         0     43402         1         0     43405         1         0
     43408         1         0     43411         1         0     43414         1         0
     43417         1         0     43420         1         0     43423         1         0
     43426         1         0     43429         1         0     43432         1         0
     43435         1         0     43438         1         0     43441         1         0
     43444         1         0     43447         1         0     43450         1         0
     43453         1         0     43456         1         0     43459         1         0
     43462         1         0     43465         1         0     43468         1         0
     43471         1         0     43474         1         0     43477         1         0
     43480         1         0     43483         1         0     43486         1         0
     43489         1         0     43492         1         0     43495         1         0
     43498         1         0     43501         1         0     43504         1         0
     43507         1         0     43510         1         0     43513         1         0
     43516         1         0     43519         1         0     43522         1         0
     43525         1         0     43528         1         0     43531         1         0
     43534         1         0     43537         1         0     43540         1         0
     43543         1         0     43546         1         0     43549         1         0
     43552         1         0     43555         1         0     43558         1         0
     43561         1         0     43564         1         0     43567         1         0
     43570         1         0     43573         1         0     43576         1         0
     43579         1         0     43582         1         0     43585         1         0
     43588         1         0     43591         1         0     43594         1         0
     43597         1         0     43600         1         0     43603         1         0
     43606         1         0     43609         1         0     43612         1         0
     43615         1         0     43618         1         0     43621         1         0
     43624         1         0     43627         1         0     43630         1         0
     43633         1         0     43636         1         0     43639         1         0
     43642         1         0     43645         1         0     43648         1         0
     43651         1         0     43654         1         0     43657         1         0
     43660         1         0     43663         1         0     43666         1         0
     43669         1         0     43672         1         0     43675         1         0
     43678         1         0     43681         1         0     43684         1         0
     43687         1         0     43690         1         0     43693         1         0
     43696         1         0     43699         1         0     43702         1         0
     43705         1         0     43708         1         0     43711         1         0
     43714         1         0     43717         1         0     43720         1         0
     43723         1         0     43726         1         0     43729         1         0
     43732         1         0     43735         1         0     43738         1         0
     43741         1         0     43744         1         0     43747         1         0
     43750         1         0     43753         1         0     43756         1         0
     43759         1         0     43762         1         0     43765         1         0
     43768         1         0     43771         1         0     43774         1         0
     43777         1         0     43780         1         0     43783         1         0
     43786         1         0     43789         1         0     43792         1         0
     43795         1         0     43798         1         0     43801         1         0
     43804         1         0     43807         1         0     43810         1         0
     43813         1         0     43816         1         0     43819         1         0
     43822         1         0     43825         1         0     43828         1         0
     43831         1         0     43834         1         0     43837         1         0
     43840         1         0     43843         1         0     43846         1         0
     43849         1         0     43852         1         0     43855         1         0
     43858         1         0     43861         1         0     43864         1         0
     43867         1         0     43870         1         0     43873         1         0
     43876         1         0     43879         1         0     43882         1         0
     43885         1         0     43888         1         0     43891         1         0
     43894         1         0     43897         1         0     43900         1         0
     43903         1         0     43906         1         0     43909         1         0
     43912         1         0     43915         1         0     43918         1         0
     43921         1         0     43924         1         0     43927         1         0
     43930         1         0     43933         1         0     43936         1         0
     43939         1         0     43942         1         0     43945         1         0
     43948         1         0     43951         1         0     43954         1         0
     43957         1         0     43960         1         0     43963         1         0
     43966         1         0     43969         1         0     43972         1         0
     43975         1         0     43978         1         0     43981         1         0
     43984         1         0     43987         1         0     43990         1         0
     43993         1         0     43996         1         0     43999         1         0
     44002         1         0     44005         1         0     44008         1         0
     44011         1         0     44014         1         0     44017         1         0
     44020         1         0     44023         1         0     44026         1         0
     44029         1         0     44032         1         0     44035         1         0
     44038         1         0     44041         1         0     44044         1         0
     44047         1         0     44050         1         0     44053         1         0
     44056         1         0     44059         1         0     44062         1         0
     44065         1         0     44068         1         0     44071         1         0
     44074         1         0     44077         1         0     44080         1         0
     44083         1         0     44086         1         0     44089         1         0
     44092         1         0     44095         1         0     44098         1         0
     44101         1         0     44104         1         0     44107         1         0
     44110         1         0     44113         1         0     44116         1         0
     44119         1         0     44122         1         0     44125         1         0
     44128         1         0     44131         1         0     44134         1         0
     44137         1         0     44140         1         0     44143         1         0
     44146         1         0     44149         1         0     44152         1         0
     44155         1         0     44158         1         0     44161         1         0
     44164         1         0     44167         1         0     44170         1         0
     44173         1         0     44176         1         0     44179         1         0
     44182         1         0     44185         1         0     44188         1         0
     44191         1         0     44194         1         0     44197         1         0
     44200         1         0     44203         1         0     44206         1         0
     44209         1         0     44212         1         0     44215         1         0
     44218         1         0     44221         1         0     44224         1         0
     44227         1         0     44230         1         0     44233         1         0
     44236         1         0     44239         1         0     44242         1         0
     44245         1         0     44248         1         0     44251         1         0
     44254         1         0     44257         1         0     44260         1         0
     44263         1         0     44266         1         0     44269         1         0
     44272         1         0     44275         1         0     44278         1         0
     44281         1         0     44284         1         0     44287         1         0
     44290         1         0     44293         1         0     44296         1         0
     44299         1         0     44302         1         0     44305         1         0
     44308         1         0     44311         1         0     44314         1         0
     44317         1         0     44320         1         0     44323         1         0
     44326         1         0     44329         1         0     44332         1         0
     44335         1         0     44338         1         0     44341         1         0
     44344         1         0     44347         1         0     44350         1         0
     44353         1         0     44356         1         0     44359         1         0
     44362         1         0     44365         1         0     44368         1         0
     44371         1         0     44374         1         0     44377         1         0
     44380         1         0     44383         1         0     44386         1         0
     44389         1         0     44392         1         0     44395         1         0
     44398         1         0     44401         1         0     44404         1         0
     44407         1         0     44410         1         0     44413         1         0
     44416         1         0     44419         1         0     44422         1         0
     44425         1         0     44428         1         0     44431         1         0
     44434         1         0     44437         1         0     44440         1         0
     44443         1         0     44446         1         0     44449         1         0
     44452         1         0     44455         1         0     44458         1         0
     44461         1         0     44464         1         0     44467         1         0
     44470         1         0     44473         1         0     44476         1         0
     44479         1         0     44482         1         0     44485         1         0
     44488         1         0     44491         1         0     44494         1         0
     44497         1         0     44500         1         0     44503         1         0
     44506         1         0     44509         1         0     44512         1         0
     44515         1         0     44518         1         0     44521         1         0
     44524         1         0     44527         1         0     44530         1         0
     44533         1         0     44536         1         0     44539         1         0
     44542         1         0     44545         1         0     44548         1         0
     44551         1         0     44554         1         0     44557         1         0
     44560         1         0     44563         1         0     44566         1         0
     44569         1         0     44572         1         0     44575         1         0
     44578         1         0     44581         1         0     44584         1         0
     44587         1         0     44590         1         0     44593         1         0
     44596         1         0     44599         1         0     44602         1         0
     44605         1         0     44608         1         0     44611         1         0
     44614         1         0     44617         1         0     44620         1         0
     44623         1         0     44626         1         0     44629         1         0
     44632         1         0     44635         1         0     44638         1         0
     44641         1         0     44644         1         0     44647         1         0
     44650         1         0     44653         1         0     44656         1         0
     44659         1         0     44662         1         0     44665         1         0
     44668         1         0     44671         1         0     44674         1         0
     44677         1         0     44680         1         0     44683         1         0
     44686         1         0     44689         1         0     44692         1         0
     44695         1         0     44698         1         0     44701         1         0
     44704         1         0     44707         1         0     44710         1         0
     44713         1         0     44716         1         0     44719         1         0
     44722         1         0     44725         1         0     44728         1         0
     44731         1         0     44734         1         0     44737         1         0
     44740         1         0     44743         1         0     44746         1         0
     44749         1         0     44752         1         0     44755         1         0
     44758         1         0     44761         1         0     44764         1         0
     44767         1         0     44770         1         0     44773         1         0
     44776         1         0     44779         1         0     44782         1         0
     44785         1         0     44788         1         0     44791         1         0
     44794         1         0     44797         1         0     44800         1         0
     44803         1         0     44806         1         0     44809         1         0
     44812         1         0     44815         1         0     44818         1         0
     44821         1         0     44824         1         0     44827         1         0
     44830         1         0     44833         1         0     44836         1         0
     44839         1         0     44842         1         0     44845         1         0
     44848         1         0     44851         1         0     44854         1         0
     44857         1         0     44860         1         0     44863         1         0
     44866         1         0     44869         1         0     44872         1         0
     44875         1         0     44878         1         0     44881         1         0
     44884         1         0     44887         1         0     44890         1         0
     44893         1         0     44896         1         0     44899         1         0
     44902         1         0     44905         1         0     44908         1         0
     44911         1         0     44914         1         0     44917         1         0
     44920         1         0     44923         1         0     44926         1         0
     44929         1         0     44932         1         0     44935         1         0
     44938         1         0     44941         1         0     44944         1         0
     44947         1         0     44950         1         0     44953         1         0
     44956         1         0     44959         1         0     44962         1         0
     44965         1         0     44968         1         0     44971         1         0
     44974         1         0     44977         1         0     44980         1         0
     44983         1         0     44986         1         0     44989         1         0
     44992         1         0     44995         1         0     44998         1         0
     45001         1         0     45004         1         0     45007         1         0
     45010         1         0     45013         1         0     45016         1         0
     45019         1         0     45022         1         0     45025         1         0
     45028         1         0     45031         1         0     45034         1         0
     45037         1         0     45040         1         0     45043         1         0
     45046         1         0     45049         1         0     45052         1         0
     45055         1         0     45058         1         0     45061         1         0
     45064         1         0     45067         1         0     45070         1         0
     45073         1         0     45076         1         0     45079         1         0
     45082         1         0     45085         1         0     45088         1         0
     45091         1         0     45094         1         0     45097         1         0
     45100         1         0     45103         1         0     45106         1         0
     45109         1         0     45112         1         0     45115         1         0
     45118         1         0     45121         1         0     45124         1         0
     45127         1         0     45130         1         0     45133         1         0
     45136         1         0     45139         1         0     45142         1         0
     45145         1         0     45148         1         0     45151         1         0
     45154         1         0     45157         1         0     45160         1         0
     45163         1         0     45166         1         0     45169         1         0
     45172         1         0     45175         1         0     45178         1         0
     45181         1         0     45184         1         0     45187         1         0
     45190         1         0     45193         1         0     45196         1         0
     45199         1         0     45202         1         0     45205         1         0
     45208         1         0     45211         1         0     45214         1         0
     45217         1         0     45220         1         0     45223         1         0
     45226         1         0     45229         1         0     45232         1         0
     45235         1         0     45238         1         0     45241         1         0
     45244         1         0     45247         1         0     45250         1         0
     45253         1         0     45256         1         0     45259         1         0
     45262         1         0     45265         1         0     45268         1         0
     45271         1         0     45274         1         0     45277         1         0
     45280         1         0     45283         1         0     45286         1         0
     45289         1         0     45292         1         0     45295         1         0
     45298         1         0     45301         1         0     45304         1         0
     45307         1         0     45310         1         0     45313         1         0
     45316         1         0     45319         1         0     45322         1         0
     45325         1         0     45328         1         0     45331         1         0
     45334         1         0     45337         1         0     45340         1         0
     45343         1         0     45346         1         0     45349         1         0
     45352         1         0     45355         1         0     45358         1         0
     45361         1         0     45364         1         0     45367         1         0
     45370         1         0     45373         1         0     45376         1         0
     45379         1         0     45382         1         0     45385         1         0
     45388         1         0     45391         1         0     45394         1         0
     45397         1         0     45400         1         0     45403         1         0
     45406         1         0     45409         1         0     45412         1         0
     45415         1         0     45418         1         0     45421         1         0
     45424         1         0     45427         1         0     45430         1         0
     45433         1         0     45436         1         0     45439         1         0
     45442         1         0     45445         1         0     45448         1         0
     45451         1         0     45454         1         0     45457         1         0
     45460         1         0     45463         1         0     45466         1         0
     45469         1         0     45472         1         0     45475         1         0
     45478         1         0     45481         1         0     45484         1         0
     45487         1         0     45490         1         0     45493         1         0
     45496         1         0     45499         1         0     45502         1         0
     45505         1         0     45508         1         0     45511         1         0
     45514         1         0     45517         1         0     45520         1         0
     45523         1         0     45526         1         0     45529         1         0
     45532         1         0     45535         1         0     45538         1         0
     45541         1         0     45544         1         0     45547         1         0
     45550         1         0     45553         1         0     45556         1         0
     45559         1         0     45562         1         0     45565         1         0
     45568         1         0     45571         1         0     45574         1         0
     45577         1         0     45580         1         0     45583         1         0
     45586         1         0     45589         1         0     45592         1         0
     45595         1         0     45598         1         0     45601         1         0
     45604         1         0     45607         1         0     45610         1         0
     45613         1         0     45616         1         0     45619         1         0
     45622         1         0     45625         1         0     45628         1         0
     45631         1         0     45634         1         0     45637         1         0
     45640         1         0     45643         1         0     45646         1         0
     45649         1         0     45652         1         0     45655         1         0
     45658         1         0     45661         1         0     45664         1         0
     45667         1         0     45670         1         0     45673         1         0
     45676         1         0     45679         1         0     45682         1         0
     45685         1         0     45688         1         0     45691         1         0
     45694         1         0     45697         1         0     45700         1         0
     45703         1         0     45706         1         0     45709         1         0
     45712         1         0     45715         1         0     45718         1         0
     45721         1         0     45724         1         0     45727         1         0
     45730         1         0     45733         1         0     45736         1         0
     45739         1         0     45742         1         0     45745         1         0
     45748         1         0     45751         1         0     45754         1         0
     45757         1         0     45760         1         0     45763         1         0
     45766         1         0     45769         1         0     45772         1         0
     45775         1         0     45778         1         0     45781         1         0
     45784         1         0     45787         1         0     45790         1         0
     45793         1         0     45796         1         0     45799         1         0
     45802         1         0     45805         1         0     45808         1         0
     45811         1         0     45814         1         0     45817         1         0
     45820         1         0     45823         1         0     45826         1         0
     45829         1         0     45832         1         0     45835         1         0
     45838         1         0     45841         1         0     45844         1         0
     45847         1         0     45850         1         0     45853         1         0
     45856         1         0     45859         1         0     45862         1         0
     45865         1         0     45868         1         0     45871         1         0
     45874         1         0     45877         1         0     45880         1         0
     45883         1         0     45886         1         0     45889         1         0
     45892         1         0     45895         1         0     45898         1         0
     45901         1         0     45904         1         0     45907         1         0
     45910         1         0     45913         1         0     45916         1         0
     45919         1         0     45922         1         0     45925         1         0
     45928         1         0     45931         1         0     45934         1         0
     45937         1         0     45940         1         0     45943         1         0
     45946         1         0     45949         1         0     45952         1         0
     45955         1         0     45958         1         0     45961         1         0
     45964         1         0     45967         1         0     45970         1         0
     45973         1         0     45976         1         0     45979         1         0
     45982         1         0     45985         1         0     45988         1         0
     45991         1         0     45994         1         0     45997         1         0
     46000         1         0     46003         1         0     46006         1         0
     46009         1         0     46012         1         0     46015         1         0
     46018         1         0     46021         1         0     46024         1         0
     46027         1         0     46030         1         0     46033         1         0
     46036         1         0     46039         1         0     46042         1         0
     46045         1         0     46048         1         0     46051         1         0
     46054         1         0     46057         1         0     46060         1         0
     46063         1         0     46066         1         0     46069         1         0
     46072         1         0     46075         1         0     46078         1         0
     46081         1         0     46084         1         0     46087         1         0
     46090         1         0     46093         1         0     46096         1         0
     46099         1         0     46102         1         0     46105         1         0
     46108         1         0     46111         1         0     46114         1         0
     46117         1         0     46120         1         0     46123         1         0
     46126         1         0     46129         1         0     46132         1         0
     46135         1         0     46138         1         0     46141         1         0
     46144         1         0     46147         1         0     46150         1         0
     46153         1         0     46156         1         0     46159         1         0
     46162         1         0     46165         1         0     46168         1         0
     46171         1         0     46174         1         0     46177         1         0
     46180         1         0     46183         1         0     46186         1         0
     46189         1         0     46192         1         0     46195         1         0
     46198         1         0     46201         1         0     46204         1         0
     46207         1         0     46210         1         0     46213         1         0
     46216         1         0     46219         1         0     46222         1         0
     46225         1         0     46228         1         0     46231         1         0
     46234         1         0     46237         1         0     46240         1         0
     46243         1         0     46246         1         0     46249         1         0
     46252         1         0     46255         1         0     46258         1         0
     46261         1         0     46264         1         0     46267         1         0
     46270         1         0     46273         1         0     46276         1         0
     46279         1         0     46282         1         0     46285         1         0
     46288         1         0     46291         1         0     46294         1         0
     46297         1         0     46300         1         0     46303         1         0
     46306         1         0     46309         1         0     46312         1         0
     46315         1         0     46318         1         0     46321         1         0
     46324         1         0     46327         1         0     46330         1         0
     46333         1         0     46336         1         0     46339         1         0
     46342         1         0     46345         1         0     46348         1         0
     46351         1         0     46354         1         0     46357         1         0
     46360         1         0     46363         1         0     46366         1         0
     46369         1         0     46372         1         0     46375         1         0
     46378         1         0     46381         1         0     46384         1         0
     46387         1         0     46390         1         0     46393         1         0
     46396         1         0     46399         1         0     46402         1         0
     46405         1         0     46408         1         0     46411         1         0
     46414         1         0     46417         1         0     46420         1         0
     46423         1         0     46426         1         0     46429         1         0
     46432         2         0     46433         2         0     46434         2         0
     46435         2         0     46436         2         0     46437         2         0
     46438         2         0     46439         2         0     46440         2         0
     46441         2         0     46442         2         0     46443         2         0
     46444         2         0     46445         2         0     46446         2         0
     46447         2         0     46448         2         0     46449         2         0
     46450         2         0     46451         2         0     46452         2         0
     46453         2         0     46454         2         0     46455         2         0
     46456         2         0     46457         2         0     46458         2         0
     46459         2         0     46460         2         0     46461         2         0
     46462         2         0     46463         2         0     46464         2         0
     46465         2         0     46466         2         0     46467         2         0
     46468         2         0     46469         2         0     46470         2         0
     46471         2         0     46472         2         0     46473         2         0
     46474         2         0     46475         2         0     46476         2         0
     46477         2         0     46478         2         0     46479         2         0
     46480         2         0     46481         2         0     46482         2         0
     46483         2         0     46484         2         0     46485         2         0
     46486         2         0     46487         2         0     46488         2         0
     46489         2         0     46490         2         0     46491         2         0
     46492         2         0     46493         2         0     46494         2         0
     46495         2         0     46496         2         0     46497         2         0
     46498         2         0     46499         2         0     46500         2         0
     46501         2         0     46502         2         0     46503         2         0

         0         0 !NUMLP NUMLPH

         0 !NCRTERM: cross-terms


      5932 !AUTOGEN
         0         0         0         0         0         0         0         0
         0         0         0         0         0         0         0         0
         0         0         0         0         0         0         0         0
         0         0         0         0         0         0         0         0
         0         0         0         0         0         0         0         0
         0         0         0         0         0         0         0         0
         0         0         0         0         0         0         0         0
         0         0         0         0         0         0         0         0
         0         0         0         0         0         0         0         0
         0         0         0         0         0         0         0         0
         0         0         0         0         0         0         0         0
         0         0         0         0         0         0         0         0
         0         0         0         0         0         0         0         0
         0         0         0         0         0         0         0         0
         0         0         0         0         0         0         0         0
         0         0         0         0         0         0         0         0
         0         0         0         0         0         0         0         0
         0         0         0         0         0         0         0         0
         0         0         0         0         0         0         0         0
         0         0         0         0         0         0         0         0
         0         0         0         0         0         0         0         0
         0         0         0         0         0         0         0         0
         0         0         0         0         0         0         0         0
         0         0         0         0         0         0         0         0
         0         0         0         0         0         0         0         0
         0         0         0         0         0         0         0         0
         0         0         0         0         0         0         0         0
         0         0         0         0         0         0         0         0
         0         0         0         0         0         0         0         0
         0         0         0         0         0         0         0         0
         0         0         0         0         0         0         0         0
         0         0         0         0         0         0         0         0
         0         0         0         0         0         0         0         0
         0         0         0         0         0         0         0         0
         0         0         0         0         0         0         0         0
         0         0         0         0         0         0         0         0
         0         0         0         0         0         0         0         0
         0         0         0         0         0         0         0         0
         0         0         0         0         0         0         0         0
         0         0         0         0         0         0         0         0
         0         0         0         0         0         0         0         0
         0         0         0         0         0         0         0         0
         0         0         0         0         0         0         0         0
         0         0         0         0         0         0         0         0
         0         0         0         0         0         0         0         0
         0         0         0         0         0         0         0         0
         0         0         0         0         0         0         0         0
         0         0         0         0         0         0         0         0
         0         0         0         0         0         0         0         0
         0         0         0         0         0         0         0         0
         0         0         0         0         0         0         0         0
         0         0         0         0         0         0         0         0
         0         0         0         0         0         0         0         0
         0         0         0         0         0         0         0         0
         0         0         0         0         0         0         0         0
         0         0         0         0         0         0         0         0
         0         0         0         0         0         0         0         0
         0         0         0         0         0         0         0         0
         0         0         0         0         0         0         0         0
         0         0         0         0         0         0         0         0
         0         0         0         0         0         0         0         0
         0         0         0         0         0         0         0         0
         0         0         0         0         0         0         0         0
         0         0         0         0         0         0         0         0
         0         0         0         0         0         0         0         0
         0         0         0         0         0         0         0         0
         0         0         0         0         0         0         0         0
         0         0         0         0         0         0         0         0
         0         0         0         0         0         0         0         0
         0         0         0         0         0         0         0         0
         0         0         0         0         0         0         0         0
         0         0         0         0         0         0         0         0
         0         0         0         0         0         0         0         0
         0         0         0         0         0         0         0         0
         0         0         0         0         0         0         0         0
         0         0         0         0         0         0         0         0
         0         0         0         0         0         0         0         0
         0         0         0         0         0         0         0         0
         0         0         0         0         0         0         0         0
         0         0         0         0         0         0         0         0
         0         0         0         0         0         0         0         0
         0         0         0         0         0         0         0         0
         0         0         0         0         0         0         0         0
         0         0         0         0         0         0         0         0
         0         0         0         0         0         0         0         0
         0         0         0         0         0         0         0         0
         0         0         0         0         0         0         0         0
         0         0         0         0         0         0         0         0
         0         0         0         0         0         0         0         0
         0         0         0         0         0         0         0         0
         0         0         0         0         0         0         0         0
         0         0         0         0         0         0         0         0
         0         0         0         0         0         0         0         0
         0         0         0         0         0         0         0         0
         0         0         0         0         0         0         0         0
         0         0         0         0         0         0         0         0
         0         0         0         0         0         0         0         0
         0         0         0         0         0         0         0         0
         0         0         0         0         0         0         0         0
         0         0         0         0         0         0         0         0
         0         0         0         0         0         0         0         0
         0         0         0         0         0         0         0         0
         0         0         0         0         0         0         0         0
         0         0         0         0         0         0         0         0
         0         0         0         0         0         0         0         0
         0         0         0         0         0         0         0         0
         0         0         0         0         0         0         0         0
         0         0         0         0         0         0         0         0
         0         0         0         0         0         0         0         0
         0         0         0         0         0         0         0         0
         0         0         0         0         0         0         0         0
         0         0         0         0         0         0         0         0
         0         0         0         0         0         0         0         0
         0         0         0         0         0         0         0         0
         0         0         0         0         0         0         0         0
         0         0         0         0         0         0         0         0
         0         0         0         0         0         0         0         0
         0         0         0         0         0         0         0         0
         0         0         0         0         0         0         0         0
         0         0         0         0         0         0         0         0
         0         0         0         0         0         0         0         0
         0         0         0         0         0         0         0         0
         0         0         0         0         0         0         0         0
         0         0         0         0         0         0         0         0
         0         0         0         0         0         0         0         0
         0         0         0         0         0         0         0         0
         0         0         0         0         0         0         0         0
         0         0         0         0         0         0         0         0
         0         0         0         0         0         0         0         0
         0         0         0         0         0         0         0         0
         0         0         0         0         0         0         0         0
         0         0         0         0         0         0         0         0
         0         0         0         0         0         0         0         0
         0         0         0         0         0         0         0         0
         0         0         0         0         0         0         0         0
         0         0         0         0         0         0         0         0
         0         0         0         0         0         0         0         0
         0         0         0         0         0         0         0         0
         0         0         0         0         0         0         0         0
         0         0         0         0         0         0         0         0
         0         0         0         0         0         0         0         0
         0         0         0         0         0         0         0         0
         0         0         0         0         0         0         0         0
         0         0         0         0         0         0         0         0
         0         0         0         0         0         0         0         0
         0         0         0         0         0         0         0         0
         0         0         0         0         0         0         0         0
         0         0         0         0         0         0         0         0
         0         0         0         0         0         0         0         0
         0         0         0         0         0         0         0         0
         0         0         0         0         0         0         0         0
         0         0         0         0         0         0         0         0
         0         0         0         0         0         0         0         0
         0         0         0         0         0         0         0         0
         0         0         0         0         0         0         0         0
         0         0         0         0         0         0         0         0
         0         0         0         0         0         0         0         0
         0         0         0         0         0         0         0         0
         0         0         0         0         0         0         0         0
         0         0         0         0         0         0         0         0
         0         0         0         0         0         0         0         0
         0         0         0         0         0         0         0         0
         0         0         0         0         0         0         0         0
         0         0         0         0         0         0         0         0
         0         0         0         0         0         0         0         0
         0         0         0         0         0         0         0         0
         0         0         0         0         0         0         0         0
         0         0         0         0         0         0         0         0
         0         0         0         0         0         0         0         0
         0         0         0         0         0         0         0         0
         0         0         0         0         0         0         0         0
         0         0         0         0         0         0         0         0
         0         0         0         0         0         0         0         0
         0         0         0         0         0         0         0         0
         0         0         0         0         0         0         0         0
         0         0         0         0         0         0         0         0
         0         0         0         0         0         0         0         0
         0         0         0         0         0         0         0         0
         0         0         0         0         0         0         0         0
         0         0         0         0         0         0         0         0
         0         0         0         0         0         0         0         0
         0         0         0         0         0         0         0         0
         0         0         0         0         0         0         0         0
         0         0         0         0         0         0         0         0
         0         0         0         0         0         0         0         0
         0         0         0         0         0         0         0         0
         0         0         0         0         0         0         0         0
         0         0         0         0         0         0         0         0
         0         0         0         0         0         0         0         0
         0         0         0         0         0         0         0         0
         0         0         0         0         0         0         0         0
         0         0         0         0         0         0         0         0
         0         0         0         0         0         0         0         0
         0         0         0         0         0         0         0         0
         0         0         0         0         0         0         0         0
         0         0         0         0         0         0         0         0
         0         0         0         0         0         0         0         0
         0         0         0         0         0         0         0         0
         0         0         0         0         0         0         0         0
         0         0         0         0         0         0         0         0
         0         0         0         0         0         0         0         0
         0         0         0         0         0         0         0         0
         0         0         0         0         0         0         0         0
         0         0         0         0         0         0         0         0
         0         0         0         0         0         0         0         0
         0         0         0         0         0         0         0         0
         0         0         0         0         0         0         0         0
         0         0         0         0         0         0         0         0
         0         0         0         0         0         0         0         0
         0         0         0         0         0         0         0         0
         0         0         0         0         0         0         0         0
         0         0         0         0         0         0         0         0
         0         0         0         0         0         0         0         0
         0         0         0         0         0         0         0         0
         0         0         0         0         0         0         0         0
         0         0         0         0         0         0         0         0
         0         0         0         0         0         0         0         0
         0         0         0         0         0         0         0         0
         0         0         0         0         0         0         0         0
         0         0         0         0         0         0         0         0
         0         0         0         0         0         0         0         0
         0         0         0         0         0         0         0         0
         0         0         0         0         0         0         0         0
         0         0         0         0         0         0         0         0
         0         0         0         0         0         0         0         0
         0         0         0         0         0         0         0         0
         0         0         0         0         0         0         0         0
         0         0         0         0         0         0         0         0
         0         0         0         0         0         0         0         0
         0         0         0         0         0         0         0         0
         0         0         0         0         0         0         0         0
         0         0         0         0         0         0         0         0
         0         0         0         0         0         0         0         0
         0         0         0         0         0         0         0         0
         0         0         0         0         0         0         0         0
         0         0         0         0         0         0         0         0
         0         0         0         0         0         0         0         0
         0         0         0         0         0         0         0         0
         0         0         0         0         0         0         0         0
         0         0         0         0         0         0         0         0
         0         0         0         0         0         0         0         0
         0         0         0         0         0         0         0         0
         0         0         0         0         0         0         0         0
         0         0         0         0         0         0         0         0
         0         0         0         0         0         0         0         0
         0         0         0         0         0         0         0         0
         0         0         0         0         0         0         0         0
         0         0         0         0         0         0         0         0
         0         0         0         0         0         0         0         0
         0         0         0         0         0         0         0         0
         0         0         0         0         0         0         0         0
         0         0         0         0         0         0         0         0
         0         0         0         0         0         0         0         0
         0         0         0         0         0         0         0         0
         0         0         0         0         0         0         0         0
         0         0         0         0         0         0         0         0
         0         0         0         0         0         0         0         0
         0         0         0         0         0         0         0         0
         0         0         0         0         0         0         0         0
         0         0         0         0         0         0         0         0
         0         0         0         0         0         0         0         0
         0         0         0         0         0         0         0         0
         0         0         0         0         0         0         0         0
         0         0         0         0         0         0         0         0
         0         0         0         0         0         0         0         0
         0         0         0         0         0         0         0         0
         0         0         0         0         0         0         0         0
         0         0         0         0         0         0         0         0
         0         0         0         0         0         0         0         0
         0         0         0         0         0         0         0         0
         0         0         0         0         0         0         0         0
         0         0         0         0         0         0         0         0
         0         0         0         0         0         0         0         0
         0         0         0         0         0         0         0         0
         0         0         0         0         0         0         0         0
         0         0         0         0         0         0         0         0
         0         0         0         0         0         0         0         0
         0         0         0         0         0         0         0         0
         0         0         0         0         0         0         0         0
         0         0         0         0         0         0         0         0
         0         0         0         0         0         0         0         0
         0         0         0         0         0         0         0         0
         0         0         0         0         0         0         0         0
         0         0         0         0         0         0         0         0
         0         0         0         0         0         0         0         0
         0         0         0         0         0         0         0         0
         0         0         0         0         0         0         0         0
         0         0         0         0         0         0         0         0
         0         0         0         0         0         0         0         0
         0         0         0         0         0         0         0         0
         0         0         0         0         0         0         0         0
         0         0         0         0         0         0         0         0
         0         0         0         0         0         0         0         0
         0         0         0         0         0         0         0         0
         0         0         0         0         0         0         0         0
         0         0         0         0         0         0         0         0
         0         0         0         0         0         0         0         0
         0         0         0         0         0         0         0         0
         0         0         0         0         0         0         0         0
         0         0         0         0         0         0         0         0
         0         0         0         0         0         0         0         0
         0         0         0         0         0         0         0         0
         0         0         0         0         0         0         0         0
         0         0         0         0         0         0         0         0
         0         0         0         0         0         0         0         0
         0         0         0         0         0         0         0         0
         0         0         0         0         0         0         0         0
         0         0         0         0         0         0         0         0
         0         0         0         0         0         0         0         0
         0         0         0         0         0         0         0         0
         0         0         0         0         0         0         0         0
         0         0         0         0         0         0         0         0
         0         0         0         0         0         0         0         0
         0         0         0         0         0         0         0         0
         0         0         0         0         0         0         0         0
         0         0         0         0         0         0         0         0
         0         0         0         0         0         0         0         0
         0         0         0         0         0         0         0         0
         0         0         0         0         0         0         0         0
         0         0         0         0         0         0         0         0
         0         0         0         0         0         0         0         0
         0         0         0         0         0         0         0         0
         0         0         0         0         0         0         0         0
         0         0         0         0         0         0         0         0
         0         0         0         0         0         0         0         0
         0         0         0         0         0         0         0         0
         0         0         0         0         0         0         0         0
         0         0         0         0         0         0         0         0
         0         0         0         0         0         0         0         0
         0         0         0         0         0         0         0         0
         0         0         0         0         0         0         0         0
         0         0         0         0         0         0         0         0
         0         0         0         0         0         0         0         0
         0         0         0         0         0         0         0         0
         0         0         0         0         0         0         0         0
         0         0         0         0         0         0         0         0
         0         0         0         0         0         0         0         0
         0         0         0         0         0         0         0         0
         0         0         0         0         0         0         0         0
         0         0         0         0         0         0         0         0
         0         0         0         0         0         0         0         0
         0         0         0         0         0         0         0         0
         0         0         0         0         0         0         0         0
         0         0         0         0         0         0         0         0
         0         0         0         0         0         0         0         0
         0         0         0         0         0         0         0         0
         0         0         0         0         0         0         0         0
         0         0         0         0         0         0         0         0
         0         0         0         0         0         0         0         0
         0         0         0         0         0         0         0         0
         0         0         0         0         0         0         0         0
         0         0         0         0         0         0         0         0
         0         0         0         0         0         0         0         0
         0         0         0         0         0         0         0         0
         0         0         0         0         0         0         0         0
         0         0         0         0         0         0         0         0
         0         0         0         0         0         0         0         0
         0         0         0         0         0         0         0         0
         0         0         0         0         0         0         0         0
         0         0         0         0         0         0         0         0
         0         0         0         0         0         0         0         0
         0         0         0         0         0         0         0         0
         0         0         0         0         0         0         0         0
         0         0         0         0         0         0         0         0
         0         0         0         0         0         0         0         0
         0         0         0         0         0         0         0         0
         0         0         0         0         0         0         0         0
         0         0         0         0         0         0         0         0
         0         0         0         0         0         0         0         0
         0         0         0         0         0         0         0         0
         0         0         0         0         0         0         0         0
         0         0         0         0         0         0         0         0
         0         0         0         0         0         0         0         0
         0         0         0         0         0         0         0         0
         0         0         0         0         0         0         0         0
         0         0         0         0         0         0         0         0
         0         0         0         0         0         0         0         0
         0         0         0         0         0         0         0         0
         0         0         0         0         0         0         0         0
         0         0         0         0         0         0         0         0
         0         0         0         0         0         0         0         0
         0         0         0         0         0         0         0         0
         0         0         0         0         0         0         0         0
         0         0         0         0         0         0         0         0
         0         0         0         0         0         0         0         0
         0         0         0         0         0         0         0         0
         0         0         0         0         0         0         0         0
         0         0         0         0         0         0         0         0
         0         0         0         0         0         0         0         0
         0         0         0         0         0         0         0         0
         0         0         0         0         0         0         0         0
         0         0         0         0         0         0         0         0
         0         0         0         0         0         0         0         0
         0         0         0         0         0         0         0         0
         0         0         0         0         0         0         0         0
         0         0         0         0         0         0         0         0
         0         0         0         0         0         0         0         0
         0         0         0         0         0         0         0         0
         0         0         0         0         0         0         0         0
         0         0         0         0         0         0         0         0
         0         0         0         0         0         0         0         0
         0         0         0         0         0         0         0         0
         0         0         0         0         0         0         0         0
         0         0         0         0         0         0         0         0
         0         0         0         0         0         0         0         0
         0         0         0         0         0         0         0         0
         0         0         0         0         0         0         0         0
         0         0         0         0         0         0         0         0
         0         0         0         0         0         0         0         0
         0         0         0         0         0         0         0         0
         0         0         0         0         0         0         0         0
         0         0         0         0         0         0         0         0
         0         0         0         0         0         0         0         0
         0         0         0         0         0         0         0         0
         0         0         0         0         0         0         0         0
         0         0         0         0         0         0         0         0
         0         0         0         0         0         0         0         0
         0         0         0         0         0         0         0         0
         0         0         0         0         0         0         0         0
         0         0         0         0         0         0         0         0
         0         0         0         0         0         0         0         0
         0         0         0         0         0         0         0         0
         0         0         0         0         0         0         0         0
         0         0         0         0         0         0         0         0
         0         0         0         0         0         0         0         0
         0         0         0         0         0         0         0         0
         0         0         0         0         0         0         0         0
         0         0         0         0         0         0         0         0
         0         0         0         0         0         0         0         0
         0         0         0         0         0         0         0         0
         0         0         0         0         0         0         0         0
         0         0         0         0         0         0         0         0
         0         0         0         0         0         0         0         0
         0         0         0         0         0         0         0         0
         0         0         0         0         0         0         0         0
         0         0         0         0         0         0         0         0
         0         0         0         0         0         0         0         0
         0         0         0         0         0         0         0         0
         0         0         0         0         0         0         0         0
         0         0         0         0         0         0         0         0
         0         0         0         0         0         0         0         0
         0         0         0         0         0         0         0         0
         0         0         0         0         0         0         0         0
         0         0         0         0         0         0         0         0
         0         0         0         0         0         0         0         0
         0         0         0         0         0         0         0         0
         0         0         0         0         0         0         0         0
         0         0         0         0         0         0         0         0
         0         0         0         0         0         0         0         0
         0         0         0         0         0         0         0         0
         0         0         0         0         0         0         0         0
         0         0         0         0         0         0         0         0
         0         0         0         0         0         0         0         0
         0         0         0         0         0         0         0         0
         0         0         0         0         0         0         0         0
         0         0         0         0         0         0         0         0
         0         0         0         0         0         0         0         0
         0         0         0         0         0         0         0         0
         0         0         0         0         0         0         0         0
         0         0         0         0         0         0         0         0
         0         0         0         0         0         0         0         0
         0         0         0         0         0         0         0         0
         0         0         0         0         0         0         0         0
         0         0         0         0         0         0         0         0
         0         0         0         0         0         0         0         0
         0         0         0         0         0         0         0         0
         0         0         0         0         0         0         0         0
         0         0         0         0         0         0         0         0
         0         0         0         0         0         0         0         0
         0         0         0         0         0         0         0         0
         0         0         0         0         0         0         0         0
         0         0         0         0         0         0         0         0
         0         0         0         0         0         0         0         0
         0         0         0         0         0         0         0         0
         0         0         0         0         0         0         0         0
         0         0         0         0         0         0         0         0
         0         0         0         0         0         0         0         0
         0         0         0         0         0         0         0         0
         0         0         0         0         0         0         0         0
         0         0         0         0         0         0         0         0
         0         0         0         0         0         0         0         0
         0         0         0         0         0         0         0         0
         0         0         0         0         0         0         0         0
         0         0         0         0         0         0         0         0
         0         0         0         0         0         0         0         0
         0         0         0         0         0         0         0         0
         0         0         0         0         0         0         0         0
         0         0         0         0         0         0         0         0
         0         0         0         0         0         0         0         0
         0         0         0         0         0         0         0         0
         0         0         0         0         0         0         0         0
         0         0         0         0         0         0         0         0
         0         0         0         0         0         0         0         0
         0         0         0         0         0         0         0         0
         0         0         0         0         0         0         0         0
         0         0         0         0         0         0         0         0
         0         0         0         0         0         0         0         0
         0         0         0         0         0         0         0         0
         0         0         0         0         0         0         0         0
         0         0         0         0         0         0         0         0
         0         0         0         0         0         0         0         0
         0         0         0         0         0         0         0         0
         0         0         0         0         0         0         0         0
         0         0         0         0         0         0         0         0
         0         0         0         0         0         0         0         0
         0         0         0         0         0         0         0         0
         0         0         0         0         0         0         0         0
         0         0         0         0         0         0         0         0
         0         0         0         0         0         0         0         0
         0         0         0         0         0         0         0         0
         0         0         0         0         0         0         0         0
         0         0         0         0         0         0         0         0
         0         0         0         0         0         0         0         0
         0         0         0         0         0         0         0         0
         0         0         0         0         0         0         0         0
         0         0         0         0         0         0         0         0
         0         0         0         0         0         0         0         0
         0         0         0         0         0         0         0         0
         0         0         0         0         0         0         0         0
         0         0         0         0         0         0         0         0
         0         0         0         0         0         0         0         0
         0         0         0         0         0         0         0         0
         0         0         0         0         0         0         0         0
         0         0         0         0         0         0         0         0
         0         0         0         0         0         0         0         0
         0         0         0         0         0         0         0         0
         0         0         0         0         0         0         0         0
         0         0         0         0         0         0         0         0
         0         0         0         0         0         0         0         0
         0         0         0         0         0         0         0         0
         0         0         0         0         0         0         0         0
         0         0         0         0         0         0         0         0
         0         0         0         0         0         0         0         0
         0         0         0         0         0         0         0         0
         0         0         0         0         0         0         0         0
         0         0         0         0         0         0         0         0
         0         0         0         0         0         0         0         0
         0         0         0         0         0         0         0         0
         0         0         0         0         0         0         0         0
         0         0         0         0         0         0         0         0
         0         0         0         0         0         0         0         0
         0         0         0         0         0         0         0         0
         0         0         0         0         0         0         0         0
         0         0         0         0         0         0         0         0
         0         0         0         0         0         0         0         0
         0         0         0         0         0         0         0         0
         0         0         0         0         0         0         0         0
         0         0         0         0         0         0         0         0
         0         0         0         0         0         0         0         0
         0         0         0         0         0         0         0         0
         0         0         0         0         0         0         0         0
         0         0         0         0         0         0         0         0
         0         0         0         0         0         0         0         0
         0         0         0         0         0         0         0         0
         0         0         0         0         0         0         0         0
         0         0         0         0         0         0         0         0
         0         0         0         0         0         0         0         0
         0         0         0         0         0         0         0         0
         0         0         0         0         0         0         0         0
         0         0         0         0         0         0         0         0
         0         0         0         0         0         0         0         0
         0         0         0         0         0         0         0         0
         0         0         0         0         0         0         0         0
         0         0         0         0         0         0         0         0
         0         0         0         0         0         0         0         0
         0         0         0         0         0         0         0         0
         0         0         0         0         0         0         0         0
         0         0         0         0         0         0         0         0
         0         0         0         0         0         0         0         0
         0         0         0         0         0         0         0         0
         0         0         0         0         0         0         0         0
         0         0         0         0         0         0         0         0
         0         0         0         0         0         0         0         0
         0         0         0         0         0         0         0         0
         0         0         0         0         0         0         0         0
         0         0         0         0         0         0         0         0
         0         0         0         0         0         0         0         0
         0         0         0         0         0         0         0         0
         0         0         0         0         0         0         0         0
         0         0         0         0         0         0         0         0
         0         0         0         0         0         0         0         0
         0         0         0         0         0         0         0         0
         0         0         0         0         0         0         0         0
         0         0         0         0         0         0         0         0
         0         0         0         0         0         0         0         0
         0         0         0         0         0         0         0         0
         0         0         0         0         0         0         0         0
         0         0         0         0         0         0         0         0
         0         0         0         0         0         0         0         0
         0         0         0         0         0         0         0         0
         0         0         0         0         0         0         0         0
         0         0         0         0         0         0         0         0
         0         0         0         0         0         0         0         0
         0         0         0         0         0         0         0         0
         0         0         0         0         0         0         0         0
         0         0         0         0         0         0         0         0
         0         0         0         0         0         0         0         0
         0         0         0         0         0         0         0         0
         0         0         0         0         0         0         0         0
         0         0         0         0         0         0         0         0
         0         0         0         0         0         0         0         0
         0         0         0         0         0         0         0         0
         0         0         0         0         0         0         0         0
         0         0         0         0         0         0         0         0
         0         0         0         0         0         0         0         0
         0         0         0         0         0         0         0         0
         0         0         0         0         0         0         0         0
         0         0         0         0         0         0         0         0
         0         0         0         0         0         0         0         0
         0         0         0         0         0         0         0         0
         0         0         0         0         0         0         0         0
         0         0         0         0         0         0         0         0
         0         0         0         0         0         0         0         0
         0         0         0         0         0         0         0         0
         0         0         0         0         0         0         0         0
         0         0         0         0         0         0         0         0
         0         0         0         0         0         0         0         0
         0         0         0         0         0         0         0         0
         0         0         0         0         0         0         0         0
         0         0         0         0         0         0         0         0
         0         0         0         0         0         0         0         0
         0         0         0         0         0         0         0         0
         0         0         0         0         0         0         0         0
         0         0         0         0         0         0         0         0
         0         0         0         0         0         0         0         0
         0         0         0         0         0         0         0         0
         0         0         0         0         0         0         0         0
         0         0         0         0         0         0         0         0
         0         0         0         0         0         0         0         0
         0         0         0         0         0         0         0         0
         0         0         0         0         0         0         0         0
         0         0         0         0         0         0         0         0
         0         0         0         0         0         0         0         0
         0         0         0         0         0         0         0         0
         0         0         0         0         0         0         0         0
         0         0         0         0         0         0         0         0
         0         0         0         0         0         0         0         0
         0         0         0         0         0         0         0         0
         0         0         0         0         0         0         0         0
         0         0         0         0         0         0         0         0
         0         0         0         0         0         0         0         0
         0         0         0         0         0         0         0         0
         0         0         0         0         0         0         0         0
         0         0         0         0         0         0         0         0
         0         0         0         0         0         0         0         0
         0         0         0         0         0         0         0         0
         0         0         0         0         0         0         0         0
         0         0         0         0         0         0         0         0
         0         0         0         0         0         0         0         0
         0         0         0         0         0         0         0         0
         0         0         0         0         0         0         0         0
         0         0         0         0         0         0         0         0
         0         0         0         0         0         0         0         0
         0         0         0         0         0         0         0         0
         0         0         0         0         0         0         0         0
         0         0         0         0         0         0         0         0
         0         0         0         0         0         0         0         0
         0         0         0         0         0         0         0         0
         0         0         0         0         0         0         0         0
         0         0         0         0         0         0         0         0
         0         0         0         0         0         0         0         0
         0         0         0         0         0         0         0         0
         0         0         0         0         0         0         0         0
         0         0         0         0         0         0         0         0
         0         0         0         0         0         0         0         0
         0         0         0         0         0         0         0         0
         0         0         0         0         0         0         0         0
         0         0         0         0         0         0         0         0
         0         0         0         0         0         0         0         0
         0         0         0         0         0         0         0         0
         0         0         0         0         0         0         0         0
         0         0         0         0         0         0         0         0
         0         0         0         0         0         0         0         0
         0         0         0         0         0         0         0         0
         0         0         0         0         0         0         0         0
         0         0         0         0         0         0         0         0
         0         0         0         0         0         0         0         0
         0         0         0         0         0         0         0         0
         0         0         0         0         0         0         0         0
         0         0         0         0         0         0         0         0
         0         0         0         0         0         0         0         0
         0         0         0         0         0         0         0         0
         0         0         0         0         0         0         0         0
         0         0         0         0         0         0         0         0
         0         0         0         0         0         0         0         0
         0         0         0         0         0         0         0         0
         0         0         0         0         0         0         0         0
         0         0         0         0         0         0         0         0
         0         0         0         0         0         0         0         0
         0         0         0         0         0         0         0         0
         0         0         0         0         0         0         0         0
         0         0         0         0         0         0         0         0
         0         0         0         0         0         0         0         0
         0         0         0         0         0         0         0         0
         0         0         0         0         0         0         0         0
         0         0         0         0         0         0         0         0
         0         0         0         0         0         0         0         0
         0         0         0         0         0         0         0         0
         0         0         0         0         0         0         0         0
         0         0         0         0         0         0         0         0
         0         0         0         0         0         0         0         0
         0         0         0         0         0         0         0         0
         0         0         0         0         0         0         0         0
         0         0         0         0         0         0         0         0
         0         0         0         0         0         0         0         0
         0         0         0         0         0         0         0         0
         0         0         0         0         0         0         0         0
         0         0         0         0         0         0         0         0
         0         0         0         0         0         0         0         0
         0         0         0         0         0         0         0         0
         0         0         0         0         0         0         0         0
         0         0         0         0         0         0         0         0
         0         0         0         0         0         0         0         0
         0         0         0         0         0         0         0         0
         0         0         0         0         0         0         0         0
         0         0         0         0         0         0         0         0
         0         0         0         0         0         0         0         0
         0         0         0         0         0         0         0         0
         0         0         0         0         0         0         0         0
         0         0         0         0         0         0         0         0
         0         0         0         0         0         0         0         0
         0         0         0         0         0         0         0         0
         0         0         0         0         0         0         0         0
         0         0         0         0         0         0         0         0
         0         0         0         0         0         0         0         0
         0         0         0         0         0         0         0         0
         0         0         0         0         0         0         0         0
         0         0         0         0         0         0         0         0
         0         0         0         0         0         0         0         0
         0         0         0         0         0         0         0         0
         0         0         0         0         0         0         0         0
         0         0         0         0         0         0         0         0
         0         0         0         0         0         0         0         0
         0         0         0         0         0         0         0         0
         0         0         0         0         0         0         0         0
         0         0         0         0         0         0         0         0
         0         0         0         0         0         0         0         0
         0         0         0         0         0         0         0         0
         0         0         0         0         0         0         0         0
         0         0         0         0         0         0         0         0
         0         0         0         0         0         0         0         0
         0         0         0         0         0         0         0         0
         0         0         0         0         0         0         0         0
         0         0         0         0         0         0         0         0
         0         0         0         0         0         0         0         0
         0         0         0         0         0         0         0         0
         0         0         0         0         0         0         0         0
         0         0         0         0         0         0         0         0
         0         0         0         0         0         0         0         0
         0         0         0         0         0         0         0         0
         0         0         0         0         0         0         0         0
         0         0         0         0         0         0         0         0
         0         0         0         0         0         0         0         0
         0         0         0         0         0         0         0         0
         0         0         0         0         0         0         0         0
         0         0         0         0         0         0         0         0
         0         0         0         0         0         0         0         0
         0         0         0         0         0         0         0         0
         0         0         0         0         0         0         0         0
         0         0         0         0         0         0         0         0
         0         0         0         0         0         0         0         0
         0         0         0         0         0         0         0         0
         0         0         0         0         0         0         0         0
         0         0         0         0         0         0         0         0
         0         0         0         0         0         0         0         0
         0         0         0         0         0         0         0         0
         0         0         0         0         0         0         0         0
         0         0         0         0         0         0         0         0
         0         0         0         0         0         0         0         0
         0         0         0         0         0         0         0         0
         0         0         0         0         0         0         0         0
         0         0         0         0         0         0         0         0
         0         0         0         0         0         0         0         0
         0         0         0         0         0         0         0         0
         0         0         0         0         0         0         0         0
         0         0         0         0         0         0         0         0
         0         0         0         0         0         0         0         0
         0         0         0         0         0         0         0         0
         0         0         0         0         0         0         0         0
         0         0         0         0         0         0         0         0
         0         0         0         0         0         0         0         0
         0         0         0         0         0         0         0         0
         0         0         0         0         0         0         0         0
         0         0         0         0         0         0         0         0
         0         0         0         0         0         0         0         0
         0         0         0         0         0         0         0         0
         0         0         0         0         0         0         0         0
         0         0         0         0         0         0         0         0
         0         0         0         0         0         0         0         0
         0         0         0         0         0         0         0         0
         0         0         0         0         0         0         0         0
         0         0         0         0         0         0         0         0
         0         0         0         0         0         0         0         0
         0         0         0         0         0         0         0         0
         0         0         0         0         0         0         0         0
         0         0         0         0         0         0         0         0
         0         0         0         0         0         0         0         0
         0         0         0         0         0         0         0         0
         0         0         0         0         0         0         0         0
         0         0         0         0         0         0         0         0
         0         0         0         0         0         0         0         0
         0         0         0         0         0         0         0         0
         0         0         0         0         0         0         0         0
         0         0         0         0         0         0         0         0
         0         0         0         0         0         0         0         0
         0         0         0         0         0         0         0         0
         0         0         0         0         0         0         0         0
         0         0         0         0         0         0         0         0
         0         0         0         0         0         0         0         0
         0         0         0         0         0         0         0         0
         0         0         0         0         0         0         0         0
         0         0         0         0         0         0         0         0
         0         0         0         0         0         0         0         0
         0         0         0         0         0         0         0         0
         0         0         0         0         0         0         0         0
         0         0         0         0         0         0         0         0
         0         0         0         0         0         0         0         0
         0         0         0         0         0         0         0         0
         0         0         0         0         0         0         0         0
         0         0         0         0         0         0         0         0
         0         0         0         0         0         0         0         0
         0         0         0         0         0         0         0         0
         0         0         0         0         0         0         0         0
         0         0         0         0         0         0         0         0
         0         0         0         0         0         0         0         0
         0         0         0         0         0         0         0         0
         0         0         0         0         0         0         0         0
         0         0         0         0         0         0         0         0
         0         0         0         0         0         0         0         0
         0         0         0         0         0         0         0         0
         0         0         0         0         0         0         0         0
         0         0         0         0         0         0         0         0
         0         0         0         0         0         0         0         0
         0         0         0         0         0         0         0         0
         0         0         0         0         0         0         0         0
         0         0         0         0         0         0         0         0
         0         0         0         0         0         0         0         0
         0         0         0         0         0         0         0         0
         0         0         0         0         0         0         0         0
         0         0         0         0         0         0         0         0
         0         0         0         0         0         0         0         0
         0         0         0         0         0         0         0         0
         0         0         0         0         0         0         0         0
         0         0         0         0         0         0         0         0
         0         0         0         0         0         0         0         0
         0         0         0         0         0         0         0         0
         0         0         0         0         0         0         0         0
         0         0         0         0         0         0         0         0
         0         0         0         0         0         0         0         0
         0         0         0         0         0         0         0         0
         0         0         0         0         0         0         0         0
         0         0         0         0         0         0         0         0
         0         0         0         0         0         0         0         0
         0         0         0         0         0         0         0         0
         0         0         0         0         0         0         0         0
         0         0         0         0         0         0         0         0
         0         0         0         0         0         0         0         0
         0         0         0         0         0         0         0         0
         0         0         0         0         0         0         0         0
         0         0         0         0         0         0         0         0
         0         0         0         0         0         0         0         0
         0         0         0         0         0         0         0         0
         0         0         0         0         0         0         0         0
         0         0         0         0         0         0         0         0
         0         0         0         0         0         0         0         0
         0         0         0         0         0         0         0         0
         0         0         0         0         0         0         0         0
         0         0         0         0         0         0         0         0
         0         0         0         0         0         0         0         0
         0         0         0         0         0         0         0         0
         0         0         0         0         0         0         0         0
         0         0         0         0         0         0         0         0
         0         0         0         0         0         0         0         0
         0         0         0         0         0         0         0         0
         0         0         0         0         0         0         0         0
         0         0         0         0         0         0         0         0
         0         0         0         0         0         0         0         0
         0         0         0         0         0         0         0         0
         0         0         0         0         0         0         0         0
         0         0         0         0         0         0         0         0
         0         0         0         0         0         0         0         0
         0         0         0         0         0         0         0         0
         0         0         0         0         0         0         0         0
         0         0         0         0         0         0         0         0
         0         0         0         0         0         0         0         0
         0         0         0         0         0         0         0         0
         0         0         0         0         0         0         0         0
         0         0         0         0         0         0         0         0
         0         0         0         0         0         0         0         0
         0         0         0         0         0         0         0         0
         0         0         0         0         0         0         0         0
         0         0         0         0         0         0         0         0
         0         0         0         0         0         0         0         0
         0         0         0         0         0         0         0         0
         0         0         0         0         0         0         0         0
         0         0         0         0         0         0         0         0
         0         0         0         0         0         0         0         0
         0         0         0         0         0         0         0         0
         0         0         0         0         0         0         0         0
         0         0         0         0         0         0         0         0
         0         0         0         0         0         0         0         0
         0         0         0         0         0         0         0         0
         0         0         0         0         0         0         0         0
         0         0         0         0         0         0         0         0
         0         0         0         0         0         0         0         0
         0         0         0         0         0         0         0         0
         0         0         0         0         0         0         0         0
         0         0         0         0         0         0         0         0
         0         0         0         0         0         0         0         0
         0         0         0         0         0         0         0         0
         0         0         0         0         0         0         0         0
         0         0         0         0         0         0         0         0
         0         0         0         0         0         0         0         0
         0         0         0         0         0         0         0         0
         0         0         0         0         0         0         0         0
         0         0         0         0         0         0         0         0
         0         0         0         0         0         0         0         0
         0         0         0         0         0         0         0         0
         0         0         0         0         0         0         0         0
         0         0         0         0         0         0         0         0
         0         0         0         0         0         0         0         0
         0         0         0         0         0         0         0         0
         0         0         0         0         0         0         0         0
         0         0         0         0         0         0         0         0
         0         0         0         0         0         0         0         0
         0         0         0         0         0         0         0         0
         0         0         0         0         0         0         0         0
         0         0         0         0         0         0         0         0
         0         0         0         0         0         0         0         0
         0         0         0         0         0         0         0         0
         0         0         0         0         0         0         0         0
         0         0         0         0         0         0         0         0
         0         0         0         0         0         0         0         0
         0         0         0         0         0         0         0         0
         0         0         0         0         0         0         0         0
         0         0         0         0         0         0         0         0
         0         0         0         0         0         0         0         0
         0         0         0         0         0         0         0         0
         0         0         0         0         0         0         0         0
         0         0         0         0         0         0         0         0
         0         0         0         0         0         0         0         0
         0         0         0         0         0         0         0         0
         0         0         0         0         0         0         0         0
         0         0         0         0         0         0         0         0
         0         0         0         0         0         0         0         0
         0         0         0         0         0         0         0         0
         0         0         0         0         0         0         0         0
         0         0         0         0         0         0         0         0
         0         0         0         0         0         0         0         0
         0         0         0         0         0         0         0         0
         0         0         0         0         0         0         0         0
         0         0         0         0         0         0         0         0
         0         0         0         0         0         0         0         0
         0         0         0         0         0         0         0         0
         0         0         0         0         0         0         0         0
         0         0         0         0         0         0         0         0
         0         0         0         0         0         0         0         0
         0         0         0         0         0         0         0         0
         0         0         0         0         0         0         0         0
         0         0         0         0         0         0         0         0
         0         0         0         0         0         0         0         0
         0         0         0         0         0         0         0         0
         0         0         0         0         0         0         0         0
         0         0         0         0         0         0         0         0
         0         0         0         0         0         0         0         0
         0         0         0         0         0         0         0         0
         0         0         0         0         0         0         0         0
         0         0         0         0         0         0         0         0
         0         0         0         0         0         0         0         0
         0         0         0         0         0         0         0         0
         0         0         0         0         0         0         0         0
         0         0         0         0         0         0         0         0
         0         0         0         0         0         0         0         0
         0         0         0         0         0         0         0         0
         0         0         0         0         0         0         0         0
         0         0         0         0         0         0         0         0
         0         0         0         0         0         0         0         0
         0         0         0         0         0         0         0         0
         0         0         0         0         0         0         0         0
         0         0         0         0         0         0         0         0
         0         0         0         0         0         0         0         0
         0         0         0         0         0         0         0         0
         0         0         0         0         0         0         0         0
         0         0         0         0         0         0         0         0
         0         0         0         0         0         0         0         0
         0         0         0         0         0         0         0         0
         0         0         0         0         0         0         0         0
         0         0         0         0         0         0         0         0
         0         0         0         0         0         0         0         0
         0         0         0         0         0         0         0         0
         0         0         0         0         0         0         0         0
         0         0         0         0         0         0         0         0
         0         0         0         0         0         0         0         0
         0         0         0         0         0         0         0         0
         0         0         0         0         0         0         0         0
         0         0         0         0         0         0         0         0
         0         0         0         0         0         0         0         0
         0         0         0         0         0         0         0         0
         0         0         0         0         0         0         0         0
         0         0         0         0         0         0         0         0
         0         0         0         0         0         0         0         0
         0         0         0         0         0         0         0         0
         0         0         0         0         0         0         0         0
         0         0         0         0         0         0         0         0
         0         0         0         0         0         0         0         0
         0         0         0         0         0         0         0         0
         0         0         0         0         0         0         0         0
         0         0         0         0         0         0         0         0
         0         0         0         0         0         0         0         0
         0         0         0         0         0         0         0         0
         0         0         0         0         0         0         0         0
         0         0         0         0         0         0         0         0
         0         0         0         0         0         0         0         0
         0         0         0         0         0         0         0         0
         0         0         0         0         0         0         0         0
         0         0         0         0         0         0         0         0
         0         0         0         0         0         0         0         0
         0         0         0         0         0         0         0         0
         0         0         0         0         0         0         0         0
         0         0         0         0         0         0         0         0
         0         0         0         0         0         0         0         0
         0         0         0         0         0         0         0         0
         0         0         0         0         0         0         0         0
         0         0         0         0         0         0         0         0
         0         0         0         0         0         0         0         0
         0         0         0         0         0         0         0         0
         0         0         0         0         0         0         0         0
         0         0         0         0         0         0         0         0
         0         0         0         0         0         0         0         0
         0         0         0         0         0         0         0         0
         0         0         0         0         0         0         0         0
         0         0         0         0         0         0         0         0
         0         0         0         0         0         0         0         0
         0         0         0         0         0         0         0         0
         0         0         0         0         0         0         0         0
         0         0         0         0         0         0         0         0
         0         0         0         0         0         0         0         0
         0         0         0         0         0         0         0         0
         0         0         0         0         0         0         0         0
         0         0         0         0         0         0         0         0
         0         0         0         0         0         0         0         0
         0         0         0         0         0         0         0         0
         0         0         0         0         0         0         0         0
         0         0         0         0         0         0         0         0
         0         0         0         0         0         0         0         0
         0         0         0         0         0         0         0         0
         0         0         0         0         0         0         0         0
         0         0         0         0         0         0         0         0
         0         0         0         0         0         0         0         0
         0         0         0         0         0         0         0         0
         0         0         0         0         0         0         0         0
         0         0         0         0         0         0         0         0
         0         0         0         0         0         0         0         0
         0         0         0         0         0         0         0         0
         0         0         0         0         0         0         0         0
         0         0         0         0         0         0         0         0
         0         0         0         0         0         0         0         0
         0         0         0         0         0         0         0         0
         0         0         0         0         0         0         0         0
         0         0         0         0         0         0         0         0
         0         0         0         0         0         0         0         0
         0         0         0         0         0         0         0         0
         0         0         0         0         0         0         0         0
         0         0         0         0         0         0         0         0
         0         0         0         0         0         0         0         0
         0         0         0         0         0         0         0         0
         0         0         0         0         0         0         0         0
         0         0         0         0         0         0         0         0
         0         0         0         0         0         0         0         0
         0         0         0         0         0         0         0         0
         0         0         0         0         0         0         0         0
         0         0         0         0         0         0         0         0
         0         0         0         0         0         0         0         0
         0         0         0         0         0         0         0         0
         0         0         0         0         0         0         0         0
         0         0         0         0         0         0         0         0
         0         0         0         0         0         0         0         0
         0         0         0         0         0         0         0         0
         0         0         0         0         0         0         0         0
         0         0         0         0         0         0         0         0
         0         0         0         0         0         0         0         0
         0         0         0         0         0         0         0         0
         0         0         0         0         0         0         0         0
         0         0         0         0         0         0         0         0
         0         0         0         0         0         0         0         0
         0         0         0         0         0         0         0         0
         0         0         0         0         0         0         0         0
         0         0         0         0         0         0         0         0
         0         0         0         0         0         0         0         0
         0         0         0         0         0         0         0         0
         0         0         0         0         0         0         0         0
         0         0         0         0         0         0         0         0
         0         0         0         0         0         0         0         0
         0         0         0         0         0         0         0         0
         0         0         0         0         0         0         0         0
         0         0         0         0         0         0         0         0
         0         0         0         0         0         0         0         0
         0         0         0         0         0         0         0         0
         0         0         0         0         0         0         0         0
         0         0         0         0         0         0         0         0
         0         0         0         0         0         0         0         0
         0         0         0         0         0         0         0         0
         0         0         0         0         0         0         0         0
         0         0         0         0         0         0         0         0
         0         0         0         0         0         0         0         0
         0         0         0         0         0         0         0         0
         0         0         0         0         0         0         0         0
         0         0         0         0         0         0         0         0
         0         0         0         0         0         0         0         0
         0         0         0         0         0         0         0         0
         0         0         0         0         0         0         0         0
         0         0         0         0         0         0         0         0
         0         0         0         0         0         0         0         0
         0         0         0         0         0         0         0         0
         0         0         0         0         0         0         0         0
         0         0         0         0         0         0         0         0
         0         0         0         0         0         0         0         0
         0         0         0         0         0         0         0         0
         0         0         0         0         0         0         0         0
         0         0         0         0         0         0         0         0
         0         0         0         0         0         0         0         0
         0         0         0         0         0         0         0         0
         0         0         0         0         0         0         0         0
         0         0         0         0         0         0         0         0
         0         0         0         0         0         0         0         0
         0         0         0         0         0         0         0         0
         0         0         0         0         0         0         0         0
         0         0         0         0         0         0         0         0
         0         0         0         0         0         0         0         0
         0         0         0         0         0         0         0         0
         0         0         0         0         0         0         0         0
         0         0         0         0         0         0         0         0
         0         0         0         0         0         0         0         0
         0         0         0         0         0         0         0         0
         0         0         0         0         0         0         0         0
         0         0         0         0         0         0         0         0
         0         0         0         0         0         0         0         0
         0         0         0         0         0         0         0         0
         0         0         0         0         0         0         0         0
         0         0         0         0         0         0         0         0
         0         0         0         0         0         0         0         0
         0         0         0         0         0         0         0         0
         0         0         0         0         0         0         0         0
         0         0         0         0         0         0         0         0
         0         0         0         0         0         0         0         0
         0         0         0         0         0         0         0         0
         0         0         0         0         0         0         0         0
         0         0         0         0         0         0         0         0
         0         0         0         0         0         0         0         0
         0         0         0         0         0         0         0         0
         0         0         0         0         0         0         0         0
         0         0         0         0         0         0         0         0
         0         0         0         0         0         0         0         0
         0         0         0         0         0         0         0         0
         0         0         0         0         0         0         0         0
         0         0         0         0         0         0         0         0
         0         0         0         0         0         0         0         0
         0         0         0         0         0         0         0         0
         0         0         0         0         0         0         0         0
         0         0         0         0         0         0         0         0
         0         0         0         0         0         0         0         0
         0         0         0         0         0         0         0         0
         0         0         0         0         0         0         0         0
         0         0         0         0         0         0         0         0
         0         0         0         0         0         0         0         0
         0         0         0         0         0         0         0         0
         0         0         0         0         0         0         0         0
         0         0         0         0         0         0         0         0
         0         0         0         0         0         0         0         0
         0         0         0         0         0         0         0         0
         0         0         0         0         0         0         0         0
         0         0         0         0         0         0         0         0
         0         0         0         0         0         0         0         0
         0         0         0         0         0         0         0         0
         0         0         0         0         0         0         0         0
         0         0         0         0         0         0         0         0
         0         0         0         0         0         0         0         0
         0         0         0         0         0         0         0         0
         0         0         0         0         0         0         0         0
         0         0         0         0         0         0         0         0
         0         0         0         0         0         0         0         0
         0         0         0         0         0         0         0         0
         0         0         0         0         0         0         0         0
         0         0         0         0         0         0         0         0
         0         0         0         0         0         0         0         0
         0         0         0         0         0         0         0         0
         0         0         0         0         0         0         0         0
         0         0         0         0         0         0         0         0
         0         0         0         0         0         0         0         0
         0         0         0         0         0         0         0         0
         0         0         0         0         0         0         0         0
         0         0         0         0         0         0         0         0
         0         0         0         0         0         0         0         0
         0         0         0         0         0         0         0         0
         0         0         0         0         0         0         0         0
         0         0         0         0         0         0         0         0
         0         0         0         0         0         0         0         0
         0         0         0         0         0         0         0         0
         0         0         0         0         0         0         0         0
         0         0         0         0         0         0         0         0
         0         0         0         0         0         0         0         0
         0         0         0         0         0         0         0         0
         0         0         0         0         0         0         0         0
         0         0         0         0         0         0         0         0
         0         0         0         0         0         0         0         0
         0         0         0         0         0         0         0         0
         0         0         0         0         0         0         0         0
         0         0         0         0         0         0         0         0
         0         0         0         0         0         0         0         0
         0         0         0         0         0         0         0         0
         0         0         0         0         0         0         0         0
         0         0         0         0         0         0         0         0
         0         0         0         0         0         0         0         0
         0         0         0         0         0         0         0         0
         0         0         0         0         0         0         0         0
         0         0         0         0         0         0         0         0
         0         0         0         0         0         0         0         0
         0         0         0         0         0         0         0         0
         0         0         0         0         0         0         0         0
         0         0         0         0         0         0         0         0
         0         0         0         0         0         0         0         0
         0         0         0         0         0         0         0         0
         0         0         0         0         0         0         0         0
         0         0         0         0         0         0         0         0
         0         0         0         0         0         0         0         0
         0         0         0         0         0         0         0         0
         0         0         0         0         0         0         0         0
         0         0         0         0         0         0         0         0
         0         0         0         0         0         0         0         0
         0         0         0         0         0         0         0         0
         0         0         0         0         0         0         0         0
         0         0         0         0         0         0         0         0
         0         0         0         0         0         0         0         0
         0         0         0         0         0         0         0         0
         0         0         0         0         0         0         0         0
         0         0         0         0         0         0         0         0
         0         0         0         0         0         0         0         0
         0         0         0         0         0         0         0         0
         0         0         0         0         0         0         0         0
         0         0         0         0         0         0         0         0
         0         0         0         0         0         0         0         0
         0         0         0         0         0         0         0         0
         0         0         0         0         0         0         0         0
         0         0         0         0         0         0         0         0
         0         0         0         0         0         0         0         0
         0         0         0         0         0         0         0         0
         0         0         0         0         0         0         0         0
         0         0         0         0         0         0         0         0
         0         0         0         0         0         0         0         0
         0         0         0         0         0         0         0         0
         0         0         0         0         0         0         0         0
         0         0         0         0         0         0         0         0
         0         0         0         0         0         0         0         0
         0         0         0         0         0         0         0         0
         0         0         0         0         0         0         0         0
         0         0         0         0         0         0         0         0
         0         0         0         0         0         0         0         0
         0         0         0         0         0         0         0         0
         0         0         0         0         0         0         0         0
         0         0         0         0         0         0         0         0
         0         0         0         0         0         0         0         0
         0         0         0         0         0         0         0         0
         0         0         0         0         0         0         0         0
         0         0         0         0         0         0         0         0
         0         0         0         0         0         0         0         0
         0         0         0         0         0         0         0         0
         0         0         0         0         0         0         0         0
         0         0         0         0         0         0         0         0
         0         0         0         0         0         0         0         0
         0         0         0         0         0         0         0         0
         0         0         0         0         0         0         0         0
         0         0         0         0         0         0         0         0
         0         0         0         0         0         0         0         0
         0         0         0         0         0         0         0         0
         0         0         0         0         0         0         0         0
         0         0         0         0         0         0         0         0
         0         0         0         0         0         0         0         0
         0         0         0         0         0         0         0         0
         0         0         0         0         0         0         0         0
         0         0         0         0         0         0         0         0
         0         0         0         0         0         0         0         0
         0         0         0         0         0         0         0         0
         0         0         0         0         0         0         0         0
         0         0         0         0         0         0         0         0
         0         0         0         0         0         0         0         0
         0         0         0         0         0         0         0         0
         0         0         0         0         0         0         0         0
         0         0         0         0         0         0         0         0
         0         0         0         0         0         0         0         0
         0         0         0         0         0         0         0         0
         0         0         0         0         0         0         0         0
         0         0         0         0         0         0         0         0
         0         0         0         0         0         0         0         0
         0         0         0         0         0         0         0         0
         0         0         0         0         0         0         0         0
         0         0         0         0         0         0         0         0
         0         0         0         0         0         0         0         0
         0         0         0         0         0         0         0         0
         0         0         0         0         0         0         0         0
         0         0         0         0         0         0         0         0
         0         0         0         0         0         0         0         0
         0         0         0         0         0         0         0         0
         0         0         0         0         0         0         0         0
         0         0         0         0         0         0         0         0
         0         0         0         0         0         0         0         0
         0         0         0         0         0         0         0         0
         0         0         0         0         0         0         0         0
         0         0         0         0         0         0         0         0
         0         0         0         0         0         0         0         0
         0         0         0         0         0         0         0         0
         0         0         0         0         0         0         0         0
         0         0         0         0         0         0         0         0
         0         0         0         0         0         0         0         0
         0         0         0         0         0         0         0         0
         0         0         0         0         0         0         0         0
         0         0         0         0         0         0         0         0
         0         0         0         0         0         0         0         0
         0         0         0         0         0         0         0         0
         0         0         0         0         0         0         0         0
         0         0         0         0         0         0         0         0
         0         0         0         0         0         0         0         0
         0         0         0         0         0         0         0         0
         0         0         0         0         0         0         0         0
         0         0         0         0         0         0         0         0
         0         0         0         0         0         0         0         0
         0         0         0         0         0         0         0         0
         0         0         0         0         0         0         0         0
         0         0         0         0         0         0         0         0
         0         0         0         0         0         0         0         0
         0         0         0         0         0         0         0         0
         0         0         0         0         0         0         0         0
         0         0         0         0         0         0         0         0
         0         0         0         0         0         0         0         0
         0         0         0         0         0         0         0         0
         0         0         0         0         0         0         0         0
         0         0         0         0         0         0         0         0
         0         0         0         0         0         0         0         0
         0         0         0         0         0         0         0         0
         0         0         0         0         0         0         0         0
         0         0         0         0         0         0         0         0
         0         0         0         0         0         0         0         0
         0         0         0         0         0         0         0         0
         0         0         0         0         0         0         0         0
         0         0         0         0         0         0         0         0
         0         0         0         0         0         0         0         0
         0         0         0         0         0         0         0         0
         0         0         0         0         0         0         0         0
         0         0         0         0         0         0         0         0
         0         0         0         0         0         0         0         0
         0         0         0         0         0         0         0         0
         0         0         0         0         0         0         0         0
         0         0         0         0         0         0         0         0
         0         0         0         0         0         0         0         0
         0         0         0         0         0         0         0         0
         0         0         0         0         0         0         0         0
         0         0         0         0         0         0         0         0
         0         0         0         0         0         0         0         0
         0         0         0         0         0         0         0         0
         0         0         0         0         0         0         0         0
         0         0         0         0         0         0         0         0
         0         0         0         0         0         0         0         0
         0         0         0         0         0         0         0         0
         0         0         0         0         0         0         0         0
         0         0         0         0         0         0         0         0
         0         0         0         0         0         0         0         0
         0         0         0         0         0         0         0         0
         0         0         0         0         0         0         0         0
         0         0         0         0         0         0         0         0
         0         0         0         0         0         0         0         0
         0         0         0         0         0         0         0         0
         0         0         0         0         0         0         0         0
         0         0         0         0         0         0         0         0
         0         0         0         0         0         0         0         0
         0         0         0         0         0         0         0         0
         0         0         0         0         0         0         0         0
         0         0         0         0         0         0         0         0
         0         0         0         0         0         0         0         0
         0         0         0         0         0         0         0         0
         0         0         0         0         0         0         0         0
         0         0         0         0         0         0         0         0
         0         0         0         0         0         0         0         0
         0         0         0         0         0         0         0         0
         0         0         0         0         0         0         0         0
         0         0         0         0         0         0         0         0
         0         0         0         0         0         0         0         0
         0         0         0         0         0         0         0         0
         0         0         0         0         0         0         0         0
         0         0         0         0         0         0         0         0
         0         0         0         0         0         0         0         0
         0         0         0         0         0         0         0         0
         0         0         0         0         0         0         0         0
         0         0         0         0         0         0         0         0
         0         0         0         0         0         0         0         0
         0         0         0         0         0         0         0         0
         0         0         0         0         0         0         0         0
         0         0         0         0         0         0         0         0
         0         0         0         0         0         0         0         0
         0         0         0         0         0         0         0         0
         0         0         0         0         0         0         0         0
         0         0         0         0         0         0         0         0
         0         0         0         0         0         0         0         0
         0         0         0         0         0         0         0         0
         0         0         0         0         0         0         0         0
         0         0         0         0         0         0         0         0
         0         0         0         0         0         0         0         0
         0         0         0         0         0         0         0         0
         0         0         0         0         0         0         0         0
         0         0         0         0         0         0         0         0
         0         0         0         0         0         0         0         0
         0         0         0         0         0         0         0         0
         0         0         0         0         0         0         0         0
         0         0         0         0         0         0         0         0
         0         0         0         0         0         0         0         0
         0         0         0         0         0         0         0         0
         0         0         0         0         0         0         0         0
         0         0         0         0         0         0         0         0
         0         0         0         0         0         0         0         0
         0         0         0         0         0         0         0         0
         0         0         0         0         0         0         0         0
         0         0         0         0         0         0         0         0
         0         0         0         0         0         0         0         0
         0         0         0         0         0         0         0         0
         0         0         0         0         0         0         0         0
         0         0         0         0         0         0         0         0
         0         0         0         0         0         0         0         0
         0         0         0         0         0         0         0         0
         0         0         0         0         0         0         0         0
         0         0         0         0         0         0         0         0
         0         0         0         0         0         0         0         0
         0         0         0         0         0         0         0         0
         0         0         0         0         0         0         0         0
         0         0         0         0         0         0         0         0
         0         0         0         0         0         0         0         0
         0         0         0         0         0         0         0         0
         0         0         0         0         0         0         0         0
         0         0         0         0         0         0         0         0
         0         0         0         0         0         0         0         0
         0         0         0         0         0         0         0         0
         0         0         0         0         0         0         0         0
         0         0         0         0         0         0         0         0
         0         0         0         0         0         0         0         0
         0         0         0         0         0         0         0         0
         0         0         0         0         0         0         0         0
         0         0         0         0         0         0         0         0
         0         0         0         0         0         0         0         0
         0         0         0         0         0         0         0         0
         0         0         0         0         0         0         0         0
         0         0         0         0         0         0         0         0
         0         0         0         0         0         0         0         0
         0         0         0         0         0         0         0         0
         0         0         0         0         0         0         0         0
         0         0         0         0         0         0         0         0
         0         0         0         0         0         0         0         0
         0         0         0         0         0         0         0         0
         0         0         0         0         0         0         0         0
         0         0         0         0         0         0         0         0
         0         0         0         0         0         0         0         0
         0         0         0         0         0         0         0         0
         0         0         0         0         0         0         0         0
         0         0         0         0         0         0         0         0
         0         0         0         0         0         0         0         0
         0         0         0         0         0         0         0         0
         0         0         0         0         0         0         0         0
         0         0         0         0         0         0         0         0
         0         0         0         0         0         0         0         0
         0         0         0         0         0         0         0         0
         0         0         0         0         0         0         0         0
         0         0         0         0         0         0         0         0
         0         0         0         0         0         0         0         0
         0         0         0         0         0         0         0         0
         0         0         0         0         0         0         0         0
         0         0         0         0         0         0         0         0
         0         0         0         0         0         0         0         0
         0         0         0         0         0         0         0         0
         0         0         0         0         0         0         0         0
         0         0         0         0         0         0         0         0
         0         0         0         0         0         0         0         0
         0         0         0         0         0         0         0         0
         0         0         0         0         0         0         0         0
         0         0         0         0         0         0         0         0
         0         0         0         0         0         0         0         0
         0         0         0         0         0         0         0         0
         0         0         0         0         0         0         0         0
         0         0         0         0         0         0         0         0
         0         0         0         0         0         0         0         0
         0         0         0         0         0         0         0         0
         0         0         0         0         0         0         0         0
         0         0         0         0         0         0         0         0
         0         0         0         0         0         0         0         0
         0         0         0         0         0         0         0         0
         0         0         0         0         0         0         0         0
         0         0         0         0         0         0         0         0
         0         0         0         0         0         0         0         0
         0         0         0         0         0         0         0         0
         0         0         0         0         0         0         0         0
         0         0         0         0         0         0         0         0
         0         0         0         0         0         0         0         0
         0         0         0         0         0         0         0         0
         0         0         0         0         0         0         0         0
         0         0         0         0         0         0         0         0
         0         0         0         0         0         0         0         0
         0         0         0         0         0         0         0         0
         0         0         0         0         0         0         0         0
         0         0         0         0         0         0         0         0
         0         0         0         0         0         0         0         0
         0         0         0         0         0         0         0         0
         0         0         0         0         0         0         0         0
         0         0         0         0         0         0         0         0
         0         0         0         0         0         0         0         0
         0         0         0         0         0         0         0         0
         0         0         0         0         0         0         0         0
         0         0         0         0         0         0         0         0
         0         0         0         0         0         0         0         0
         0         0         0         0         0         0         0         0
         0         0         0         0         0         0         0         0
         0         0         0         0         0         0         0         0
         0         0         0         0         0         0         0         0
         0         0         0         0         0         0         0         0
         0         0         0         0         0         0         0         0
         0         0         0         0         0         0         0         0
         0         0         0         0         0         0         0         0
         0         0         0         0         0         0         0         0
         0         0         0         0         0         0         0         0
         0         0         0         0         0         0         0         0
         0         0         0         0         0         0         0         0
         0         0         0         0         0         0         0         0
         0         0         0         0         0         0         0         0
         0         0         0         0         0         0         0         0
         0         0         0         0         0         0         0         0
         0         0         0         0         0         0         0         0
         0         0         0         0         0         0         0         0
         0         0         0         0         0         0         0         0
         0         0         0         0         0         0         0         0
         0         0         0         0         0         0         0         0
         0         0         0         0         0         0         0         0
         0         0         0         0         0         0         0         0
         0         0         0         0         0         0         0         0
         0         0         0         0         0         0         0         0
         0         0         0         0         0         0         0         0
         0         0         0         0         0         0         0         0
         0         0         0         0         0         0         0         0
         0         0         0         0         0         0         0         0
         0         0         0         0         0         0         0         0
         0         0         0         0         0         0         0         0
         0         0         0         0         0         0         0         0
         0         0         0         0         0         0         0         0
         0         0         0         0         0         0         0         0
         0         0         0         0         0         0         0         0
         0         0         0         0         0         0         0         0
         0         0         0         0         0         0         0         0
         0         0         0         0         0         0         0         0
         0         0         0         0         0         0         0         0
         0         0         0         0         0         0         0         0
         0         0         0         0         0         0         0         0
         0         0         0         0         0         0         0         0
         0         0         0         0         0         0         0         0
         0         0         0         0         0         0         0         0
         0         0         0         0         0         0         0         0
         0         0         0         0         0         0         0         0
         0         0         0         0         0         0         0         0
         0         0         0         0         0         0         0         0
         0         0         0         0         0         0         0         0
         0         0         0         0         0         0         0         0
         0         0         0         0         0         0         0         0
         0         0         0         0         0         0         0         0
         0         0         0         0         0         0         0         0
         0         0         0         0         0         0         0         0
         0         0         0         0         0         0         0         0
         0         0         0         0         0         0         0         0
         0         0         0         0         0         0         0         0
         0         0         0         0         0         0         0         0
         0         0         0         0         0         0         0         0
         0         0         0         0         0         0         0         0
         0         0         0         0         0         0         0         0
         0         0         0         0         0         0         0         0
         0         0         0         0         0         0         0         0
         0         0         0         0         0         0         0         0
         0         0         0         0         0         0         0         0
         0         0         0         0         0         0         0         0
         0         0         0         0         0         0         0         0
         0         0         0         0         0         0         0         0
         0         0         0         0         0         0         0         0
         0         0         0         0         0         0         0         0
         0         0         0         0         0         0         0         0
         0         0         0         0         0         0         0         0
         0         0         0         0         0         0         0         0
         0         0         0         0         0         0         0         0
         0         0         0         0         0         0         0         0
         0         0         0         0         0         0         0         0
         0         0         0         0         0         0         0         0
         0         0         0         0         0         0         0         0
         0         0         0         0         0         0         0         0
         0         0         0         0         0         0         0         0
         0         0         0         0         0         0         0         0
         0         0         0         0         0         0         0         0
         0         0         0         0         0         0         0         0
         0         0         0         0         0         0         0         0
         0         0         0         0         0         0         0         0
         0         0         0         0         0         0         0         0
         0         0         0         0         0         0         0         0
         0         0         0         0         0         0         0         0
         0         0         0         0         0         0         0         0
         0         0         0         0         0         0         0         0
         0         0         0         0         0         0         0         0
         0         0         0         0         0         0         0         0
         0         0         0         0         0         0         0         0
         0         0         0         0         0         0         0         0
         0         0         0         0         0         0         0         0
         0         0         0         0         0         0         0         0
         0         0         0         0         0         0         0         0
         0         0         0         0         0         0         0         0
         0         0         0         0         0         0         0         0
         0         0         0         0         0         0         0         0
         0         0         0         0         0         0         0         0
         0         0         0         0         0         0         0         0
         0         0         0         0         0         0         0         0
         0         0         0         0         0         0         0         0
         0         0         0         0         0         0         0         0
         0         0         0         0         0         0         0         0
         0         0         0         0         0         0         0         0
         0         0         0         0         0         0         0         0
         0         0         0         0         0         0         0         0
         0         0         0         0         0         0         0         0
         0         0         0         0         0         0         0         0
         0         0         0         0         0         0         0         0
         0         0         0         0         0         0         0         0
         0         0         0         0         0         0         0         0
         0         0         0         0         0         0         0         0
         0         0         0         0         0         0         0         0
         0         0         0         0         0         0         0         0
         0         0         0         0         0         0         0         0
         0         0         0         0         0         0         0         0
         0         0         0         0         0         0         0         0
         0         0         0         0         0         0         0         0
         0         0         0         0         0         0         0         0
         0         0         0         0         0         0         0         0
         0         0         0         0         0         0         0         0
         0         0         0         0         0         0         0         0
         0         0         0         0         0         0         0         0
         0         0         0         0         0         0         0         0
         0         0         0         0         0         0         0         0
         0         0         0         0         0         0         0         0
         0         0         0         0         0         0         0         0
         0         0         0         0         0         0         0         0
         0         0         0         0         0         0         0         0
         0         0         0         0         0         0         0         0
         0         0         0         0         0         0         0         0
         0         0         0         0         0         0         0         0
         0         0         0         0         0         0         0         0
         0         0         0         0         0         0         0         0
         0         0         0         0         0         0         0         0
         0         0         0         0         0         0         0         0
         0         0         0         0         0         0         0         0
         0         0         0         0         0         0         0         0
         0         0         0         0         0         0         0         0
         0         0         0         0         0         0         0         0
         0         0         0         0         0         0         0         0
         0         0         0         0         0         0         0         0
         0         0         0         0         0         0         0         0
         0         0         0         0         0         0         0         0
         0         0         0         0         0         0         0         0
         0         0         0         0         0         0         0         0
         0         0         0         0         0         0         0         0
         0         0         0         0         0         0         0         0
         0         0         0         0         0         0         0         0
         0         0         0         0         0         0         0         0
         0         0         0         0         0         0         0         0
         0         0         0         0         0         0         0         0
         0         0         0         0         0         0         0         0
         0         0         0         0         0         0         0         0
         0         0         0         0         0         0         0         0
         0         0         0         0         0         0         0         0
         0         0         0         0         0         0         0         0
         0         0         0         0         0         0         0         0
         0         0         0         0         0         0         0         0
         0         0         0         0         0         0         0         0
         0         0         0         0         0         0         0         0
         0         0         0         0         0         0         0         0
         0         0         0         0         0         0         0         0
         0         0         0         0         0         0         0         0
         0         0         0         0         0         0         0         0
         0         0         0         0         0         0         0         0
         0         0         0         0         0         0         0         0
         0         0         0         0         0         0         0         0
         0         0         0         0         0         0         0         0
         0         0         0         0         0         0         0         0
         0         0         0         0         0         0         0         0
         0         0         0         0         0         0         0         0
         0         0         0         0         0         0         0         0
         0         0         0         0         0         0         0         0
         0         0         0         0         0         0         0         0
         0         0         0         0         0         0         0         0
         0         0         0         0         0         0         0         0
         0         0         0         0         0         0         0         0
         0         0         0         0         0         0         0         0
         0         0         0         0         0         0         0         0
         0         0         0         0         0         0         0         0
         0         0         0         0         0         0         0         0
         0         0         0         0         0         0         0         0
         0         0         0         0         0         0         0         0
         0         0         0         0         0         0         0         0
         0         0         0         0         0         0         0         0
         0         0         0         0         0         0         0         0
         0         0         0         0         0         0         0         0
         0         0         0         0         0         0         0         0
         0         0         0         0         0         0         0         0
         0         0         0         0         0         0         0         0
         0         0         0         0         0         0         0         0
         0         0         0         0         0         0         0         0
         0         0         0         0         0         0         0         0
         0         0         0         0         0         0         0         0
         0         0         0         0         0         0         0         0
         0         0         0         0         0         0         0         0
         0         0         0         0         0         0         0         0
         0         0         0         0         0         0         0         0
         0         0         0         0         0         0         0         0
         0         0         0         0         0         0         0         0
         0         0         0         0         0         0         0         0
         0         0         0         0         0         0         0         0
         0         0         0         0         0         0         0         0
         0         0         0         0         0         0         0         0
         0         0         0         0         0         0         0         0
         0         0         0         0         0         0         0         0
         0         0         0         0         0         0         0         0
         0         0         0         0         0         0         0         0
         0         0         0         0         0         0         0         0
         0         0         0         0         0         0         0         0
         0         0         0         0         0         0         0         0
         0         0         0         0         0         0         0         0
         0         0         0         0         0         0         0         0
         0         0         0         0         0         0         0         0
         0         0         0         0         0         0         0         0
         0         0         0         0         0         0         0         0
         0         0         0         0         0         0         0         0
         0         0         0         0         0         0         0         0
         0         0         0         0         0         0         0         0
         0         0         0         0         0         0         0         0
         0         0         0         0         0         0         0         0
         0         0         0         0         0         0         0         0
         0         0         0         0         0         0         0         0
         0         0         0         0         0         0         0         0
         0         0         0         0         0         0         0         0
         0         0         0         0         0         0         0         0
         0         0         0         0         0         0         0         0
         0         0         0         0         0         0         0         0
         0         0         0         0         0         0         0         0
         0         0         0         0         0         0         0         0
         0         0         0         0         0         0         0         0
         0         0         0         0         0         0         0         0
         0         0         0         0         0         0         0         0
         0         0         0         0         0         0         0         0
         0         0         0         0         0         0         0         0
         0         0         0         0         0         0         0         0
         0         0         0         0         0         0         0         0
         0         0         0         0         0         0         0         0
         0         0         0         0         0         0         0         0
         0         0         0         0         0         0         0         0
         0         0         0         0         0         0         0         0
         0         0         0         0         0         0         0         0
         0         0         0         0         0         0         0         0
         0         0         0         0         0         0         0         0
         0         0         0         0         0         0         0         0
         0         0         0         0         0         0         0         0
         0         0         0         0         0         0         0         0
         0         0         0         0         0         0         0         0
         0         0         0         0         0         0         0         0
         0         0         0         0         0         0         0         0
         0         0         0         0         0         0         0         0
         0         0         0         0         0         0         0         0
         0         0         0         0         0         0         0         0
         0         0         0         0         0         0         0         0
         0         0         0         0         0         0         0         0
         0         0         0         0         0         0         0         0
         0         0         0         0         0         0         0         0
         0         0         0         0         0         0         0         0
         0         0         0         0         0         0         0         0
         0         0         0         0         0         0         0         0
         0         0         0         0         0         0         0         0
         0         0         0         0         0         0         0         0
         0         0         0         0         0         0         0         0
         0         0         0         0         0         0         0         0
         0         0         0         0         0         0         0         0
         0         0         0         0         0         0         0         0
         0         0         0         0         0         0         0         0
         0         0         0         0         0         0         0         0
         0         0         0         0         0         0         0         0
         0         0         0         0         0         0         0         0
         0         0         0         0         0         0         0         0
         0         0         0         0         0         0         0         0
         0         0         0         0         0         0         0         0
         0         0         0         0         0         0         0         0
         0         0         0         0         0         0         0         0
         0         0         0         0         0         0         0         0
         0         0         0         0         0         0         0         0
         0         0         0         0         0         0         0         0
         0         0         0         0         0         0         0         0
         0         0         0         0         0         0         0         0
         0         0         0         0         0         0         0         0
         0         0         0         0         0         0         0         0
         0         0         0         0         0         0         0         0
         0         0         0         0         0         0         0         0
         0         0         0         0         0         0         0         0
         0         0         0         0         0         0         0         0
         0         0         0         0         0         0         0         0
         0         0         0         0         0         0         0         0
         0         0         0         0         0         0         0         0
         0         0         0         0         0         0         0         0
         0         0         0         0         0         0         0         0
         0         0         0         0         0         0         0         0
         0         0         0         0         0         0         0         0
         0         0         0         0         0         0         0         0
         0         0         0         0         0         0         0         0
         0         0         0         0         0         0         0         0
         0         0         0         0         0         0         0         0
         0         0         0         0         0         0         0         0
         0         0         0         0         0         0         0         0
         0         0         0         0         0         0         0         0
         0         0         0         0         0         0         0         0
         0         0         0         0         0         0         0         0
         0         0         0         0         0         0         0         0
         0         0         0         0         0         0         0         0
         0         0         0         0         0         0         0         0
         0         0         0         0         0         0         0         0
         0         0         0         0         0         0         0         0
         0         0         0         0         0         0         0         0
         0         0         0         0         0         0         0         0
         0         0         0         0         0         0         0         0
         0         0         0         0         0         0         0         0
         0         0         0         0         0         0         0         0
         0         0         0         0         0         0         0         0
         0         0         0         0         0         0         0         0
         0         0         0         0         0         0         0         0
         0         0         0         0         0         0         0         0
         0         0         0         0         0         0         0         0
         0         0         0         0         0         0         0         0
         0         0         0         0         0         0         0         0
         0         0         0         0         0         0         0         0
         0         0         0         0         0         0         0         0
         0         0         0         0         0         0         0         0
         0         0         0         0         0         0         0         0
         0         0         0         0         0         0         0         0
         0         0         0         0         0         0         0         0
         0         0         0         0         0         0         0         0
         0         0         0         0         0         0         0         0
         0         0         0         0         0         0         0         0
         0         0         0         0         0         0         0         0
         0         0         0         0         0         0         0         0
         0         0         0         0         0         0         0         0
         0         0         0         0         0         0         0         0
         0         0         0         0         0         0         0         0
         0         0         0         0         0         0         0         0
         0         0         0         0         0         0         0         0
         0         0         0         0         0         0         0         0
         0         0         0         0         0         0         0         0
         0         0         0         0         0         0         0         0
         0         0         0         0         0         0         0         0
         0         0         0         0         0         0         0         0
         0         0         0         0         0         0         0         0
         0         0         0         0         0         0         0         0
         0         0         0         0         0         0         0         0
         0         0         0         0         0         0         0         0
         0         0         0         0         0         0         0         0
         0         0         0         0         0         0         0         0
         0         0         0         0         0         0         0         0
         0         0         0         0         0         0         0         0
         0         0         0         0         0         0         0         0
         0         0         0         0         0         0         0         0
         0         0         0         0         0         0         0         0
         0         0         0         0         0         0         0         0
         0         0         0         0         0         0         0         0
         0         0         0         0         0         0         0         0
         0         0         0         0         0         0         0         0
         0         0         0         0         0         0         0         0
         0         0         0         0         0         0         0         0
         0         0         0         0         0         0         0         0
         0         0         0         0         0         0         0         0
         0         0         0         0         0         0         0         0
         0         0         0         0         0         0         0         0
         0         0         0         0         0         0         0         0
         0         0         0         0         0         0         0         0
         0         0         0         0         0         0         0         0
         0         0         0         0         0         0         0         0
         0         0         0         0         0         0         0         0
         0         0         0         0         0         0         0         0
         0         0         0         0         0         0         0         0
         0         0         0         0         0         0         0         0
         0         0         0         0         0         0         0         0
         0         0         0         0         0         0         0         0
         0         0         0         0         0         0         0         0
         0         0         0         0         0         0         0         0
         0         0         0         0         0         0         0         0
         0         0         0         0         0         0         0         0
         0         0         0         0         0         0         0         0
         0         0         0         0         0         0         0         0
         0         0         0         0         0         0         0         0
         0         0         0         0         0         0         0         0
         0         0         0         0         0         0         0         0
         0         0         0         0         0         0         0         0
         0         0         0         0         0         0         0         0
         0         0         0         0         0         0         0         0
         0         0         0         0         0         0         0         0
         0         0         0         0         0         0         0         0
         0         0         0         0         0         0         0         0
         0         0         0         0         0         0         0         0
         0         0         0         0         0         0         0         0
         0         0         0         0         0         0         0         0
         0         0         0         0         0         0         0         0
         0         0         0         0         0         0         0         0
         0         0         0         0         0         0         0         0
         0         0         0         0         0         0         0         0
         0         0         0         0         0         0         0         0
         0         0         0         0         0         0         0         0
         0         0         0         0         0         0         0         0
         0         0         0         0         0         0         0         0
         0         0         0         0         0         0         0         0
         0         0         0         0         0         0         0         0
         0         0         0         0         0         0         0         0
         0         0         0         0         0         0         0         0
         0         0         0         0         0         0         0         0
         0         0         0         0         0         0         0         0
         0         0         0         0         0         0         0         0
         0         0         0         0         0         0         0         0
         0         0         0         0         0         0         0         0
         0         0         0         0         0         0         0         0
         0         0         0         0         0         0         0         0
         0         0         0         0         0         0         0         0
         0         0         0         0         0         0         0         0
         0         0         0         0         0         0         0         0
         0         0         0         0         0         0         0         0
         0         0         0         0         0         0         0         0
         0         0         0         0         0         0         0         0
         0         0         0         0         0         0         0         0
         0         0         0         0         0         0         0         0
         0         0         0         0         0         0         0         0
         0         0         0         0         0         0         0         0
         0         0         0         0         0         0         0         0
         0         0         0         0         0         0         0         0
         0         0         0         0         0         0         0         0
         0         0         0         0         0         0         0         0
         0         0         0         0         0         0         0         0
         0         0         0         0         0         0         0         0
         0         0         0         0         0         0         0         0
         0         0         0         0         0         0         0         0
         0         0         0         0         0         0         0         0
         0         0         0         0         0         0         0         0
         0         0         0         0         0         0         0         0
         0         0         0         0         0         0         0         0
         0         0         0         0         0         0         0         0
         0         0         0         0         0         0         0         0
         0         0         0         0         0         0         0         0
         0         0         0         0         0         0         0         0
         0         0         0         0         0         0         0         0
         0         0         0         0         0         0         0         0
         0         0         0         0         0         0         0         0
         0         0         0         0         0         0         0         0
         0         0         0         0         0         0         0         0
         0         0         0         0         0         0         0         0
         0         0         0         0         0         0         0         0
         0         0         0         0         0         0         0         0
         0         0         0         0         0         0         0         0
         0         0         0         0         0         0         0         0
         0         0         0         0         0         0         0         0
         0         0         0         0         0         0         0         0
         0         0         0         0         0         0         0         0
         0         0         0         0         0         0         0         0
         0         0         0         0         0         0         0         0
         0         0         0         0         0         0         0         0
         0         0         0         0         0         0         0         0
         0         0         0         0         0         0         0         0
         0         0         0         0         0         0         0         0
         0         0         0         0         0         0         0         0
         0         0         0         0         0         0         0         0
         0         0         0         0         0         0         0         0
         0         0         0         0         0         0         0         0
         0         0         0         0         0         0         0         0
         0         0         0         0         0         0         0         0
         0         0         0         0         0         0         0         0
         0         0         0         0         0         0         0         0
         0         0         0         0         0         0         0         0
         0         0         0         0         0         0         0         0
         0         0         0         0         0         0         0         0
         0         0         0         0         0         0         0         0
         0         0         0         0         0         0         0         0
         0         0         0         0         0         0         0         0
         0         0         0         0         0         0         0         0
         0         0         0         0         0         0         0         0
         0         0         0         0         0         0         0         0
         0         0         0         0         0         0         0         0
         0         0         0         0         0         0         0         0
         0         0         0         0         0         0         0         0
         0         0         0         0         0         0         0         0
         0         0         0         0         0         0         0         0
         0         0         0         0         0         0         0         0
         0         0         0         0         0         0         0         0
         0         0         0         0         0         0         0         0
         0         0         0         0         0         0         0         0
         0         0         0         0         0         0         0         0
         0         0         0         0         0         0         0         0
         0         0         0         0         0         0         0         0
         0         0         0         0         0         0         0         0
         0         0         0         0         0         0         0         0
         0         0         0         0         0         0         0         0
         0         0         0         0         0         0         0         0
         0         0         0         0         0         0         0         0
         0         0         0         0         0         0         0         0
         0         0         0         0         0         0         0         0
         0         0         0         0         0         0         0         0
         0         0         0         0         0         0         0         0
         0         0         0         0         0         0         0         0
         0         0         0         0         0         0         0         0
         0         0         0         0         0         0         0         0
         0         0         0         0         0         0         0         0
         0         0         0         0         0         0         0         0
         0         0         0         0         0         0         0         0
         0         0         0         0         0         0         0         0
         0         0         0         0         0         0         0         0
         0         0         0         0         0         0         0         0
         0         0         0         0         0         0         0         0
         0         0         0         0         0         0         0         0
         0         0         0         0         0         0         0         0
         0         0         0         0         0         0         0         0
         0         0         0         0         0         0         0         0
         0         0         0         0         0         0         0         0
         0         0         0         0         0         0         0         0
         0         0         0         0         0         0         0         0
         0         0         0         0         0         0         0         0
         0         0         0         0         0         0         0         0
         0         0         0         0         0         0         0         0
         0         0         0         0         0         0         0         0
         0         0         0         0         0         0         0         0
         0         0         0         0         0         0         0         0
         0         0         0         0         0         0         0         0
         0         0         0         0         0         0         0         0
         0         0         0         0         0         0         0         0
         0         0         0         0         0         0         0         0
         0         0         0         0         0         0         0         0
         0         0         0         0         0         0         0         0
         0         0         0         0         0         0         0         0
         0         0         0         0         0         0         0         0
         0         0         0         0         0         0         0         0
         0         0         0         0         0         0         0         0
         0         0         0         0         0         0         0         0
         0         0         0         0         0         0         0         0
         0         0         0         0         0         0         0         0
         0         0         0         0         0         0         0         0
         0         0         0         0         0         0         0         0
         0         0         0         0         0         0         0         0
         0         0         0         0         0         0         0         0
         0         0         0         0         0         0         0         0
         0         0         0         0         0         0         0         0
         0         0         0         0         0         0         0         0
         0         0         0         0         0         0         0         0
         0         0         0         0         0         0         0         0
         0         0         0         0         0         0         0         0
         0         0         0         0         0         0         0         0
         0         0         0         0         0         0         0         0
         0         0         0         0         0         0         0         0
         0         0         0         0         0         0         0         0
         0         0         0         0         0         0         0         0
         0         0         0         0         0         0         0         0
         0         0         0         0         0         0         0         0
         0         0         0         0         0         0         0         0
         0         0         0         0         0         0         0         0
         0         0         0         0         0         0         0         0
         0         0         0         0         0         0         0         0
         0         0         0         0         0         0         0         0
         0         0         0         0         0         0         0         0
         0         0         0         0         0         0         0         0
         0         0         0         0         0         0         0         0
         0         0         0         0         0         0         0         0
         0         0         0         0         0         0         0         0
         0         0         0         0         0         0         0         0
         0         0         0         0         0         0         0         0
         0         0         0         0         0         0         0         0
         0         0         0         0         0         0         0         0
         0         0         0         0         0         0         0         0
         0         0         0         0         0         0         0         0
         0         0         0         0         0         0         0         0
         0         0         0         0         0         0         0         0
         0         0         0         0         0         0         0         0
         0         0         0         0         0         0         0         0
         0         0         0         0         0         0         0         0
         0         0         0         0         0         0         0         0
         0         0         0         0         0         0         0         0
         0         0         0         0         0         0         0         0
         0         0         0         0         0         0         0         0
         0         0         0         0         0         0         0         0
         0         0         0         0         0         0         0         0
         0         0         0         0         0         0         0         0
         0         0         0         0         0         0         0         0
         0         0         0         0         0         0         0         0
         0         0         0         0         0         0         0         0
         0         0         0         0         0         0         0         0
         0         0         0         0         0         0         0         0
         0         0         0         0         0         0         0         0
         0         0         0         0         0         0         0         0
         0         0         0         0         0         0         0         0
         0         0         0         0         0         0         0         0
         0         0         0         0         0         0         0         0
         0         0         0         0         0         0         0         0
         0         0         0         0         0         0         0         0
         0         0         0         0         0         0         0         0
         0         0         0         0         0         0         0         0
         0         0         0         0         0         0         0         0
         0         0         0         0         0         0         0         0
         0         0         0         0         0         0         0         0
         0         0         0         0         0         0         0         0
         0         0         0         0         0         0         0         0
         0         0         0         0         0         0         0         0
         0         0         0         0         0         0         0         0
         0         0         0         0         0         0         0         0
         0         0         0         0         0         0         0         0
         0         0         0         0         0         0         0         0
         0         0         0         0         0         0         0         0
         0         0         0         0         0         0         0         0
         0         0         0         0         0         0         0         0
         0         0         0         0         0         0         0         0
         0         0         0         0         0         0         0         0
         0         0         0         0         0         0         0         0
         0         0         0         0         0         0         0         0
         0         0         0         0         0         0         0         0
         0         0         0         0         0         0         0         0
         0         0         0         0         0         0         0         0
         0         0         0         0         0         0         0         0
         0         0         0         0         0         0         0         0
         0         0         0         0         0         0         0         0
         0         0         0         0         0         0         0         0
         0         0         0         0         0         0         0         0
         0         0         0         0         0         0         0         0
         0         0         0         0         0         0         0         0
         0         0         0         0         0         0         0         0
         0         0         0         0         0         0         0         0
         0         0         0         0         0         0         0         0
         0         0         0         0         0         0         0         0
         0         0         0         0         0         0         0         0
         0         0         0         0         0         0         0         0
         0         0         0         0         0         0         0         0
         0         0         0         0         0         0         0         0
         0         0         0         0         0         0         0         0
         0         0         0         0         0         0         0         0
         0         0         0         0         0         0         0         0
         0         0         0         0         0         0         0         0
         0         0         0         0         0         0         0         0
         0         0         0         0         0         0         0         0
         0         0         0         0         0         0         0         0
         0         0         0         0         0         0         0         0
         0         0         0         0         0         0         0         0
         0         0         0         0         0         0         0         0
         0         0         0         0         0         0         0         0
         0         0         0         0         0         0         0         0
         0         0         0         0         0         0         0         0
         0         0         0         0         0         0         0         0
         0         0         0         0         0         0         0         0
         0         0         0         0         0         0         0         0
         0         0         0         0         0         0         0         0
         0         0         0         0         0         0         0         0
         0         0         0         0         0         0         0         0
         0         0         0         0         0         0         0         0
         0         0         0         0         0         0         0         0
         0         0         0         0         0         0         0         0
         0         0         0         0         0         0         0         0
         0         0         0         0         0         0         0         0
         0         0         0         0         0         0         0         0
         0         0         0         0         0         0         0         0
         0         0         0         0         0         0         0         0
         0         0         0         0         0         0         0         0
         0         0         0         0         0         0         0         0
         0         0         0         0         0         0         0         0
         0         0         0         0         0         0         0         0
         0         0         0         0         0         0         0         0
         0         0         0         0         0         0         0         0
         0         0         0         0         0         0         0         0
         0         0         0         0         0         0         0         0
         0         0         0         0         0         0         0         0
         0         0         0         0         0         0         0         0
         0         0         0         0         0         0         0         0
         0         0         0         0         0         0         0         0
         0         0         0         0         0         0         0         0
         0         0         0         0         0         0         0         0
         0         0         0         0         0         0         0         0
         0         0         0         0         0         0         0         0
         0         0         0         0         0         0         0         0
         0         0         0         0         0         0         0         0
         0         0         0         0         0         0         0         0
         0         0         0         0         0         0         0         0
         0         0         0         0         0         0         0         0
         0         0         0         0         0         0         0         0
         0         0         0         0         0         0         0         0
         0         0         0         0         0         0         0         0
         0         0         0         0         0         0         0         0
         0         0         0         0         0         0         0         0
         0         0         0         0         0         0         0         0
         0         0         0         0         0         0         0         0
         0         0         0         0         0         0         0         0
         0         0         0         0         0         0         0         0
         0         0         0         0         0         0         0         0
         0         0         0         0         0         0         0         0
         0         0         0         0         0         0         0         0
         0         0         0         0         0         0         0         0
         0         0         0         0         0         0         0         0
         0         0         0         0         0         0         0         0
         0         0         0         0         0         0         0         0
         0         0         0         0         0         0         0         0
         0         0         0         0         0         0         0         0
         0         0         0         0         0         0         0         0
         0         0         0         0         0         0         0         0
         0         0         0         0         0         0         0         0
         0         0         0         0         0         0         0         0
         0         0         0         0         0         0         0         0
         0         0         0         0         0         0         0         0
         0         0         0         0         0         0         0         0
         0         0         0         0         0         0         0         0
         0         0         0         0         0         0         0         0
         0         0         0         0         0         0         0         0
         0         0         0         0         0         0         0         0
         0         0         0         0         0         0         0         0
         0         0         0         0         0         0         0         0
         0         0         0         0         0         0         0         0
         0         0         0         0         0         0         0         0
         0         0         0         0         0         0         0         0
         0         0         0         0         0         0         0         0
         0         0         0         0         0         0         0         0
         0         0         0         0         0         0         0         0
         0         0         0         0         0         0         0         0
         0         0         0         0         0         0         0         0
         0         0         0         0         0         0         0         0
         0         0         0         0         0         0         0         0
         0         0         0         0         0         0         0         0
         0         0         0         0         0         0         0         0
         0         0         0         0         0         0         0         0
         0         0         0         0         0         0         0         0
         0         0         0         0         0         0         0         0
         0         0         0         0         0         0         0         0
         0         0         0         0         0         0         0         0
         0         0         0         0         0         0         0         0
         0         0         0         0         0         0         0         0
         0         0         0         0         0         0         0         0
         0         0         0         0         0         0         0         0
         0         0         0         0         0         0         0         0
         0         0         0         0         0         0         0         0
         0         0         0         0         0         0         0         0
         0         0         0         0         0         0         0         0
         0         0         0         0         0         0         0         0
         0         0         0         0         0         0         0         0
         0         0         0         0         0         0         0         0
         0         0         0         0         0         0         0         0
         0         0         0         0         0         0         0         0
         0         0         0         0         0         0         0         0
         0         0         0         0         0         0         0         0
         0         0         0         0         0         0         0         0
         0         0         0         0         0         0         0         0
         0         0         0         0         0         0         0         0
         0         0         0         0         0         0         0         0
         0         0         0         0         0         0         0         0
         0         0         0         0         0         0         0         0
         0         0         0         0         0         0         0         0
         0         0         0         0         0         0         0         0
         0         0         0         0         0         0         0         0
         0         0         0         0         0         0         0         0
         0         0         0         0         0         0         0         0
         0         0         0         0         0         0         0         0
         0         0         0         0         0         0         0         0
         0         0         0         0         0         0         0         0
         0         0         0         0         0         0         0         0
         0         0         0         0         0         0         0         0
         0         0         0         0         0         0         0         0
         0         0         0         0         0         0         0         0
         0         0         0         0         0         0         0         0
         0         0         0         0         0         0         0         0
         0         0         0         0         0         0         0         0
         0         0         0         0         0         0         0         0
         0         0         0         0         0         0         0         0
         0         0         0         0         0         0         0         0
         0         0         0         0         0         0         0         0
         0         0         0         0         0         0         0         0
         0         0         0         0         0         0         0         0
         0         0         0         0         0         0         0         0
         0         0         0         0         0         0         0         0
         0         0         0         0         0         0         0         0
         0         0         0         0         0         0         0         0
         0         0         0         0         0         0         0         0
         0         0         0         0         0         0         0         0
         0         0         0         0         0         0         0         0
         0         0         0         0         0         0         0         0
         0         0         0         0         0         0         0         0
         0         0         0         0         0         0         0         0
         0         0         0         0         0         0         0         0
         0         0         0         0         0         0         0         0
         0         0         0         0         0         0         0         0
         0         0         0         0         0         0         0         0
         0         0         0         0         0         0         0         0
         0         0         0         0         0         0         0         0
         0         0         0         0         0         0         0         0
         0         0         0         0         0         0         0         0
         0         0         0         0         0         0         0         0
         0         0         0         0         0         0         0         0
         0         0         0         0         0         0         0         0
         0         0         0         0         0         0         0         0
         0         0         0         0         0         0         0         0
         0         0         0         0         0         0         0         0
         0         0         0         0         0         0         0         0
         0         0         0         0         0         0         0         0
         0         0         0         0         0         0         0         0
         0         0         0         0         0         0         0         0
         0         0         0         0         0         0         0         0
         0         0         0         0         0         0         0         0
         0         0         0         0         0         0         0         0
         0         0         0         0         0         0         0         0
         0         0         0         0         0         0         0         0
         0         0         0         0         0         0         0         0
         0         0         0         0         0         0         0         0
         0         0         0         0         0         0         0         0
         0         0         0         0         0         0         0         0
         0         0         0         0         0         0         0         0
         0         0         0         0         0         0         0         0
         0         0         0         0         0         0         0         0
         0         0         0         0         0         0         0         0
         0         0         0         0         0         0         0         0
         0         0         0         0         0         0         0         0
         0         0         0         0         0         0         0         0
         0         0         0         0         0         0         0         0
         0         0         0         0         0         0         0         0
         0         0         0         0         0         0         0         0
         0         0         0         0         0         0         0         0
         0         0         0         0         0         0         0         0
         0         0         0         0         0         0         0         0
         0         0         0         0         0         0         0         0
         0         0         0         0         0         0         0         0
         0         0         0         0         0         0         0         0
         0         0         0         0         0         0         0         0
         0         0         0         0         0         0         0         0
         0         0         0         0         0         0         0         0
         0         0         0         0         0         0         0         0
         0         0         0         0         0         0         0         0
         0         0         0         0         0         0         0         0
         0         0         0         0         0         0         0         0
         0         0         0         0         0         0         0         0
         0         0         0         0         0         0         0         0
         0         0         0         0         0         0         0         0
         0         0         0         0         0         0         0         0
         0         0         0         0         0         0         0         0
         0         0         0         0         0         0         0         0
         0         0         0         0         0         0         0         0
         0         0         0         0         0         0         0         0
         0         0         0         0         0         0         0         0
         0         0         0         0         0         0         0         0
         0         0         0         0         0         0         0         0
         0         0         0         0         0         0         0         0
         0         0         0         0         0         0         0         0
         0         0         0         0         0         0         0         0
         0         0         0         0         0         0         0         0
         0         0         0         0         0         0         0         0
         0         0         0         0         0         0         0         0
         0         0         0         0         0         0         0         0
         0         0         0         0         0         0         0         0
         0         0         0         0         0         0         0         0
         0         0         0         0         0         0         0         0
         0         0         0         0         0         0         0         0
         0         0         0         0         0         0         0         0
         0         0         0         0         0         0         0         0
         0         0         0         0         0         0         0         0
         0         0         0         0         0         0         0         0
         0         0         0         0         0         0         0         0
         0         0         0         0         0         0         0         0
         0         0         0         0         0         0         0         0
         0         0         0         0         0         0         0         0
         0         0         0         0         0         0         0         0
         0         0         0         0         0         0         0         0
         0         0         0         0         0         0         0         0
         0         0         0         0         0         0         0         0
         0         0         0         0         0         0         0         0
         0         0         0         0         0         0         0         0
         0         0         0         0         0         0         0         0
         0         0         0         0         0         0         0         0
         0         0         0         0         0         0         0         0
         0         0         0         0         0         0         0         0
         0         0         0         0         0         0         0         0
         0         0         0         0         0         0         0         0
         0         0         0         0         0         0         0         0
         0         0         0         0         0         0         0         0
         0         0         0         0         0         0         0         0
         0         0         0         0         0         0         0         0
         0         0         0         0         0         0         0         0
         0         0         0         0         0         0         0         0
         0         0         0         0         0         0         0         0
         0         0         0         0         0         0         0         0
         0         0         0         0         0         0         0         0
         0         0         0         0         0         0         0         0
         0         0         0         0         0         0         0         0
         0         0         0         0         0         0         0         0
         0         0         0         0         0         0         0         0
         0         0         0         0         0         0         0         0
         0         0         0         0         0         0         0         0
         0         0         0         0         0         0         0         0
         0         0         0         0         0         0         0         0
         0         0         0         0         0         0         0         0
         0         0         0         0         0         0         0         0
         0         0         0         0         0         0         0         0
         0         0         0         0         0         0         0         0
         0         0         0         0         0         0         0         0
         0         0         0         0         0         0         0         0
         0         0         0         0         0         0         0         0
         0         0         0         0         0         0         0         0
         0         0         0         0         0         0         0         0
         0         0         0         0         0         0         0         0
         0         0         0         0         0         0         0         0
         0         0         0         0         0         0         0         0
         0         0         0         0         0         0         0         0
         0         0         0         0         0         0         0         0
         0         0         0         0         0         0         0         0
         0         0         0         0         0         0         0         0
         0         0         0         0         0         0         0         0
         0         0         0         0         0         0         0         0
         0         0         0         0         0         0         0         0
         0         0         0         0         0         0         0         0
         0         0         0         0         0         0         0         0
         0         0         0         0         0         0         0         0
         0         0         0         0         0         0         0         0
         0         0         0         0         0         0         0         0
         0         0         0         0         0         0         0         0
         0         0         0         0         0         0         0         0
         0         0         0         0         0         0         0         0
         0         0         0         0         0         0         0         0
         0         0         0         0         0         0         0         0
         0         0         0         0         0         0         0         0
         0         0         0         0         0         0         0         0
         0         0         0         0         0         0         0         0
         0         0         0         0         0         0         0         0
         0         0         0         0         0         0         0         0
         0         0         0         0         0         0         0         0
         0         0         0         0         0         0         0         0
         0         0         0         0         0         0         0         0
         0         0         0         0         0         0         0         0
         0         0         0         0         0         0         0         0
         0         0         0         0         0         0         0         0
         0         0         0         0         0         0         0         0
         0         0         0         0         0         0         0         0
         0         0         0         0         0         0         0         0
         0         0         0         0         0         0         0         0
         0         0         0         0         0         0         0         0
         0         0         0         0         0         0         0         0
         0         0         0         0         0         0         0         0
         0         0         0         0         0         0         0         0
         0         0         0         0         0         0         0         0
         0         0         0         0         0         0         0         0
         0         0         0         0         0         0         0         0
         0         0         0         0         0         0         0         0
         0         0         0         0         0         0         0         0
         0         0         0         0         0         0         0         0
         0         0         0         0         0         0         0         0
         0         0         0         0         0         0         0         0
         0         0         0         0         0         0         0         0
         0         0         0         0         0         0         0         0
         0         0         0         0         0         0         0         0
         0         0         0         0         0         0         0         0
         0         0         0         0         0         0         0         0
         0         0         0         0         0         0         0         0
         0         0         0         0         0         0         0         0
         0         0         0         0         0         0         0         0
         0         0         0         0         0         0         0         0
         0         0         0         0         0         0         0         0
         0         0         0         0         0         0         0         0
         0         0         0         0         0         0         0         0
         0         0         0         0         0         0         0         0
         0         0         0         0         0         0         0         0
         0         0         0         0         0         0         0         0
         0         0         0         0         0         0         0         0
         0         0         0         0         0         0         0         0
         0         0         0         0         0         0         0         0
         0         0         0         0         0         0         0         0
         0         0         0         0         0         0         0         0
         0         0         0         0         0         0         0         0
         0         0         0         0         0         0         0         0
         0         0         0         0         0         0         0         0
         0         0         0         0         0         0         0         0
         0         0         0         0         0         0         0         0
         0         0         0         0         0         0         0         0
         0         0         0         0         0         0         0         0
         0         0         0         0         0         0         0         0
         0         0         0         0         0         0         0         0
         0         0         0         0         0         0         0         0
         0         0         0         0         0         0         0         0
         0         0         0         0         0         0         0         0
         0         0         0         0         0         0         0         0
         0         0         0         0         0         0         0         0
         0         0         0         0         0         0         0         0
         0         0         0         0         0         0         0         0
         0         0         0         0         0         0         0         0
         0         0         0         0         0         0         0         0
         0         0         0         0         0         0         0         0
         0         0         0         0         0         0         0         0
         0         0         0         0         0         0         0         0
         0         0         0         0         0         0         0         0
         0         0         0         0         0         0         0         0
         0         0         0         0         0         0         0         0
         0         0         0         0         0         0         0         0
         0         0         0         0         0         0         0         0
         0         0         0         0         0         0         0         0
         0         0         0         0         0         0         0         0
         0         0         0         0         0         0         0         0
         0         0         0         0         0         0         0         0
         0         0         0         0         0         0         0         0
         0         0         0         0         0         0         0         0
         0         0         0         0         0         0         0         0
         0         0         0         0         0         0         0         0
         0         0         0         0         0         0         0         0
         0         0         0         0         0         0         0         0
         0         0         0         0         0         0         0         0
         0         0         0         0         0         0         0         0
         0         0         0         0         0         0         0         0
         0         0         0         0         0         0         0         0
         0         0         0         0         0         0         0         0
         0         0         0         0         0         0         0         0
         0         0         0         0         0         0         0         0
         0         0         0         0         0         0         0         0
         0         0         0         0         0         0         0         0
         0         0         0         0         0         0         0         0
         0         0         0         0         0         0         0         0
         0         0         0         0         0         0         0         0
         0         0         0         0         0         0         0         0
         0         0         0         0         0         0         0         0
         0         0         0         0         0         0         0         0
         0         0         0         0         0         0         0         0
         0         0         0         0         0         0         0         0
         0         0         0         0         0         0         0         0
         0         0         0         0         0         0         0         0
         0         0         0         0         0         0         0         0
         0         0         0         0         0         0         0         0
         0         0         0         0         0         0         0         0
         0         0         0         0         0         0         0         0
         0         0         0         0         0         0         0         0
         0         0         0         0         0         0         0         0
         0         0         0         0         0         0         0         0
         0         0         0         0         0         0         0         0
         0         0         0         0         0         0         0         0
         0         0         0         0         0         0         0         0
         0         0         0         0         0         0         0         0
         0         0         0         0         0         0         0         0
         0         0         0         0         0         0         0         0
         0         0         0         0         0         0         0         0
         0         0         0         0         0         0         0         0
         0         0         0         0         0         0         0         0
         0         0         0         0         0         0         0         0
         0         0         0         0         0         0         0         0
         0         0         0         0         0         0         0         0
         0         0         0         0         0         0         0         0
         0         0         0         0         0         0         0         0
         0         0         0         0         0         0         0         0
         0         0         0         0         0         0         0         0
         0         0         0         0         0         0         0         0
         0         0         0         0         0         0         0         0
         0         0         0         0         0         0         0         0
         0         0         0         0         0         0         0         0
         0         0         0         0         0         0         0         0
         0         0         0         0         0         0         0         0
         0         0         0         0         0         0         0         0
         0         0         0         0         0         0         0         0
         0         0         0         0         0         0         0         0
         0         0         0         0         0         0         0         0
         0         0         0         0         0         0         0         0
         0         0         0         0         0         0         0         0
         0         0         0         0         0         0         0         0
         0         0         0         0         0         0         0         0
         0         0         0         0         0         0         0         0
         0         0         0         0         0         0         0         0
         0         0         0         0         0         0         0         0
         0         0         0         0         0         0         0         0
         0         0         0         0         0         0         0         0
         0         0         0         0         0         0         0         0
         0         0         0         0         0         0         0         0
         0         0         0         0         0         0         0         0
         0         0         0         0         0         0         0         0
         0         0         0         0         0         0         0         0
         0         0         0         0         0         0         0         0
         0         0         0         0         0         0         0         0
         0         0         0         0         0         0         0         0
         0         0         0         0         0         0         0         0
         0         0         0         0         0         0         0         0
         0         0         0         0         0         0         0         0
         0         0         0         0         0         0         0         0
         0         0         0         0         0         0         0         0
         0         0         0         0         0         0         0         0
         0         0         0         0         0         0         0         0
         0         0         0         0         0         0         0         0
         0         0         0         0         0         0         0         0
         0         0         0         0         0         0         0         0
         0         0         0         0         0         0         0         0
         0         0         0         0         0         0         0         0
         0         0         0         0         0         0         0         0
         0         0         0         0         0         0         0         0
         0         0         0         0         0         0         0         0
         0         0         0         0         0         0         0         0
         0         0         0         0         0         0         0         0
         0         0         0         0         0         0         0         0
         0         0         0         0         0         0         0         0
         0         0         0         0         0         0         0         0
         0         0         0         0         0         0         0         0
         0         0         0         0         0         0         0         0
         0         0         0         0         0         0         0         0
         0         0         0         0         0         0         0         0
         0         0         0         0         0         0         0         0
         0         0         0         0         0         0         0         0
         0         0         0         0         0         0         0         0
         0         0         0         0         0         0         0         0
         0         0         0         0         0         0         0         0
         0         0         0         0         0         0         0         0
         0         0         0         0         0         0         0         0
         0         0         0         0         0         0         0         0
         0         0         0         0         0         0         0         0
         0         0         0         0         0         0         0         0
         0         0         0         0         0         0         0         0
         0         0         0         0         0         0         0         0
         0         0         0         0         0         0         0         0
         0         0         0         0         0         0         0         0
         0         0         0         0         0         0         0         0
         0         0         0         0         0         0         0         0
         0         0         0         0         0         0         0         0
         0         0         0         0         0         0         0         0
         0         0         0         0         0         0         0         0
         0         0         0         0         0         0         0         0
         0         0         0         0         0         0         0         0
         0         0         0         0         0         0         0         0
         0         0         0         0         0         0         0         0
         0         0         0         0         0         0         0         0
         0         0         0         0         0         0         0         0
         0         0         0         0         0         0         0         0
         0         0         0         0         0         0         0         0
         0         0         0         0         0         0         0         0
         0         0         0         0         0         0         0         0
         0         0         0         0         0         0         0         0
         0         0         0         0         0         0         0         0
         0         0         0         0         0         0         0         0
         0         0         0         0         0         0         0         0
         0         0         0         0         0         0         0         0
         0         0         0         0         0         0         0         0
         0         0         0         0         0         0         0         0
         0         0         0         0         0         0         0         0
         0         0         0         0         0         0         0         0
         0         0         0         0         0         0         0         0
         0         0         0         0         0         0         0         0
         0         0         0         0         0         0         0         0
         0         0         0         0         0         0         0         0
         0         0         0         0         0         0         0         0
         0         0         0         0         0         0         0         0
         0         0         0         0         0         0         0         0
         0         0         0         0         0         0         0         0
         0         0         0         0         0         0         0         0
         0         0         0         0         0         0         0         0
         0         0         0         0         0         0         0         0
         0         0         0         0         0         0         0         0
         0         0         0         0         0         0         0         0
         0         0         0         0         0         0         0         0
         0         0         0         0         0         0         0         0
         0         0         0         0         0         0         0         0
         0         0         0         0         0         0         0         0
         0         0         0         0         0         0         0         0
         0         0         0         0         0         0         0         0
         0         0         0         0         0         0         0         0
         0         0         0         0         0         0         0         0
         0         0         0         0         0         0         0         0
         0         0         0         0         0         0         0         0
         0         0         0         0         0         0         0         0
         0         0         0         0         0         0         0         0
         0         0         0         0         0         0         0         0
         0         0         0         0         0         0         0         0
         0         0         0         0         0         0         0         0
         0         0         0         0         0         0         0         0
         0         0         0         0         0         0         0         0
         0         0         0         0         0         0         0         0
         0         0         0         0         0         0         0         0
         0         0         0         0         0         0         0         0
         0         0         0         0         0         0         0         0
         0         0         0         0         0         0         0         0
         0         0         0         0         0         0         0         0
         0         0         0         0         0         0         0         0
         0         0         0         0         0         0         0         0
         0         0         0         0         0         0         0         0
         0         0         0         0         0         0         0         0
         0         0         0         0         0         0         0         0
         0         0         0         0         0         0         0         0
         0         0         0         0         0         0         0         0
         0         0         0         0         0         0         0         0
         0         0         0         0         0         0         0         0
         0         0         0         0         0         0         0         0
         0         0         0         0         0         0         0         0
         0         0         0         0         0         0         0         0
         0         0         0         0         0         0         0         0
         0         0         0         0         0         0         0         0
         0         0         0         0         0         0         0         0
         0         0         0         0         0         0         0         0
         0         0         0         0         0         0         0         0
         0         0         0         0         0         0         0         0
         0         0         0         0         0         0         0         0
         0         0         0         0         0         0         0         0
         0         0         0         0         0         0         0         0
         0         0         0         0         0         0         0         0
         0         0         0         0         0         0         0         0
         0         0         0         0         0         0         0         0
         0         0         0         0         0         0         0         0
         0         0         0         0         0         0         0         0
         0         0         0         0         0         0         0         0
         0         0         0         0         0         0         0         0
         0         0         0         0         0         0         0         0
         0         0         0         0         0         0         0         0
         0         0         0         0         0         0         0         0
         0         0         0         0         0         0         0         0
         0         0         0         0         0         0         0         0
         0         0         0         0         0         0         0         0
         0         0         0         0         0         0         0         0
         0         0         0         0         0         0         0         0
         0         0         0         0         0         0         0         0
         0         0         0         0         0         0         0         0
         0         0         0         0         0         0         0         0
         0         0         0         0         0         0         0         0
         0         0         0         0         0         0         0         0
         0         0         0         0         0         0         0         0
         0         0         0         0         0         0         0         0
         0         0         0         0         0         0         0         0
         0         0         0         0         0         0         0         0
         0         0         0         0         0         0         0         0
         0         0         0         0         0         0         0         0
         0         0         0         0         0         0         0         0
         0         0         0         0         0         0         0         0
         0         0         0         0         0         0         0         0
         0         0         0         0         0         0         0         0
         0         0         0         0         0         0         0         0
         0         0         0         0         0         0         0         0
         0         0         0         0         0         0         0         0
         0         0         0         0         0         0         0         0
         0         0         0         0         0         0         0         0
         0         0         0         0         0         0         0         0
         0         0         0         0         0         0         0         0
         0         0         0         0         0         0         0         0
         0         0         0         0         0         0         0         0
         0         0         0         0         0         0         0         0
         0         0         0         0         0         0         0         0
         0         0         0         0         0         0         0         0
         0         0         0         0         0         0         0         0
         0         0         0         0         0         0         0         0
         0         0         0         0         0         0         0         0
         0         0         0         0         0         0         0         0
         0         0         0         0         0         0         0         0
         0         0         0         0         0         0         0         0
         0         0         0         0         0         0         0         0
         0         0         0         0         0         0         0         0
         0         0         0         0         0         0         0         0
         0         0         0         0         0         0         0         0
         0         0         0         0         0         0         0         0
         0         0         0         0         0         0         0         0
         0         0         0         0         0         0         0         0
         0         0         0         0         0         0         0         0
         0         0         0         0         0         0         0         0
         0         0         0         0         0         0         0         0
         0         0         0         0         0         0         0         0
         0         0         0         0         0         0         0         0
         0         0         0         0         0         0         0         0
         0         0         0         0         0         0         0         0
         0         0         0         0         0         0         0         0
         0         0         0         0         0         0         0         0
         0         0         0         0         0         0         0         0
         0         0         0         0         0         0         0         0
         0         0         0         0         0         0         0         0
         0         0         0         0         0         0         0         0
         0         0         0         0         0         0         0         0
         0         0         0         0         0         0         0         0
         0         0         0         0         0         0         0         0
         0         0         0         0         0         0         0         0
         0         0         0         0         0         0         0         0
         0         0         0         0         0         0         0         0
         0         0         0         0         0         0         0         0
         0         0         0         0         0         0         0         0
         0         0         0         0         0         0         0         0
         0         0         0         0         0         0         0         0
         0         0         0         0         0         0         0         0
         0         0         0         0         0         0         0         0
         0         0         0         0         0         0         0         0
         0         0         0         0         0         0         0         0
         0         0         0         0         0         0         0         0
         0         0         0         0         0         0         0         0
         0         0         0         0         0         0         0         0
         0         0         0         0         0         0         0         0
         0         0         0         0         0         0         0         0
         0         0         0         0         0         0         0         0
         0         0         0         0         0         0         0         0
         0         0         0         0         0         0         0         0
         0         0         0         0         0         0         0         0
         0         0         0         0         0         0         0         0
         0         0         0         0         0         0         0         0
         0         0         0         0         0         0         0         0
         0         0         0         0         0         0         0         0
         0         0         0         0         0         0         0         0
         0         0         0         0         0         0         0         0
         0         0         0         0         0         0         0         0
         0         0         0         0         0         0         0         0
         0         0         0         0         0         0         0         0
         0         0         0         0         0         0         0         0
         0         0         0         0         0         0         0         0
         0         0         0         0         0         0         0         0
         0         0         0         0         0         0         0         0
         0         0         0         0         0         0         0         0
         0         0         0         0         0         0         0         0
         0         0         0         0         0         0         0         0
         0         0         0         0         0         0         0         0
         0         0         0         0         0         0         0         0
         0         0         0         0         0         0         0         0
         0         0         0         0         0         0         0         0
         0         0         0         0         0         0         0         0
         0         0         0         0         0         0         0         0
         0         0         0         0         0         0         0         0
         0         0         0         0         0         0         0         0
         0         0         0         0         0         0         0         0
         0         0         0         0         0         0         0         0
         0         0         0         0         0         0         0         0
         0         0         0         0         0         0         0         0
         0         0         0         0         0         0         0         0
         0         0         0         0         0         0         0         0
         0         0         0         0         0         0         0         0
         0         0         0         0         0         0         0         0
         0         0         0         0         0         0         0         0
         0         0         0         0         0         0         0         0
         0         0         0         0         0         0         0         0
         0         0         0         0         0         0         0         0
         0         0         0         0         0         0         0         0
         0         0         0         0         0         0         0         0
         0         0         0         0         0         0         0         0
         0         0         0         0         0         0         0         0
         0         0         0         0         0         0         0         0
         0         0         0         0         0         0         0         0
         0         0         0         0         0         0         0         0
         0         0         0         0         0         0         0         0
         0         0         0         0         0         0         0         0
         0         0         0         0         0         0         0         0
         0         0         0         0         0         0         0         0
         0         0         0         0         0         0         0         0
         0         0         0         0         0         0         0         0
         0         0         0         0         0         0         0         0
         0         0         0         0         0         0         0         0
         0         0         0         0         0         0         0         0
         0         0         0         0         0         0         0         0
         0         0         0         0         0         0         0         0
         0         0         0         0         0         0         0         0
         0         0         0         0         0         0         0         0
         0         0         0         0         0         0         0         0
         0         0         0         0         0         0         0         0
         0         0         0         0         0         0         0         0
         0         0         0         0         0         0         0         0
         0         0         0         0         0         0         0         0
         0         0         0         0         0         0         0         0
         0         0         0         0         0         0         0         0
         0         0         0         0         0         0         0         0
         0         0         0         0         0         0         0         0
         0         0         0         0         0         0         0         0
         0         0         0         0         0         0         0         0
         0         0         0         0         0         0         0         0
         0         0         0         0         0         0         0         0
         0         0         0         0         0         0         0         0
         0         0         0         0         0         0         0         0
         0         0         0         0         0         0         0         0
         0         0         0         0         0         0         0         0
         0         0         0         0         0         0         0         0
         0         0         0         0         0         0         0         0
         0         0         0         0         0         0         0         0
         0         0         0         0         0         0         0         0
         0         0         0         0         0         0         0         0
         0         0         0         0         0         0         0         0
         0         0         0         0         0         0         0         0
         0         0         0         0         0         0         0         0
         0         0         0         0         0         0         0         0
         0         0         0         0         0         0         0         0
         0         0         0         0         0         0         0         0
         0         0         0         0         0         0         0         0
         0         0         0         0         0         0         0         0
         0         0         0         0         0         0         0         0
         0         0         0         0         0         0         0         0
         0         0         0         0         0         0         0         0
         0         0         0         0         0         0         0         0
         0         0         0         0         0         0         0         0
         0         0         0         0         0         0         0         0
         0         0         0         0         0         0         0         0
         0         0         0         0         0         0         0         0
         0         0         0         0         0         0         0         0
         0         0         0         0         0         0         0         0
         0         0         0         0         0         0         0         0
         0         0         0         0         0         0         0         0
         0         0         0         0         0         0         0         0
         0         0         0         0         0         0         0         0
         0         0         0         0         0         0         0         0
         0         0         0         0         0         0         0         0
         0         0         0         0         0         0         0         0
         0         0         0         0         0         0         0         0
         0         0         0         0         0         0         0         0
         0         0         0         0         0         0         0         0
         0         0         0         0         0         0         0         0
         0         0         0         0         0         0         0         0
         0         0         0         0         0         0         0         0
         0         0         0         0         0         0         0         0
         0         0         0         0         0         0         0         0
         0         0         0         0         0         0         0         0
         0         0         0         0         0         0         0         0
         0         0         0         0         0         0         0         0
         0         0         0         0         0         0         0         0
         0         0         0         0         0         0         0         0
         0         0         0         0         0         0         0         0
         0         0         0         0         0         0         0         0
         0         0         0         0         0         0         0         0
         0         0         0         0         0         0         0         0
         0         0         0         0         0         0         0         0
         0         0         0         0         0         0         0         0
         0         0         0         0         0         0         0         0
         0         0         0         0         0         0         0         0
         0         0         0         0         0         0         0         0
         0         0         0         0         0         0         0         0
         0         0         0         0         0         0         0         0
         0         0         0         0         0         0         0         0
         0         0         0         0         0         0         0         0
         0         0         0         0         0         0         0         0
         0         0         0         0         0         0         0         0
         0         0         0         0         0         0         0         0
         0         0         0         0         0         0         0         0
         0         0         0         0         0         0         0         0
         0         0         0         0         0         0         0         0
         0         0         0         0         0         0         0         0
         0         0         0         0         0         0         0         0
         0         0         0         0         0         0         0         0
         0         0         0         0         0         0         0         0
         0         0         0         0         0         0         0         0
         0         0         0         0         0         0         0         0
         0         0         0         0         0         0         0         0
         0         0         0         0         0         0         0         0
         0         0         0         0         0         0         0         0
         0         0         0         0         0         0         0         0
         0         0         0         0         0         0         0         0
         0         0         0         0         0         0         0         0
         0         0         0         0         0         0         0         0
         0         0         0         0         0         0         0         0
         0         0         0         0         0         0         0         0
         0         0         0         0         0         0         0         0
         0         0         0         0         0         0         0         0
         0         0         0         0         0         0         0         0
         0         0         0         0         0         0         0         0
         0         0         0         0         0         0         0         0
         0         0         0         0         0         0         0         0
         0         0         0         0         0         0         0         0
         0         0         0         0         0         0         0         0
         0         0         0         0         0         0         0         0
         0         0         0         0         0         0         0         0
         0         0         0         0         0         0         0         0
         0         0         0         0         0         0         0         0
         0         0         0         0         0         0         0         0
         0         0         0         0         0         0         0         0
         0         0         0         0         0         0         0         0
         0         0         0         0         0         0         0         0
         0         0         0         0         0         0         0         0
         0         0         0         0         0         0         0         0
         0         0         0         0         0         0         0         0
         0         0         0         0         0         0         0         0
         0         0         0         0         0         0         0         0
         0         0         0         0         0         0         0         0
         0         0         0         0         0         0         0         0
         0         0         0         0         0         0         0         0
         0         0         0         0         0         0         0         0
         0         0         0         0         0         0         0         0
         0         0         0         0         0         0         0         0
         0         0         0         0         0         0         0         0
         0         0         0         0         0         0         0         0
         0         0         0         0         0         0         0         0
         0         0         0         0         0         0         0         0
         0         0         0         0         0         0         0         0
         0         0         0         0         0         0         0         0
         0         0         0         0         0         0         0         0
         0         0         0         0         0         0         0         0
         0         0         0         0         0         0         0         0
         0         0         0         0         0         0         0         0
         0         0         0         0         0         0         0         0
         0         0         0         0         0         0         0         0
         0         0         0         0         0         0         0         0
         0         0         0         0         0         0         0         0
         0         0         0         0         0         0         0         0
         0         0         0         0         0         0         0         0
         0         0         0         0         0         0         0         0
         0         0         0         0         0         0         0         0
         0         0         0         0         0         0         0         0
         0         0         0         0         0         0         0         0
         0         0         0         0         0         0         0         0
         0         0         0         0         0         0         0         0
         0         0         0         0         0         0         0         0
         0         0         0         0         0         0         0         0
         0         0         0         0         0         0         0         0
         0         0         0         0         0         0         0         0
         0         0         0         0         0         0         0         0
         0         0         0         0         0         0         0         0
         0         0         0         0         0         0         0         0
         0         0         0         0         0         0         0         0
         0         0         0         0         0         0         0         0
         0         0         0         0         0         0         0         0
         0         0         0         0         0         0         0         0
         0         0         0         0         0         0         0         0
         0         0         0         0         0         0         0         0
         0         0         0         0         0         0         0         0
         0         0         0         0         0         0         0         0
         0         0         0         0         0         0         0         0
         0         0         0         0         0         0         0         0
         0         0         0         0         0         0         0         0
         0         0         0         0         0         0         0         0
         0         0         0         0         0         0         0         0
         0         0         0         0         0         0         0         0
         0         0         0         0         0         0         0         0
         0         0         0         0         0         0         0         0
         0         0         0         0         0         0         0         0
         0         0         0         0         0         0         0         0
         0         0         0         0         0         0         0         0
         0         0         0         0         0         0         0         0
         0         0         0         0         0         0         0         0
         0         0         0         0         0         0         0         0
         0         0         0         0         0         0         0         0
         0         0         0         0         0         0         0         0
         0         0         0         0         0         0         0         0
         0         0         0         0         0         0         0         0
         0         0         0         0         0         0         0         0
         0         0         0         0         0         0         0         0
         0         0         0         0         0         0         0         0
         0         0         0         0         0         0         0         0
         0         0         0         0         0         0         0         0
         0         0         0         0         0         0         0         0
         0         0         0         0         0         0         0         0
         0         0         0         0         0         0         0         0
         0         0         0         0         0         0         0         0
         0         0         0         0         0         0         0         0
         0         0         0         0         0         0         0         0
         0         0         0         0         0         0         0         0
         0         0         0         0         0         0         0         0
         0         0         0         0         0         0         0         0
         0         0         0         0         0         0         0         0
         0         0         0         0         0         0         0         0
         0         0         0         0         0         0         0         0
         0         0         0         0         0         0         0         0
         0         0         0         0         0         0         0         0
         0         0         0         0         0         0         0         0
         0         0         0         0         0         0         0         0
         0         0         0         0         0         0         0         0
         0         0         0         0         0         0         0         0
         0         0         0         0         0         0         0         0
         0         0         0         0         0         0         0         0
         0         0         0         0         0         0         0         0
         0         0         0         0         0         0         0         0
         0         0         0         0         0         0         0         0
         0         0         0         0         0         0         0         0
         0         0         0         0         0         0         0         0
         0         0         0         0         0         0         0         0
         0         0         0         0         0         0         0         0
         0         0         0         0         0         0         0         0
         0         0         0         0         0         0         0         0
         0         0         0         0         0         0         0         0
         0         0         0         0         0         0         0         0
         0         0         0         0         0         0         0         0
         0         0         0         0         0         0         0         0
         0         0         0         0         0         0         0         0
         0         0         0         0         0         0         0         0
         0         0         0         0         0         0         0         0
         0         0         0         0         0         0         0         0
         0         0         0         0         0         0         0         0
         0         0         0         0         0         0         0         0
         0         0         0         0         0         0         0         0
         0         0         0         0         0         0         0         0
         0         0         0         0         0         0         0         0
         0         0         0         0         0         0         0         0
         0         0         0         0         0         0         0         0
         0         0         0         0         0         0         0         0
         0         0         0         0         0         0         0         0
         0         0         0         0         0         0         0         0
         0         0         0         0         0         0         0         0
         0         0         0         0         0         0         0         0
         0         0         0         0         0         0         0         0
         0         0         0         0         0         0         0         0
         0         0         0         0         0         0         0         0
         0         0         0         0         0         0         0         0
         0         0         0         0         0         0         0         0
         0         0         0         0         0         0         0         0
         0         0         0         0         0         0         0         0
         0         0         0         0         0         0         0         0
         0         0         0         0         0         0         0         0
         0         0         0         0         0         0         0         0
         0         0         0         0         0         0         0         0
         0         0         0         0         0         0         0         0
         0         0         0         0         0         0         0         0
         0         0         0         0         0         0         0         0
         0         0         0         0         0         0         0         0
         0         0         0         0         0         0         0         0
         0         0         0         0         0         0         0         0
         0         0         0         0         0         0         0         0
         0         0         0         0         0         0         0         0
         0         0         0         0         0         0         0         0
         0         0         0         0         0         0         0         0
         0         0         0         0         0         0         0         0
         0         0         0         0         0         0         0         0
         0         0         0         0         0         0         0         0
         0         0         0         0         0         0         0         0
         0         0         0         0         0         0         0         0
         0         0         0         0         0         0         0         0
         0         0         0         0         0         0         0         0
         0         0         0         0         0         0         0         0
         0         0         0         0         0         0         0         0
         0         0         0         0         0         0         0         0
         0         0         0         0         0         0         0         0
         0         0         0         0         0         0         0         0
         0         0         0         0         0         0         0         0
         0         0         0         0         0         0         0         0
         0         0         0         0         0         0         0         0
         0         0         0         0         0         0         0         0
         0         0         0         0         0         0         0         0
         0         0         0         0         0         0         0         0
         0         0         0         0         0         0         0         0
         0         0         0         0         0         0         0         0
         0         0         0         0         0         0         0         0
         0         0         0         0         0         0         0         0
         0         0         0         0         0         0         0         0
         0         0         0         0         0         0         0         0
         0         0         0         0         0         0         0         0
         0         0         0         0         0         0         0         0
         0         0         0         0         0         0         0         0
         0         0         0         0         0         0         0         0
         0         0         0         0         0         0         0         0
         0         0         0         0         0         0         0         0
         0         0         0         0         0         0         0         0
         0         0         0         0         0         0         0         0
         0         0         0         0         0         0         0         0
         0         0         0         0         0         0         0         0
         0         0         0         0         0         0         0         0
         0         0         0         0         0         0         0         0
         0         0         0         0         0         0         0         0
         0         0         0         0         0         0         0         0
         0         0         0         0         0         0         0         0
         0         0         0         0         0         0         0         0
         0         0         0         0         0         0         0         0
         0         0         0         0         0         0         0         0
         0         0         0         0         0         0         0         0
         0         0         0         0         0         0         0         0
         0         0         0         0         0         0         0         0
         0         0         0         0         0         0         0         0
         0         0         0         0         0         0         0         0
         0         0         0         0         0         0         0         0
         0         0         0         0         0         0         0         0
         0         0         0         0         0         0         0         0
         0         0         0         0         0         0         0         0
         0         0         0         0         0         0         0         0
         0         0         0         0         0         0         0         0
         0         0         0         0         0         0         0         0
         0         0         0         0         0         0         0         0
         0         0         0         0         0         0         0         0
         0         0         0         0         0         0         0         0
         0         0         0         0         0         0         0         0
         0         0         0         0         0         0         0         0
         0         0         0         0         0         0         0         0
         0         0         0         0         0         0         0         0
         0         0         0         0         0         0         0         0
         0         0         0         0         0         0         0         0
         0         0         0         0         0         0         0         0
         0         0         0         0         0         0         0         0
         0         0         0         0         0         0         0         0
         0         0         0         0         0         0         0         0
         0         0         0         0         0         0         0         0
         0         0         0         0         0         0         0         0
         0         0         0         0         0         0         0         0
         0         0         0         0         0         0         0         0
         0         0         0         0         0         0         0         0
         0         0         0         0         0         0         0         0
         0         0         0         0         0         0         0         0
         0         0         0         0         0         0         0         0
         0         0         0         0         0         0         0         0
         0         0         0         0         0         0         0         0
         0         0         0         0         0         0         0         0
         0         0         0         0         0         0         0         0
         0         0         0         0         0         0         0         0
         0         0         0         0         0         0         0         0
         0         0         0         0         0         0         0         0
         0         0         0         0         0         0         0         0
         0         0         0         0         0         0         0         0
         0         0         0         0         0         0         0         0
         0         0         0         0         0         0         0         0
         0         0         0         0         0         0         0         0
         0         0         0         0         0         0         0         0
         0         0         0         0         0         0         0         0
         0         0         0         0         0         0         0         0
         0         0         0         0         0         0         0         0
         0         0         0         0         0         0         0         0
         0         0         0         0         0         0         0         0
         0         0         0         0         0         0         0         0
         0         0         0         0         0         0         0         0
         0         0         0         0         0         0         0         0
         0         0         0         0         0         0         0         0
         0         0         0         0         0         0         0         0
         0         0         0         0         0         0         0         0
         0         0         0         0         0         0         0         0
         0         0         0         0         0         0         0         0
         0         0         0         0         0         0         0         0
         0         0         0         0         0         0         0         0
         0         0         0         0         0         0         0         0
         0         0         0         0         0         0         0         0
         0         0         0         0         0         0         0         0
         0         0         0         0         0         0         0         0
         0         0         0         0         0         0         0         0
         0         0         0         0         0         0         0         0
         0         0         0         0         0         0         0         0
         0         0         0         0         0         0         0         0
         0         0         0         0         0         0         0         0
         0         0         0         0         0         0         0         0
         0         0         0         0         0         0         0         0
         0         0         0         0         0         0         0         0
         0         0         0         0         0         0         0         0
         0         0         0         0         0         0         0         0
         0         0         0         0         0         0         0         0
         0         0         0         0         0         0         0         0
         0         0         0         0         0         0         0         0
         0         0         0         0         0         0         0         0
         0         0         0         0         0         0         0         0
         0         0         0         0         0         0         0         0
         0         0         0         0         0         0         0         0
         0         0         0         0         0         0         0         0
         0         0         0         0         0         0         0         0
         0         0         0         0         0         0         0         0
         0         0         0         0         0         0         0         0
         0         0         0         0         0         0         0         0
         0         0         0         0         0         0         0         0
         0         0         0         0         0         0         0         0
         0         0         0         0         0         0         0         0
         0         0         0         0         0         0         0         0
         0         0         0         0         0         0         0         0
         0         0         0         0         0         0         0         0
         0         0         0         0         0         0         0         0
         0         0         0         0         0         0         0         0
         0         0         0         0         0         0         0         0
         0         0         0         0         0         0         0         0
         0         0         0         0         0         0         0         0
         0         0         0         0         0         0         0         0
         0         0         0         0         0         0         0         0
         0         0         0         0         0         0         0         0
         0         0         0         0         0         0         0         0
         0         0         0         0         0         0         0         0
         0         0         0         0         0         0         0         0
         0         0         0         0         0         0         0         0
         0         0         0         0         0         0         0         0
         0         0         0         0         0         0         0         0
         0         0         0         0         0         0         0         0
         0         0         0         0         0         0         0         0
         0         0         0         0         0         0         0         0
         0         0         0         0         0         0         0         0
         0         0         0         0         0         0         0         0
         0         0         0         0         0         0         0         0
         0         0         0         0         0         0         0         0
         0         0         0         0         0         0         0         0
         0         0         0         0         0         0         0         0
         0         0         0         0         0         0         0         0
         0         0         0         0         0         0         0         0
         0         0         0         0         0         0         0         0
         0         0         0         0         0         0         0         0
         0         0         0         0         0         0         0         0
         0         0         0         0         0         0         0         0
         0         0         0         0         0         0         0         0
         0         0         0         0         0         0         0         0
         0         0         0         0         0         0         0         0
         0         0         0         0         0         0         0         0
         0         0         0         0         0         0         0         0
         0         0         0         0         0         0         0         0
         0         0         0         0         0         0         0         0
         0         0         0         0         0         0         0         0
         0         0         0         0         0         0         0         0
         0         0         0         0         0         0         0         0
         0         0         0         0         0         0         0         0
         0         0         0         0         0         0         0         0
         0         0         0         0         0         0         0         0
         0         0         0         0         0         0         0         0
         0         0         0         0         0         0         0         0
         0         0         0         0         0         0         0         0
         0         0         0         0         0         0         0         0
         0         0         0         0         0         0         0         0
         0         0         0         0         0         0         0         0
         0         0         0         0         0         0         0         0
         0         0         0         0         0         0         0         0
         0         0         0         0         0         0         0         0
         0         0         0         0         0         0         0         0
         0         0         0         0         0         0         0         0
         0         0         0         0         0         0         0         0
         0         0         0         0         0         0         0         0
         0         0         0         0         0         0         0         0
         0         0         0         0         0         0         0         0
         0         0         0         0         0         0         0         0
         0         0         0         0         0         0         0         0
         0         0         0         0         0         0         0         0
         0         0         0         0         0         0         0         0
         0         0         0         0         0         0         0         0
         0         0         0         0         0         0         0         0
         0         0         0         0         0         0         0         0
         0         0         0         0         0         0         0         0
         0         0         0         0         0         0         0         0
         0         0         0         0         0         0         0         0
         0         0         0         0         0         0         0         0
         0         0         0         0         0         0         0         0
         0         0         0         0         0         0         0         0
         0         0         0         0         0         0         0         0
         0         0         0         0         0         0         0         0
         0         0         0         0         0         0         0         0
         0         0         0         0         0         0         0         0
         0         0         0         0         0         0         0         0
         0         0         0         0         0         0         0         0
         0         0         0         0         0         0         0         0
         0         0         0         0         0         0         0         0
         0         0         0         0         0         0         0         0
         0         0         0         0         0         0         0         0
         0         0         0         0         0         0         0         0
         0         0         0         0         0         0         0         0
         0         0         0         0         0         0         0         0
         0         0         0         0         0         0         0         0
         0         0         0         0         0         0         0         0
         0         0         0         0         0         0         0         0
         0         0         0         0         0         0         0         0
         0         0         0         0         0         0         0         0
         0         0         0         0         0         0         0         0
         0         0         0         0         0         0         0         0
         0         0         0         0         0         0         0         0
         0         0         0         0         0         0         0         0
         0         0         0         0         0         0         0         0
         0         0         0         0         0         0         0         0
         0         0         0         0         0         0         0         0
         0         0         0         0         0         0         0         0
         0         0         0         0         0         0         0         0
         0         0         0         0         0         0         0         0
         0         0         0         0         0         0         0         0
         0         0         0         0         0         0         0         0
         0         0         0         0         0         0         0         0
         0         0         0         0         0         0         0         0
         0         0         0         0         0         0         0         0
         0         0         0         0         0         0         0         0
         0         0         0         0         0         0         0         0
         0         0         0         0         0         0         0         0
         0         0         0         0         0         0         0         0
         0         0         0         0         0         0         0         0
         0         0         0         0         0         0         0         0
         0         0         0         0         0         0         0         0
         0         0         0         0         0         0         0         0
         0         0         0         0         0         0         0         0
         0         0         0         0         0         0         0         0
         0         0         0         0         0         0         0         0
         0         0         0         0         0         0         0         0
         0         0         0         0         0         0         0         0
         0         0         0         0         0         0         0         0
         0         0         0         0         0         0         0         0
         0         0         0         0         0         0         0         0
         0         0         0         0         0         0         0         0
         0         0         0         0         0         0         0         0
         0         0         0         0         0         0         0         0
         0         0         0         0         0         0         0         0
         0         0         0         0         0         0         0         0
         0         0         0         0         0         0         0         0
         0         0         0         0         0         0         0         0
         0         0         0         0         0         0         0         0
         0         0         0         0         0         0         0         0
         0         0         0         0         0         0         0         0
         0         0         0         0         0         0         0         0
         0         0         0         0         0         0         0         0
         0         0         0         0         0         0         0         0
         0         0         0         0         0         0         0         0
         0         0         0         0         0         0         0         0
         0         0         0         0         0         0         0         0
         0         0         0         0         0         0         0         0
         0         0         0         0         0         0         0         0
         0         0         0         0         0         0         0         0
         0         0         0         0         0         0         0         0
         0         0         0         0         0         0         0         0
         0         0         0         0         0         0         0         0
         0         0         0         0         0         0         0         0
         0         0         0         0         0         0         0         0
         0         0         0         0         0         0         0         0
         0         0         0         0         0         0         0         0
         0         0         0         0         0         0         0         0
         0         0         0         0         0         0         0         0
         0         0         0         0         0         0         0         0
         0         0         0         0         0         0         0         0
         0         0         0         0         0         0         0         0
         0         0         0         0         0         0         0         0
         0         0         0         0         0         0         0         0
         0         0         0         0         0         0         0         0
         0         0         0         0         0         0         0         0
         0         0         0         0         0         0         0         0
         0         0         0         0         0         0         0         0
         0         0         0         0         0         0         0         0
         0         0         0         0         0         0         0         0
         0         0         0         0         0         0         0         0
         0         0         0         0         0         0         0         0
         0         0         0         0         0         0         0         0
         0         0         0         0         0         0         0         0
         0         0         0         0         0         0         0         0
         0         0         0         0         0         0         0         0
         0         0         0         0         0         0         0         0
         0         0         0         0         0         0         0         0
         0         0         0         0         0         0         0         0
         0         0         0         0         0         0         0         0
         0         0         0         0         0         0         0         0
         0         0         0         0         0         0         0         0
         0         0         0         0         0         0         0         0
         0         0         0         0         0         0         0         0
         0         0         0         0         0         0         0         0
         0         0         0         0         0         0         0         0
         0         0         0         0         0         0         0         0
         0         0         0         0         0         0         0         0
         0         0         0         0         0         0         0         0
         0         0         0         0         0         0         0         0
         0         0         0         0         0         0         0         0
         0         0         0         0         0         0         0         0
         0         0         0         0         0         0         0         0
         0         0         0         0         0         0         0         0
         0         0         0         0         0         0         0         0
         0         0         0         0         0         0         0         0
         0         0         0         0         0         0         0         0
         0         0         0         0         0         0         0         0
         0         0         0         0         0         0         0         0
         0         0         0         0         0         0         0         0
         0         0         0         0         0         0         0         0
         0         0         0         0         0         0         0         0
         0         0         0         0         0         0         0         0
         0         0         0         0         0         0         0         0
         0         0         0         0         0         0         0         0
         0         0         0         0         0         0         0         0
         0         0         0         0         0         0         0         0
         0         0         0         0         0         0         0         0
         0         0         0         0         0         0         0         0
         0         0         0         0         0         0         0         0
         0         0         0         0         0         0         0         0
         0         0         0         0         0         0         0         0
         0         0         0         0         0         0         0         0
         0         0         0         0         0         0         0         0
         0         0         0         0         0         0         0         0
         0         0         0         0         0         0         0         0
         0         0         0         0         0         0         0         0
         0         0         0         0         0         0         0         0
         0         0         0         0         0         0         0         0
         0         0         0         0         0         0         0         0
         0         0         0         0         0         0         0         0
         0         0         0         0         0         0         0         0
         0         0         0         0         0         0         0         0
         0         0         0         0         0         0         0         0
         0         0         0         0         0         0         0         0
         0         0         0         0         0         0         0         0
         0         0         0         0         0         0         0         0
         0         0         0         0         0         0         0         0
         0         0         0         0         0         0         0         0
         0         0         0         0         0         0         0         0
         0         0         0         0         0         0         0         0
         0         0         0         0         0         0         0         0
         0         0         0         0         0         0         0         0
         0         0         0         0         0         0         0         0
         0         0         0         0         0         0         0         0
         0         0         0         0         0         0         0         0
         0         0         0         0         0         0         0         0
         0         0         0         0         0         0         0         0
         0         0         0         0         0         0         0         0
         0         0         0         0         0         0         0         0
         0         0         0         0         0         0         0         0
         0         0         0         0         0         0         0         0
         0         0         0         0         0         0         0         0
         0         0         0         0         0         0         0         0
         0         0         0         0         0         0         0         0
         0         0         0         0         0         0         0         0
         0         0         0         0         0         0         0         0
         0         0         0         0         0         0         0         0
         0         0         0         0         0         0         0         0
         0         0         0         0         0         0         0         0
         0         0         0         0         0         0         0         0
         0         0         0         0         0         0         0         0
         0         0         0         0         0         0         0         0
         0         0         0         0         0         0         0         0
         0         0         0         0         0         0         0         0
         0         0         0         0         0         0         0         0
         0         0         0         0         0         0         0         0
         0         0         0         0         0         0         0         0
         0         0         0         0         0         0         0         0
         0         0         0         0         0         0         0         0
         0         0         0         0         0         0         0         0
         0         0         0         0         0         0         0         0
         0         0         0         0         0         0         0         0
         0         0         0         0         0         0         0         0
         0         0         0         0         0         0         0         0
         0         0         0         0         0         0         0         0
         0         0         0         0         0         0         0         0
         0         0         0         0         0         0         0         0
         0         0         0         0         0         0         0         0
         0         0         0         0         0         0         0         0
         0         0         0         0         0         0         0         0
         0         0         0         0         0         0         0         0
         0         0         0         0         0         0         0         0
         0         0         0         0         0         0         0         0
         0         0         0         0         0         0         0         0
         0         0         0         0         0         0         0         0
         0         0         0         0         0         0         0         0
         0         0         0         0         0         0         0         0
         0         0         0         0         0         0         0         0
         0         0         0         0         0         0         0         0
         0         0         0         0         0         0         0         0
         0         0         0         0         0         0         0         0
         0         0         0         0         0         0         0         0
         0         0         0         0         0         0         0         0
         0         0         0         0         0         0         0         0
         0         0         0         0         0         0         0         0
         0         0         0         0         0         0         0         0
         0         0         0         0         0         0         0         0
         0         0         0         0         0         0         0         0
         0         0         0         0         0         0         0         0
         0         0         0         0         0         0         0         0
         0         0         0         0         0         0         0         0
         0         0         0         0         0         0         0         0
         0         0         0         0         0         0         0         0
         0         0         0         0         0         0         0         0
         0         0         0         0         0         0         0         0
         0         0         0         0         0         0         0         0
         0         0         0         0         0         0         0         0
         0         0         0         0         0         0         0         0
         0         0         0         0         0         0         0         0
         0         0         0         0         0         0         0         0
         0         0         0         0         0         0         0         0
         0         0         0         0         0         0         0         0
         0         0         0         0         0         0         0         0
         0         0         0         0         0         0         0         0
         0         0         0         0         0         0         0         0
         0         0         0         0         0         0         0         0
         0         0         0         0         0         0         0         0
         0         0         0         0         0         0         0         0
         0         0         0         0         0         0         0         0
         0         0         0         0         0         0         0         0
         0         0         0         0         0         0         0         0
         0         0         0         0         0         0         0         0
         0         0         0         0         0         0         0         0
         0         0         0         0         0         0         0         0
         0         0         0         0         0         0         0         0
         0         0         0         0         0         0         0         0
         0         0         0         0         0         0         0         0
         0         0         0         0         0         0         0         0
         0         0         0         0         0         0         0         0
         0         0         0         0         0         0         0         0
         0         0         0         0         0         0         0         0
         0         0         0         0         0         0         0         0
         0         0         0         0         0         0         0         0
         0         0         0         0         0         0         0         0
         0         0         0         0         0         0         0         0
         0         0         0         0         0         0         0         0
         0         0         0         0         0         0         0         0
         0         0         0         0         0         0         0         0
         0         0         0         0         0         0         0         0
         0         0         0         0         0         0         0         0
         0         0         0         0         0         0         0         0
         0         0         0         0         0         0         0         0
         0         0         0         0         0         0         0         0
         0         0         0         0         0         0         0         0
         0         0         0         0         0         0         0         0
         0         0         0         0         0         0         0         0
         0         0         0         0         0         0         0         0
         0         0         0         0         0         0         0         0
         0         0         0         0         0         0         0         0
         0         0         0         0         0         0         0         0
         0         0         0         0         0         0         0         0
         0         0         0         0         0         0         0         0
         0         0         0         0         0         0         0         0
         0         0         0         0         0         0         0         0
         0         0         0         0         0         0         0         0
         0         0         0         0         0         0         0         0
         0         0         0         0         0         0         0         0
         0         0         0         0         0         0         0         0
         0         0         0         0         0         0         0         0
         0         0         0         0         0         0         0         0
         0         0         0         0         0         0         0         0
         0         0         0         0         0         0         0         0
         0         0         0         0         0         0         0         0
         0         0         0         0         0         0         0         0
         0         0         0         0         0         0         0         0
         0         0         0         0         0         0         0         0
         0         0         0         0         0         0         0         0
         0         0         0         0         0         0         0         0
         0         0         0         0         0         0         0         0
         0         0         0         0         0         0         0         0
         0         0         0         0         0         0         0         0
         0         0         0         0         0         0         0         0
         0         0         0         0         0         0         0         0
         0         0         0         0         0         0         0         0
         0         0         0         0         0         0         0         0
         0         0         0         0         0         0         0         0
         0         0         0         0         0         0         0         0
         0         0         0         0         0         0         0         0
         0         0         0         0         0         0         0         0
         0         0         0         0         0         0         0         0
         0         0         0         0         0         0         0         0
         0         0         0         0         0         0         0         0
         0         0         0         0         0         0         0         0
         0         0         0         0         0         0         0         0
         0         0         0         0         0         0         0         0
         0         0         0         0         0         0         0         0
         0         0         0         0         0         0         0         0
         0         0         0         0         0         0         0         0
         0         0         0         0         0         0         0         0
         0         0         0         0         0         0         0         0
         0         0         0         0         0         0         0         0
         0         0         0         0         0         0         0         0
         0         0         0         0         0         0         0         0
         0         0         0         0         0         0         0         0
         0         0         0         0         0         0         0         0
         0         0         0         0         0         0         0         0
         0         0         0         0         0         0         0         0
         0         0         0         0         0         0         0         0
         0         0         0         0         0         0         0         0
         0         0         0         0         0         0         0         0
         0         0         0         0         0         0         0         0
         0         0         0         0         0         0         0         0
         0         0         0         0         0         0         0         0
         0         0         0         0         0         0         0         0
         0         0         0         0         0         0         0         0
         0         0         0         0         0         0         0         0
         0         0         0         0         0         0         0         0
         0         0         0         0         0         0         0         0
         0         0         0         0         0         0         0         0
         0         0         0         0         0         0         0         0
         0         0         0         0         0         0         0         0
         0         0         0         0         0         0         0         0
         0         0         0         0         0         0         0         0
         0         0         0         0         0         0         0         0
         0         0         0         0         0         0         0         0
         0         0         0         0         0         0         0         0
         0         0         0         0         0         0         0         0
         0         0         0         0         0         0         0         0
         0         0         0         0         0         0         0         0
         0         0         0         0         0         0         0         0
         0         0         0         0         0         0         0         0
         0         0         0         0         0         0         0         0
         0         0         0         0         0         0         0         0
         0         0         0         0         0         0         0         0
         0         0         0         0         0         0         0         0
         0         0         0         0         0         0         0         0
         0         0         0         0         0         0         0         0
         0         0         0         0         0         0         0         0
         0         0         0         0         0         0         0         0
         0         0         0         0         0         0         0         0
         0         0         0         0         0         0         0         0
         0         0         0         0         0         0         0         0
         0         0         0         0         0         0         0         0
         0         0         0         0         0         0         0         0
         0         0         0         0         0         0         0         0
         0         0         0         0         0         0         0         0
         0         0         0         0         0         0         0         0
         0         0         0         0         0         0         0         0
         0         0         0         0         0         0         0         0
         0         0         0         0         0         0         0         0
         0         0         0         0         0         0         0         0
         0         0         0         0         0         0         0         0
         0         0         0         0         0         0         0         0
         0         0         0         0         0         0         0         0
         0         0         0         0         0         0         0         0
         0         0         0         0         0         0         0         0
         0         0         0         0         0         0         0         0
         0         0         0         0         0         0         0         0
         0         0         0         0         0         0         0         0
         0         0         0         0         0         0         0         0
         0         0         0         0         0         0         0         0
         0         0         0         0         0         0         0         0
         0         0         0         0         0         0         0         0
         0         0         0         0         0         0         0         0
         0         0         0         0         0         0         0         0
         0         0         0         0         0         0         0         0
         0         0         0         0         0         0         0         0
         0         0         0         0         0         0         0         0
         0         0         0         0         0         0         0         0
         0         0         0         0         0         0         0         0
         0         0         0         0         0         0         0         0
         0         0         0         0         0         0         0         0
         0         0         0         0         0         0         0         0
         0         0         0         0         0         0         0         0
         0         0         0         0         0         0         0         0
         0         0         0         0         0         0         0         0
         0         0         0         0         0         0         0         0
         0         0         0         0         0         0         0         0
         0         0         0         0         0         0         0         0
         0         0         0         0         0         0         0         0
         0         0         0         0         0         0         0         0
         0         0         0         0         0         0         0         0
         0         0         0         0         0         0         0         0
         0         0         0         0         0         0         0         0
         0         0         0         0         0         0         0         0
         0         0         0         0         0         0         0         0
         0         0         0         0         0         0         0         0
         0         0         0         0         0         0         0         0
         0         0         0         0         0         0         0         0
         0         0         0         0         0         0         0         0
         0         0         0         0         0         0         0         0
         0         0         0         0         0         0         0         0
         0         0         0         0         0         0         0         0
         0         0         0         0         0         0         0         0
         0         0         0         0         0         0         0         0
         0         0         0         0         0         0         0         0
         0         0         0         0         0         0         0         0
         0         0         0         0         0         0         0         0
         0         0         0         0         0         0         0         0
         0         0         0         0         0         0         0         0
         0         0         0         0         0         0         0         0
         0         0         0         0         0         0         0         0
         0         0         0         0         0         0         0         0
         0         0         0         0         0         0         0         0
         0         0         0         0         0         0         0         0
         0         0         0         0         0         0         0         0
         0         0         0         0         0         0         0         0
         0         0         0         0         0         0         0         0
         0         0         0         0         0         0         0         0
         0         0         0         0         0         0         0         0
         0         0         0         0         0         0         0         0
         0         0         0         0         0         0         0         0
         0         0         0         0         0         0         0         0
         0         0         0         0         0         0         0         0
         0         0         0         0         0         0         0         0
         0         0         0         0         0         0         0         0
         0         0         0         0         0         0         0         0
         0         0         0         0         0         0         0         0
         0         0         0         0         0         0         0         0
         0         0         0         0         0         0         0         0
         0         0         0         0         0         0         0         0
         0         0         0         0         0         0         0         0
         0         0         0         0         0         0         0         0
         0         0         0         0         0         0         0         0
         0         0         0         0         0         0         0         0
         0         0         0         0         0         0         0         0
         0         0         0         0         0         0         0         0
         0         0         0         0         0         0         0         0
         0         0         0         0         0         0         0         0
         0         0         0         0         0         0         0         0
         0         0         0         0         0         0         0         0
         0         0         0         0         0         0         0         0
         0         0         0         0         0         0         0         0
         0         0         0         0         0         0         0         0
         0         0         0         0         0         0         0         0
         0         0         0         0         0         0         0         0
         0         0         0         0         0         0         0         0
         0         0         0         0         0         0         0         0
         0         0         0         0         0         0         0         0
         0         0         0         0         0         0         0         0
         0         0         0         0         0         0         0         0
         0         0         0         0         0         0         0         0
         0         0         0         0         0         0         0         0
         0         0         0         0         0         0         0         0
         0         0         0         0         0         0         0         0
         0         0         0         0         0         0         0         0
         0         0         0         0         0         0         0         0
         0         0         0         0         0         0         0         0
         0         0         0         0         0         0         0         0
         0         0         0         0         0         0         0         0
         0         0         0         0         0         0         0         0
         0         0         0         0         0         0         0         0
         0         0         0         0         0         0         0         0
         0         0         0         0         0         0         0         0
         0         0         0         0         0         0         0         0
         0         0         0         0         0         0         0         0
         0         0         0         0         0         0         0         0
         0         0         0         0         0         0         0         0
         0         0         0         0         0         0         0         0
         0         0         0         0         0         0         0         0
         0         0         0         0         0         0         0         0
         0         0         0         0         0         0         0         0
         0         0         0         0         0         0         0         0
         0         0         0         0         0         0         0         0
         0         0         0         0         0         0         0         0
         0         0         0         0         0         0         0         0
         0         0         0         0         0         0         0         0
         0         0         0         0         0         0         0         0
         0         0         0         0         0         0         0         0
         0         0         0         0         0         0         0         0
         0         0         0         0         0         0         0         0
         0         0         0         0         0         0         0         0
         0         0         0         0         0         0         0         0
         0         0         0         0         0         0         0         0
         0         0         0         0         0         0         0         0
         0         0         0         0         0         0         0         0
         0         0         0         0         0         0         0         0
         0         0         0         0         0         0         0         0
         0         0         0         0         0         0         0         0
         0         0         0         0         0         0         0         0
         0         0         0         0         0         0         0         0
         0         0         0         0         0         0         0         0
         0         0         0         0         0         0         0         0
         0         0         0         0         0         0         0         0
         0         0         0         0         0         0         0         0
         0         0         0         0         0         0         0         0
         0         0         0         0         0         0         0         0
         0         0         0         0         0         0         0         0
         0         0         0         0         0         0         0         0
         0         0         0         0         0         0         0         0
         0         0         0         0         0         0         0         0
         0         0         0         0         0         0         0         0
         0         0         0         0         0         0         0         0
         0         0         0         0         0         0         0         0
         0         0         0         0         0         0         0         0
         0         0         0         0         0         0         0         0
         0         0         0         0         0         0         0         0
         0         0         0         0         0         0         0         0
         0         0         0         0         0         0         0         0
         0         0         0         0         0         0         0         0
         0         0         0         0         0         0         0         0
         0         0         0         0         0         0         0         0
         0         0         0         0         0         0         0         0
         0         0         0         0         0         0         0         0
         0         0         0         0         0         0         0         0
         0         0         0         0         0         0         0         0
         0         0         0         0         0         0         0         0
         0         0         0         0         0         0         0         0
         0         0         0         0         0         0         0         0
         0         0         0         0         0         0         0         0
         0         0         0         0         0         0         0         0
         0         0         0         0         0         0         0         0
         0         0         0         0         0         0         0         0
         0         0         0         0         0         0         0         0
         0         0         0         0         0         0         0         0
         0         0         0         0         0         0         0         0
         0         0         0         0         0         0         0         0
         0         0         0         0         0         0         0         0
         0         0         0         0         0         0         0         0
         0         0         0         0         0         0         0         0
         0         0         0         0         0         0         0         0
         0         0         0         0         0         0         0         0
         0         0         0         0         0         0         0         0
         0         0         0         0         0         0         0         0
         0         0         0         0         0         0         0         0
         0         0         0         0         0         0         0         0
         0         0         0         0         0         0         0         0
         0         0         0         0         0         0         0         0
         0         0         0         0         0         0         0         0
         0         0         0         0         0         0         0         0
         0         0         0         0         0         0         0         0
         0         0         0         0         0         0         0         0
         0         0         0         0         0         0         0         0
         0         0         0         0         0         0         0         0
         0         0         0         0         0         0         0         0
         0         0         0         0         0         0         0         0
         0         0         0         0         0         0         0         0
         0         0         0         0         0         0         0         0
         0         0         0         0         0         0         0         0
         0         0         0         0         0         0         0         0
         0         0         0         0         0         0         0         0
         0         0         0         0         0         0         0         0
         0         0         0         0         0         0         0         0
         0         0         0         0         0         0         0         0
         0         0         0         0         0         0         0         0
         0         0         0         0         0         0         0         0
         0         0         0         0         0         0         0         0
         0         0         0         0         0         0         0         0
         0         0         0         0         0         0         0         0
         0         0         0         0         0         0         0         0
         0         0         0         0         0         0         0         0
         0         0         0         0         0         0         0         0
         0         0         0         0         0         0         0         0
         0         0         0         0         0         0         0         0
         0         0         0         0         0         0         0         0
         0         0         0         0         0         0         0         0
         0         0         0         0         0         0         0         0
         0         0         0         0         0         0         0         0
         0         0         0         0         0         0         0         0
         0         0         0         0         0         0         0         0
         0         0         0         0         0         0         0         0
         0         0         0         0         0         0         0         0
         0         0         0         0         0         0         0         0
         0         0         0         0         0         0         0         0
         0         0         0         0         0         0         0         0
         0         0         0         0         0         0         0         0
         0         0         0         0         0         0         0         0
         0         0         0         0         0         0         0         0
         0         0         0         0         0         0         0         0
         0         0         0         0         0         0         0         0
         0         0         0         0         0         0         0         0
         0         0         0         0         0         0         0         0
         0         0         0         0         0         0         0         0
         0         0         0         0         0         0         0         0
         0         0         0         0         0         0         0         0
         0         0         0         0         0         0         0         0
         0         0         0         0         0         0         0         0
         0         0         0         0         0         0         0         0
         0         0         0         0         0         0         0         0
         0         0         0         0         0         0         0         0
         0         0         0         0         0         0         0         0
         0         0         0         0         0         0         0         0
         0         0         0         0         0         0         0         0
         0         0         0         0         0         0         0         0
         0         0         0         0         0         0         0         0
         0         0         0         0         0         0         0         0
         0         0         0         0         0         0         0         0
         0         0         0         0         0         0         0         0
         0         0         0         0         0         0         0         0
         0         0         0         0         0         0         0         0
         0         0         0         0         0         0         0         0
         0         0         0         0         0         0         0         0
         0         0         0         0         0         0         0         0
         0         0         0         0         0         0         0         0
         0         0         0         0         0         0         0         0
         0         0         0         0         0         0         0         0
         0         0         0         0         0         0         0         0
         0         0         0         0         0         0         0         0
         0         0         0         0         0         0         0         0
         0         0         0         0         0         0         0         0
         0         0         0         0         0         0         0         0
         0         0         0         0         0         0         0         0
         0         0         0         0         0         0         0         0
         0         0         0         0         0         0         0         0
         0         0         0         0         0         0         0         0
         0         0         0         0         0         0         0         0
         0         0         0         0         0         0         0         0
         0         0         0         0         0         0         0         0
         0         0         0         0         0         0         0         0
         0         0         0         0         0         0         0         0
         0         0         0         0         0         0         0         0
         0         0         0         0         0         0         0         0
         0         0         0         0         0         0         0         0
         0         0         0         0         0         0         0         0
         0         0         0         0         0         0         0         0
         0         0         0         0         0         0         0         0
         0         0         0         0         0         0         0         0
         0         0         0         0         0         0         0         0
         0         0         0         0         0         0         0         0
         0         0         0         0         0         0         0         0
         0         0         0         0         0         0         0         0
         0         0         0         0         0         0         0         0
         0         0         0         0         0         0         0         0
         0         0         0         0         0         0         0         0
         0         0         0         0         0         0         0         0
         0         0         0         0         0         0         0         0
         0         0         0         0         0         0         0         0
         0         0         0         0         0         0         0         0
         0         0         0         0         0         0         0         0
         0         0         0         0         0         0         0         0
         0         0         0         0         0         0         0         0
         0         0         0         0         0         0         0         0
         0         0         0         0         0         0         0         0
         0         0         0         0         0         0         0         0
         0         0         0         0         0         0         0         0
         0         0         0         0         0         0         0         0
         0         0         0         0         0         0         0         0
         0         0         0         0         0         0         0         0
         0         0         0         0         0         0         0         0
         0         0         0         0         0         0         0         0
         0         0         0         0         0         0         0         0
         0         0         0         0         0         0         0         0
         0         0         0         0         0         0         0         0
         0         0         0         0         0         0         0         0
         0         0         0         0         0         0         0         0
         0         0         0         0         0         0         0         0
         0         0         0         0         0         0         0         0
         0         0         0         0         0         0         0         0
         0         0         0         0         0         0         0         0
         0         0         0         0         0         0         0         0
         0         0         0         0         0         0         0         0
         0         0         0         0         0         0         0         0
         0         0         0         0         0         0         0         0
         0         0         0         0         0         0         0         0
         0         0         0         0         0         0         0         0
         0         0         0         0         0         0         0         0
         0         0         0         0         0         0         0         0
         0         0         0         0         0         0         0         0
         0         0         0         0         0         0         0         0
         0         0         0         0         0         0         0         0
         0         0         0         0         0         0         0         0
         0         0         0         0         0         0         0         0
         0         0         0         0         0         0         0         0
         0         0         0         0         0         0         0         0
         0         0         0         0         0         0         0         0
         0         0         0         0         0         0         0         0
         0         0         0         0         0         0         0         0
         0         0         0         0         0         0         0         0
         0         0         0         0         0         0         0         0
         0         0         0         0         0         0         0         0
         0         0         0         0         0         0         0         0
         0         0         0         0         0         0         0         0
         0         0         0         0         0         0         0         0
         0         0         0         0         0         0         0         0
         0         0         0         0         0         0         0         0
         0         0         0         0         0         0         0         0
         0         0         0         0         0         0         0         0
         0         0         0         0         0         0         0         0
         0         0         0         0         0         0         0         0
         0         0         0         0         0         0         0         0
         0         0         0         0         0         0         0         0
         0         0         0         0         0         0         0         0
         0         0         0         0         0         0         0         0
         0         0         0         0         0         0         0         0
         0         0         0         0         0         0         0         0
         0         0         0         0         0         0         0         0
         0         0         0         0         0         0         0         0
         0         0         0         0         0         0         0         0
         0         0         0         0         0         0         0         0
         0         0         0         0         0         0         0         0
         0         0         0         0         0         0         0         0
         0         0         0         0         0         0         0         0
         0         0         0         0         0         0         0         0
         0         0         0         0         0         0         0         0
         0         0         0         0         0         0         0         0
         0         0         0         0         0         0         0         0
         0         0         0         0         0         0         0         0
         0         0         0         0         0         0         0         0
         0         0         0         0         0         0         0         0
         0         0         0         0         0         0         0         0
         0         0         0         0         0         0         0         0
         0         0         0         0         0         0         0         0
         0         0         0         0         0         0         0         0
         0         0         0         0         0         0         0         0
         0         0         0         0         0         0         0         0
         0         0         0         0         0         0         0         0
         0         0         0         0         0         0         0         0
         0         0         0         0         0         0         0         0
         0         0         0         0         0         0         0         0
         0         0         0         0         0         0         0         0
         0         0         0         0         0         0         0         0
         0         0         0         0         0         0         0         0
         0         0         0         0         0         0         0         0
         0         0         0         0         0         0         0         0
         0         0         0         0         0         0         0         0
         0         0         0         0         0         0         0         0
         0         0         0         0         0         0         0         0
         0         0         0         0         0         0         0         0
         0         0         0         0         0         0         0         0
         0         0         0         0         0         0         0         0
         0         0         0         0         0         0         0         0
         0         0         0         0         0         0         0         0
         0         0         0         0         0         0         0         0
         0         0         0         0         0         0         0         0
         0         0         0         0         0         0         0         0
         0         0         0         0         0         0         0         0
         0         0         0         0         0         0         0         0
         0         0         0         0         0         0         0         0
         0         0         0         0         0         0         0         0
         0         0         0         0         0         0         0         0
         0         0         0         0         0         0         0         0
         0         0         0         0         0         0         0         0
         0         0         0         0         0         0         0         0
         0         0         0         0         0         0         0         0
         0         0         0         0         0         0         0         0
         0         0         0         0         0         0         0         0
         0         0         0         0         0         0         0         0
         0         0         0         0         0         0         0         0
         0         0         0         0         0         0         0         0
         0         0         0         0         0         0         0         0
         0         0         0         0         0         0         0         0
         0         0         0         0         0         0         0         0
         0         0         0         0         0         0         0         0
         0         0         0         0         0         0         0         0
         0         0         0         0         0         0         0         0
         0         0         0         0         0         0         0         0
         0         0         0         0         0         0         0         0
         0         0         0         0         0         0         0         0
         0         0         0         0         0         0         0         0
         0         0         0         0         0         0         0         0
         0         0         0         0         0         0         0         0
         0         0         0         0         0         0         0         0
         0         0         0         0         0         0         0         0
         0         0         0         0         0         0         0         0
         0         0         0         0         0         0         0         0
         0         0         0         0         0         0         0         0
         0         0         0         0         0         0         0         0
         0         0         0         0         0         0         0         0
         0         0         0         0         0         0         0         0
         0         0         0         0         0         0         0         0
         0         0         0         0         0         0         0         0
         0         0         0         0         0         0         0         0
         0         0         0         0         0         0         0         0
         0         0         0         0         0         0         0         0
         0         0         0         0         0         0         0         0
         0         0         0         0         0         0         0         0
         0         0         0         0         0         0         0         0
         0         0         0         0         0         0         0         0
         0         0         0         0         0         0         0         0
         0         0         0         0         0         0         0         0
         0         0         0         0         0         0         0         0
         0         0         0         0         0         0         0         0
         0         0         0         0         0         0         0         0
         0         0         0         0         0         0         0         0
         0         0         0         0         0         0         0         0
         0         0         0         0         0         0         0         0
         0         0         0         0         0         0         0         0
         0         0         0         0         0         0         0         0
         0         0         0         0         0         0         0         0
         0         0         0         0         0         0         0         0
         0         0         0         0         0         0         0         0
         0         0         0         0         0         0         0         0
         0         0         0         0         0         0         0         0
         0         0         0         0         0         0         0         0
         0         0         0         0         0         0         0         0
         0         0         0         0         0         0         0         0
         0         0         0         0         0         0         0         0
         0         0         0         0         0         0         0         0
         0         0         0         0         0         0         0         0
         0         0         0         0         0         0         0         0
         0         0         0         0         0         0         0         0
         0         0         0         0         0         0         0         0
         0         0         0         0         0         0         0         0
         0         0         0         0         0         0         0         0
         0         0         0         0         0         0         0         0
         0         0         0         0         0         0         0         0
         0         0         0         0         0         0         0         0
         0         0         0         0         0         0         0         0
         0         0         0         0         0         0         0         0
         0         0         0         0         0         0         0         0
         0         0         0         0         0         0         0         0
         0         0         0         0         0         0         0         0
         0         0         0         0         0         0         0         0
         0         0         0         0         0         0         0         0
         0         0         0         0         0         0         0         0
         0         0         0         0         0         0         0         0
         0         0         0         0         0         0         0         0
         0         0         0         0         0         0         0         0
         0         0         0         0         0         0         0         0
         0         0         0         0         0         0         0         0
         0         0         0         0         0         0         0         0
         0         0         0         0         0         0         0         0
         0         0         0         0         0         0         0         0
         0         0         0         0         0         0         0         0
         0         0         0         0         0         0         0         0
         0         0         0         0         0         0         0         0
         0         0         0         0         0         0         0         0
         0         0         0         0         0         0         0         0
         0         0         0         0         0         0         0         0
         0         0         0         0         0         0         0         0
         0         0         0         0         0         0         0         0
         0         0         0         0         0         0         0         0
         0         0         0         0         0         0         0         0
         0         0         0         0         0         0         0         0
         0         0         0         0         0         0         0         0
         0         0         0         0         0         0         0         0
         0         0         0         0         0         0         0         0
         0         0         0         0         0         0         0         0
         0         0         0         0         0         0         0         0
         0         0         0         0         0         0         0         0
         0         0         0         0         0         0         0         0
         0         0         0         0         0         0         0         0
         0         0         0         0         0         0         0         0
         0         0         0         0         0         0         0         0
         0         0         0         0         0         0         0         0
         0         0         0         0         0         0         0         0
         0         0         0         0         0         0         0         0
         0         0         0         0         0         0         0         0
         0         0         0         0         0         0         0         0
         0         0         0         0         0         0         0         0
         0         0         0         0         0         0         0         0
         0         0         0         0         0         0         0         0
         0         0         0         0         0         0         0         0
         0         0         0         0         0         0         0         0
         0         0         0         0         0         0         0         0
         0         0         0         0         0         0         0         0
         0         0         0         0         0         0         0         0
         0         0         0         0         0         0         0         0
         0         0         0         0         0         0         0         0
         0         0         0         0         0         0         0         0
         0         0         0         0         0         0         0         0
         0         0         0         0         0         0         0         0
         0         0         0         0         0         0         0         0
         0         0         0         0         0         0         0         0
         0         0         0         0         0         0         0         0
         0         0         0         0         0         0         0         0
         0         0         0         0         0         0         0         0
         0         0         0         0         0         0         0         0
         0         0         0         0         0         0         0         0
         0         0         0         0         0         0         0         0
         0         0         0         0         0         0         0         0
         0         0         0         0         0         0         0         0
         0         0         0         0         0         0         0         0
         0         0         0         0         0         0         0         0
         0         0         0         0         0         0         0         0
         0         0         0         0         0         0         0         0
         0         0         0         0         0         0         0         0
         0         0         0         0         0         0         0         0
         0         0         0         0         0         0         0         0
         0         0         0         0         0         0         0         0
         0         0         0         0         0         0         0         0
         0         0         0         0         0         0         0         0
         0         0         0         0         0         0         0         0
         0         0         0         0         0         0         0         0
         0         0         0         0         0         0         0         0
         0         0         0         0         0         0         0         0
         0         0         0         0         0         0         0         0
         0         0         0         0         0         0         0         0
         0         0         0         0         0         0         0         0
         0         0         0         0         0         0         0         0
         0         0         0         0         0         0         0         0
         0         0         0         0         0         0         0         0
         0         0         0         0         0         0         0         0
         0         0         0         0         0         0         0         0
         0         0         0         0         0         0         0         0
         0         0         0         0         0         0         0         0
         0         0         0         0         0         0         0         0
         0         0         0         0         0         0         0         0
         0         0         0         0         0         0         0         0
         0         0         0         0         0         0         0         0
         0         0         0         0         0         0         0         0
         0         0         0         0         0         0         0         0
         0         0         0         0         0         0         0         0
         0         0         0         0         0         0         0         0
         0         0         0         0         0         0         0         0
         0         0         0         0         0         0         0         0
         0         0         0         0         0         0         0         0
         0         0         0         0         0         0         0         0
         0         0         0         0         0         0         0         0
         0         0         0         0         0         0         0         0
         0         0         0         0         0         0         0         0
         0         0         0         0         0         0         0         0
         0         0         0         0         0         0         0         0
         0         0         0         0         0         0         0         0
         0         0         0         0         0         0         0         0
         0         0         0         0         0         0         0         0
         0         0         0         0         0         0         0         0
         0         0         0         0         0         0         0         0
         0         0         0         0         0         0         0         0
         0         0         0         0         0         0         0         0
         0         0         0         0         0         0         0         0
         0         0         0         0         0         0         0         0
         0         0         0         0         0         0         0         0
         0         0         0         0         0         0         0         0
         0         0         0         0         0         0         0         0
         0         0         0         0         0         0         0         0
         0         0         0         0         0         0         0         0
         0         0         0         0         0         0         0         0
         0         0         0         0         0         0         0         0
         0         0         0         0         0         0         0         0
         0         0         0         0         0         0         0         0
         0         0         0         0         0         0         0         0
         0         0         0         0         0         0         0         0
         0         0         0         0         0         0         0         0
         0         0         0         0         0         0         0         0
         0         0         0         0         0         0         0         0
         0         0         0         0         0         0         0         0
         0         0         0         0         0         0         0         0
         0         0         0         0         0         0         0         0
         0         0         0         0         0         0         0         0
         0         0         0         0         0         0         0         0
         0         0         0         0         0         0         0         0
         0         0         0         0         0         0         0         0
         0         0         0         0         0         0         0         0
         0         0         0         0         0         0         0         0
         0         0         0         0         0         0         0         0
         0         0         0         0         0         0         0         0
         0         0         0         0         0         0         0         0
         0         0         0         0         0         0         0         0
         0         0         0         0         0         0         0         0
         0         0         0         0         0         0         0         0
         0         0         0         0         0         0         0         0
         0         0         0         0         0         0         0         0
         0         0         0         0         0         0         0         0
         0         0         0         0         0         0         0         0
         0         0         0         0         0         0         0         0
         0         0         0         0         0         0         0         0
         0         0         0         0         0         0         0         0
         0         0         0         0         0         0         0         0
         0         0         0         0         0         0         0         0
         0         0         0         0         0         0         0         0
         0         0         0         0         0         0         0         0
         0         0         0         0         0         0         0         0
         0         0         0         0         0         0         0         0
         0         0         0         0         0         0         0         0
         0         0         0         0         0         0         0         0
         0         0         0         0         0         0         0         0
         0         0         0         0         0         0         0         0
         0         0         0         0         0         0         0         0
         0         0         0         0         0         0         0         0
         0         0         0         0         0         0         0         0
         0         0         0         0         0         0         0         0
         0         0         0         0         0         0         0         0
         0         0         0         0         0         0         0         0
         0         0         0         0         0         0         0         0
         0         0         0         0         0         0         0         0
         0         0         0         0         0         0         0         0
         0         0         0         0         0         0         0         0
         0         0         0         0         0         0         0         0
         0         0         0         0         0         0         0         0
         0         0         0         0         0         0         0         0
         0         0         0         0         0         0         0         0
         0         0         0         0         0         0         0         0
         0         0         0         0         0         0         0         0
         0         0         0         0         0         0         0         0
         0         0         0         0         0         0         0         0
         0         0         0         0         0         0         0         0
         0         0         0         0         0         0         0         0
         0         0         0         0         0         0         0         0
         0         0         0         0         0         0         0         0
         0         0         0         0         0         0         0         0
         0         0         0         0         0         0         0         0
         0         0         0         0         0         0         0         0
         0         0         0         0         0         0         0         0
         0         0         0         0         0         0         0         0
         0         0         0         0         0         0         0         0
         0         0         0         0         0         0         0         0
         0         0         0         0         0         0         0         0
         0         0         0         0         0         0         0         0
         0         0         0         0         0         0         0         0
         0         0         0         0         0         0         0         0
         0         0         0         0         0         0         0         0
         0         0         0         0         0         0         0         0
         0         0         0         0         0         0         0         0
         0         0         0         0         0         0         0         0
         0         0         0         0         0         0         0         0
         0         0         0         0         0         0         0         0
         0         0         0         0         0         0         0         0
         0         0         0         0         0         0         0         0
         0         0         0         0         0         0         0         0
         0         0         0         0         0         0         0         0
         0         0         0         0         0         0         0         0
         0         0         0         0         0         0         0         0
         0         0         0         0         0         0         0         0
         0         0         0         0         0         0         0         0
         0         0         0         0         0         0         0         0
         0         0         0         0         0         0         0         0
         0         0         0         0         0         0         0         0
         0         0         0         0         0         0         0         0
         0         0         0         0         0         0         0         0
         0         0         0         0         0         0         0         0
         0         0         0         0         0         0         0         0
         0         0         0         0         0         0         0         0
         0         0         0         0         0         0         0         0
         0         0         0         0         0         0         0         0
         0         0         0         0         0         0         0         0
         0         0         0         0         0         0         0         0
         0         0         0         0         0         0         0         0
         0         0         0         0         0         0         0         0
         0         0         0         0         0         0         0         0
         0         0         0         0         0         0         0         0
         0         0         0         0         0         0         0         0
         0         0         0         0         0         0         0         0
         0         0         0         0         0         0         0         0
         0         0         0         0         0         0         0         0
         0         0         0         0         0         0         0         0
         0         0         0         0         0         0         0         0
         0         0         0         0         0         0         0         0
         0         0         0         0         0         0         0         0
         0         0         0         0         0         0         0         0
         0         0         0         0         0         0         0         0
         0         0         0         0         0         0         0         0
         0         0         0         0         0         0         0         0
         0         0         0         0         0         0         0         0
         0         0         0         0         0         0         0         0
         0         0         0         0         0         0         0         0
         0         0         0         0         0         0         0         0
         0         0         0         0         0         0         0         0
         0         0         0         0         0         0         0         0
         0         0         0         0         0         0         0         0
         0         0         0         0         0         0         0         0
         0         0         0         0         0         0         0         0
         0         0         0         0         0         0         0         0
         0         0         0         0         0         0         0         0
         0         0         0         0         0         0         0         0
         0         0         0         0         0         0         0         0
         0         0         0         0         0         0         0         0
         0         0         0         0         0         0         0         0
         0         0         0         0         0         0         0         0
         0         0         0         0         0         0         0         0
         0         0         0         0         0         0         0         0
         0         0         0         0         0         0         0         0
         0         0         0         0         0         0         0         0
         0         0         0         0         0         0         0         0
         0         0         0         0         0         0         0         0
         0         0         0         0         0         0         0         0
         0         0         0         0         0         0         0         0
         0         0         0         0         0         0         0         0
         0         0         0         0         0         0         0         0
         0         0         0         0         0         0         0         0
         0         0         0         0         0         0         0         0
         0         0         0         0         0         0         0         0
         0         0         0         0         0         0         0         0
         0         0         0         0         0         0         0         0
         0         0         0         0         0         0         0         0
         0         0         0         0         0         0         0         0
         0         0         0         0         0         0         0         0
         0         0         0         0         0         0         0         0
         0         0         0         0         0         0         0         0
         0         0         0         0         0         0         0         0
         0         0         0         0         0         0         0         0
         0         0         0         0         0         0         0         0
         0         0         0         0         0         0         0         0
         0         0         0         0         0         0         0         0
         0         0         0         0         0         0         0         0
         0         0         0         0         0         0         0         0
         0         0         0         0         0         0         0         0
         0         0         0         0         0         0         0         0
         0         0         0         0         0         0         0         0
         0         0         0         0         0         0         0         0
         0         0         0         0         0         0         0         0
         0         0         0         0         0         0         0         0
         0         0         0         0         0         0         0         0
         0         0         0         0         0         0         0         0
         0         0         0         0         0         0         0         0
         0         0         0         0         0         0         0         0
         0         0         0         0         0         0         0         0
         0         0         0         0         0         0         0         0
         0         0         0         0         0         0         0         0
         0         0         0         0         0         0         0         0
         0         0         0         0         0         0         0         0
         0         0         0         0         0         0         0         0
         0         0         0         0         0         0         0         0
         0         0         0         0         0         0         0         0
         0         0         0         0         0         0         0         0
         0         0         0         0         0         0         0         0
         0         0         0         0         0         0         0         0
         0         0         0         0         0         0         0         0
         0         0         0         0         0         0         0         0
         0         0         0         0         0         0         0         0
         0         0         0         0         0         0         0         0
         0         0         0         0         0         0         0         0
         0         0         0         0         0         0         0         0
         0         0         0         0         0         0         0         0
         0         0         0         0         0         0         0         0
         0         0         0         0         0         0         0         0
         0         0         0         0         0         0         0         0
         0         0         0         0         0         0         0         0
         0         0         0         0         0         0         0         0
         0         0         0         0         0         0         0         0
         0         0         0         0         0         0         0         0
         0         0         0         0         0         0         0         0
         0         0         0         0         0         0         0         0
         0         0         0         0         0         0         0         0
         0         0         0         0         0         0         0         0
         0         0         0         0         0         0         0         0
         0         0         0         0         0         0         0         0
         0         0         0         0         0         0         0         0
         0         0         0         0         0         0         0         0
         0         0         0         0         0         0         0         0
         0         0         0         0         0         0         0         0
         0         0         0         0         0         0         0         0
         0         0         0         0         0         0         0         0
         0         0         0         0         0         0         0         0
         0         0         0         0         0         0         0         0
         0         0         0         0         0         0         0         0
         0         0         0         0         0         0         0         0
         0         0         0         0         0         0         0         0
         0         0         0         0         0         0         0         0
         0         0         0         0         0         0         0         0
         0         0         0         0         0         0         0         0
         0         0         0         0         0         0         0         0
         0         0         0         0         0         0         0         0
         0         0         0         0         0         0         0         0
         0         0         0         0         0         0         0         0
         0         0         0         0         0         0         0         0
         0         0         0         0         0         0         0         0
         0         0         0         0         0         0         0         0
         0         0         0         0         0         0         0         0
         0         0         0         0         0         0         0         0
         0         0         0         0         0         0         0         0
         0         0         0         0         0         0         0         0
         0         0         0         0         0         0         0         0
         0         0         0         0         0         0         0         0
         0         0         0         0         0         0         0         0
         0         0         0         0         0         0         0         0
         0         0         0         0         0         0         0         0
         0         0         0         0         0         0         0         0
         0         0         0         0         0         0         0         0
         0         0         0         0         0         0         0         0
         0         0         0         0         0         0         0         0
         0         0         0         0         0         0         0         0
         0         0         0         0         0         0         0         0
         0         0         0         0         0         0         0         0
         0         0         0         0         0         0         0         0
         0         0         0         0         0         0         0         0
         0         0         0         0         0         0         0         0
         0         0         0         0         0         0         0         0
         0         0         0         0         0         0         0         0
         0         0         0         0         0         0         0         0
         0         0         0         0         0         0         0         0
         0         0         0         0         0         0         0         0
         0         0         0         0         0         0         0         0
         0         0         0         0         0         0         0         0
         0         0         0         0         0         0         0         0
         0         0         0         0         0         0         0         0
         0         0         0         0         0         0         0         0
         0         0         0         0         0         0         0         0
         0         0         0         0         0         0         0         0
         0         0         0         0         0         0         0         0
         0         0         0         0         0         0         0         0
         0         0         0         0         0         0         0         0
         0         0         0         0         0         0         0         0
         0         0         0         0         0         0         0         0
         0         0         0         0         0         0         0         0
         0         0         0         0         0         0         0         0
         0         0         0         0         0         0         0         0
         0         0         0         0         0         0         0         0
         0         0         0         0         0         0         0         0
         0         0         0         0         0         0         0         0
         0         0         0         0         0         0         0         0
         0         0         0         0         0         0         0         0
         0         0         0         0         0         0         0         0
         0         0         0         0         0         0         0         0
         0         0         0         0         0         0         0         0
         0         0         0         0         0         0         0         0
         0         0         0         0         0         0         0         0
         0         0         0         0         0         0         0         0
         0         0         0         0         0         0         0         0
         0         0         0         0         0         0         0         0
         0         0         0         0         0         0         0         0
         0         0         0         0         0         0         0         0
         0         0         0         0         0         0         0         0
         0         0         0         0         0         0         0         0
         0         0         0         0         0         0         0         0
         0         0         0         0         0         0         0         0
         0         0         0         0         0         0         0         0
         0         0         0         0         0         0         0         0
         0         0         0         0         0         0         0         0
         0         0         0         0         0         0         0         0
         0         0         0         0         0         0         0         0
         0         0         0         0         0         0         0         0
         0         0         0         0         0         0         0         0
         0         0         0         0         0         0         0         0
         0         0         0         0         0         0         0         0
         0         0         0         0         0         0         0         0
         0         0         0         0         0         0         0         0
         0         0         0         0         0         0         0         0
         0         0         0         0         0         0         0         0
         0         0         0         0         0         0         0         0
         0         0         0         0         0         0         0         0
         0         0         0         0         0         0         0         0
         0         0         0         0         0         0         0         0
         0         0         0         0         0         0         0         0
         0         0         0         0         0         0         0         0
         0         0         0         0         0         0         0         0
         0         0         0         0         0         0         0         0
         0         0         0         0         0         0         0         0
         0         0         0         0         0         0         0         0
         0         0         0         0         0         0         0         0
         0         0         0         0         0         0         0         0
         0         0         0         0         0         0         0         0
         0         0         0         0         0         0         0         0
         0         0         0         0         0         0         0         0
         0         0         0         0         0         0         0         0
         0         0         0         0         0         0         0         0
         0         0         0         0         0         0         0         0
         0         0         0         0         0         0         0         0
         0         0         0         0         0         0         0         0
         0         0         0         0         0         0         0         0
         0         0         0         0         0         0         0         0
         0         0         0         0         0         0         0         0
         0         0         0         0         0         0         0         0
         0         0         0         0         0         0         0         0
         0         0         0         0         0         0         0         0
         0         0         0         0         0         0         0         0
         0         0         0         0         0         0         0         0
         0         0         0         0         0         0         0         0
         0         0         0         0         0         0         0         0
         0         0         0         0         0         0         0         0
         0         0         0         0         0         0         0         0
         0         0         0         0         0         0         0         0
         0         0         0         0         0         0         0         0
         0         0         0         0         0         0         0         0
         0         0         0         0         0         0         0         0
         0         0         0         0         0         0         0         0
         0         0         0         0         0         0         0         0
         0         0         0         0         0         0         0         0
         0         0         0         0         0         0         0         0
         0         0         0         0         0         0         0         0
         0         0         0         0         0         0         0         0
         0         0         0         0         0         0         0         0
         0         0         0         0         0         0         0         0
         0         0         0         0         0         0         0         0
         0         0         0         0         0         0         0         0
         0         0         0         0         0         0         0         0
         0         0         0         0         0         0         0         0
         0         0         0         0         0         0         0         0
         0         0         0         0         0         0         0         0
         0         0         0         0         0         0         0         0
         0         0         0         0         0         0         0         0
         0         0         0         0         0         0         0         0
         0         0         0         0         0         0         0         0
         0         0         0         0         0         0         0         0
         0         0         0         0         0         0         0         0
         0         0         0         0         0         0         0         0
         0         0         0         0         0         0         0         0
         0         0         0         0         0         0         0         0
         0         0         0         0         0         0         0         0
         0         0         0         0         0         0         0         0
         0         0         0         0         0         0         0         0
         0         0         0         0         0         0         0         0
         0         0         0         0         0         0         0         0
         0         0         0         0         0         0         0         0
         0         0         0         0         0         0         0         0
         0         0         0         0         0         0         0         0
         0         0         0         0         0         0         0         0
         0         0         0         0         0         0         0         0
         0         0         0         0         0         0         0         0
         0         0         0         0         0         0         0         0
         0         0         0         0         0         0         0         0
         0         0         0         0         0         0         0         0
         0         0         0         0         0         0         0         0
         0         0         0         0         0         0         0         0
         0         0         0         0         0         0         0         0
         0         0         0         0         0         0         0         0
         0         0         0         0         0         0         0         0
         0         0         0         0         0         0         0         0
         0         0         0         0         0         0         0         0
         0         0         0         0         0         0         0         0
         0         0         0         0         0         0         0         0
         0         0         0         0         0         0         0         0
         0         0         0         0         0         0         0         0
         0         0         0         0         0         0         0         0
         0         0         0         0         0         0         0         0
         0         0         0         0         0         0         0         0
         0         0         0         0         0         0         0         0
         0         0         0         0         0         0         0         0
         0         0         0         0         0         0         0         0
         0         0         0         0         0         0         0         0
         0         0         0         0         0         0         0         0
         0         0         0         0         0         0         0         0
         0         0         0         0         0         0         0         0
         0         0         0         0         0         0         0         0
         0         0         0         0         0         0         0         0
         0         0         0         0         0         0         0         0
         0         0         0         0         0         0         0         0
         0         0         0         0         0         0         0         0
         0         0         0         0         0         0         0         0
         0         0         0         0         0         0         0         0
         0         0         0         0         0         0         0         0
         0         0         0         0         0         0         0         0
         0         0         0         0         0         0         0         0
         0         0         0         0         0         0         0         0
         0         0         0         0         0         0         0         0
         0         0         0         0         0         0         0         0
         0         0         0         0         0         0         0         0
         0         0         0         0         0         0         0         0
         0         0         0         0         0         0         0         0
         0         0         0         0         0         0         0         0
         0         0         0         0         0         0         0         0
         0         0         0         0         0         0         0         0
         0         0         0         0         0         0         0         0
         0         0         0         0         0         0         0         0
         0         0         0         0         0         0         0         0
         0         0         0         0         0         0         0         0
         0         0         0         0         0         0         0         0
         0         0         0         0         0         0         0         0
         0         0         0         0         0         0         0         0
         0         0         0         0         0         0         0         0
         0         0         0         0         0         0         0         0
         0         0         0         0         0         0         0         0
         0         0         0         0         0         0         0         0
         0         0         0         0         0         0         0         0
         0         0         0         0         0         0         0         0
         0         0         0         0         0         0         0         0
         0         0         0         0         0         0         0         0
         0         0         0         0         0         0         0         0
         0         0         0         0         0         0         0         0
         0         0         0         0         0         0         0         0
         0         0         0         0         0         0         0         0
         0         0         0         0         0         0         0         0
         0         0         0         0         0         0         0         0
         0         0         0         0         0         0         0         0
         0         0         0         0         0         0         0         0
         0         0         0         0         0         0         0         0
         0         0         0         0         0         0         0         0
         0         0         0         0         0         0         0         0
         0         0         0         0         0         0         0         0
         0         0         0         0         0         0         0         0
         0         0         0         0         0         0         0         0
         0         0         0         0         0         0         0         0
         0         0         0         0         0         0         0         0
         0         0         0         0         0         0         0         0
         0         0         0         0         0         0         0         0
         0         0         0         0         0         0         0         0
         0         0         0         0         0         0         0         0
         0         0         0         0         0         0         0         0
         0         0         0         0         0         0         0         0
         0         0         0         0         0         0         0         0
         0         0         0         0         0         0         0         0
         0         0         0         0         0         0         0         0
         0         0         0         0         0         0         0         0
         0         0         0         0         0         0         0         0
         0         0         0         0         0         0         0         0
         0         0         0         0         0         0         0         0
         0         0         0         0         0         0         0         0
         0         0         0         0         0         0         0         0
         0         0         0         0         0         0         0         0
         0         0         0         0         0         0         0         0
         0         0         0         0         0         0         0         0
         0         0         0         0         0         0         0         0
         0         0         0         0         0         0         0         0
         0         0         0         0         0         0         0         0
         0         0         0         0         0         0         0         0
         0         0         0         0         0         0         0         0
         0         0         0         0         0         0         0         0
         0         0         0         0         0         0         0         0
         0         0         0         0         0         0         0         0
         0         0         0         0         0         0         0         0
         0         0         0         0         0         0         0         0
         0         0         0         0         0         0         0         0
         0         0         0         0         0         0         0         0
         0         0         0         0         0         0         0         0
         0         0         0         0         0         0         0         0
         0         0         0         0         0         0         0         0
         0         0         0         0         0         0         0         0
         0         0         0         0         0         0         0         0
         0         0         0         0         0         0         0         0
         0         0         0         0         0         0         0         0
         0         0         0         0         0         0         0         0
         0         0         0         0         0         0         0         0
         0         0         0         0         0         0         0         0
         0         0         0         0         0         0         0         0
         0         0         0         0         0         0         0         0
         0         0         0         0         0         0         0         0
         0         0         0         0         0         0         0         0
         0         0         0         0         0         0         0         0
         0         0         0         0         0         0         0         0
         0         0         0         0         0         0         0         0
         0         0         0         0         0         0         0         0
         0         0         0         0         0         0         0         0
         0         0         0         0         0         0         0         0
         0         0         0         0         0         0         0         0
         0         0         0         0         0         0         0         0
         0         0         0         0         0         0         0         0
         0         0         0         0         0         0         0         0
         0         0         0         0         0         0         0         0
         0         0         0         0         0         0         0         0
         0         0         0         0         0         0         0         0
         0         0         0         0         0         0         0         0
         0         0         0         0         0         0         0         0
         0         0         0         0         0         0         0         0
         0         0         0         0         0         0         0         0
         0         0         0         0         0         0         0         0
         0         0         0         0         0         0         0         0
         0         0         0         0         0         0         0         0
         0         0         0         0         0         0         0         0
         0         0         0         0         0         0         0         0
         0         0         0         0         0         0         0         0
         0         0         0         0         0         0         0         0
         0         0         0         0         0         0         0         0
         0         0         0         0         0         0         0         0
         0         0         0         0         0         0         0         0
         0         0         0         0         0         0         0         0
         0         0         0         0         0         0         0         0
         0         0         0         0         0         0         0         0
         0         0         0         0         0         0         0         0
         0         0         0         0         0         0         0         0
         0         0         0         0         0         0         0         0
         0         0         0         0         0         0         0         0
         0         0         0         0         0         0         0         0
         0         0         0         0         0         0         0         0
         0         0         0         0         0         0         0         0
         0         0         0         0         0         0         0         0
         0         0         0         0         0         0         0         0
         0         0         0         0         0         0         0         0
         0         0         0         0         0         0         0         0
         0         0         0         0         0         0         0         0
         0         0         0         0         0         0         0         0
         0         0         0         0         0         0         0         0
         0         0         0         0         0         0         0         0
         0         0         0         0         0         0         0         0
         0         0         0         0         0         0         0         0
         0         0         0         0         0         0         0         0
         0         0         0         0         0         0         0         0
         0         0         0         0         0         0         0         0
         0         0         0         0         0         0         0         0
         0         0         0         0         0         0         0         0
         0         0         0         0         0         0         0         0
         0         0         0         0         0         0         0         0
         0         0         0         0         0         0         0         0
         0         0         0         0         0         0         0         0
         0         0         0         0         0         0         0         0
         0         0         0         0         0         0         0         0
         0         0         0         0         0         0         0         0
         0         0         0         0         0         0         0         0
         0         0         0         0         0         0         0         0
         0         0         0         0         0         0         0         0
         0         0         0         0         0         0         0         0
         0         0         0         0         0         0         0         0
         0         0         0         0         0         0         0         0
         0         0         0         0         0         0         0         0
         0         0         0         0         0         0         0         0
         0         0         0         0         0         0         0         0
         0         0         0         0         0         0         0         0
         0         0         0         0         0         0         0         0
         0         0         0         0         0         0         0         0
         0         0         0         0         0         0         0         0
         0         0         0         0         0         0         0         0
         0         0         0         0         0         0         0         0
         0         0         0         0         0         0         0         0
         0         0         0         0         0         0         0         0
         0         0         0         0         0         0         0         0
         0         0         0         0         0         0         0         0
         0         0         0         0         0         0         0         0
         0         0         0         0         0         0         0         0
         0         0         0         0         0         0         0         0
         0         0         0         0         0         0         0         0
         0         0         0         0         0         0         0         0
         0         0         0         0         0         0         0         0
         0         0         0         0         0         0         0         0
         0         0         0         0         0         0         0         0
         0         0         0         0         0         0         0         0
         0         0         0         0         0         0         0         0
         0         0         0         0         0         0         0         0
         0         0         0         0         0         0         0         0
         0         0         0         0         0         0         0         0
         0         0         0         0         0         0         0         0
         0         0         0         0         0         0         0         0
         0         0         0         0         0         0         0         0
         0         0         0         0         0         0         0         0
         0         0         0         0         0         0         0         0
         0         0         0         0         0         0         0         0
         0         0         0         0         0         0         0         0
         0         0         0         0         0         0         0         0
         0         0         0         0         0         0         0         0
         0         0         0         0         0         0         0         0
         0         0         0         0         0         0         0         0
         0         0         0         0         0         0         0         0
         0         0         0         0         0         0         0         0
         0         0         0         0         0         0         0         0
         0         0         0         0         0         0         0         0
         0         0         0         0         0         0         0         0
         0         0         0         0         0         0         0         0
         0         0         0         0         0         0         0         0
         0         0         0         0         0         0         0         0
         0         0         0         0         0         0         0         0
         0         0         0         0         0         0         0         0
         0         0         0         0         0         0         0         0
         0         0         0         0         0         0         0         0
         0         0         0         0         0         0         0         0
         0         0         0         0         0         0         0         0
         0         0         0         0         0         0         0         0
         0         0         0         0         0         0         0         0
         0         0         0         0         0         0         0         0
         0         0         0         0         0         0         0         0
         0         0         0         0         0         0         0         0
         0         0         0         0         0         0         0         0
         0         0         0         0         0         0         0         0
         0         0         0         0         0         0         0         0
         0         0         0         0         0         0         0         0
         0         0         0         0         0         0         0         0
         0         0         0         0         0         0         0         0
         0         0         0         0         0         0         0         0
         0         0         0         0         0         0         0         0
         0         0         0         0         0         0         0         0
         0         0         0         0         0         0         0         0
         0         0         0         0         0         0         0         0
         0         0         0         0         0         0         0         0
         0         0         0         0         0         0         0         0
         0         0         0         0         0         0         0         0
         0         0         0         0         0         0         0         0
         0         0         0         0         0         0         0         0
         0         0         0         0         0         0         0         0
         0         0         0         0         0         0         0         0
         0         0         0         0         0         0         0         0
         0         0         0         0         0         0         0         0
         0         0         0         0         0         0         0         0
         0         0         0         0         0         0         0         0
         0         0         0         0         0         0         0         0
         0         0         0         0         0         0         0         0
         0         0         0         0         0         0         0         0
         0         0         0         0         0         0         0         0
         0         0         0         0         0         0         0         0
         0         0         0         0         0         0         0         0
         0         0         0         0         0         0         0         0
         0         0         0         0         0         0         0         0
         0         0         0         0         0         0         0         0
         0         0         0         0         0         0         0         0
         0         0         0         0         0         0         0         0
         0         0         0         0         0         0         0         0
         0         0         0         0         0         0         0         0
         0         0         0         0         0         0         0         0
         0         0         0         0         0         0         0         0
         0         0         0         0         0         0         0         0
         0         0         0         0         0         0         0         0
         0         0         0         0         0         0         0         0
         0         0         0         0         0         0         0         0
         0         0         0         0         0         0         0         0
         0         0         0         0         0         0         0         0
         0         0         0         0         0         0         0         0
         0         0         0         0         0         0         0         0
         0         0         0         0         0         0         0         0
         0         0         0         0         0         0         0         0
         0         0         0         0         0         0         0         0
         0         0         0         0         0         0         0         0
         0         0         0         0         0         0         0         0
         0         0         0         0         0         0         0         0
         0         0         0         0         0         0         0         0
         0         0         0         0         0         0         0         0
         0         0         0         0         0         0         0         0
         0         0         0         0         0         0         0         0
         0         0         0         0         0         0         0         0
         0         0         0         0         0         0         0         0
         0         0         0         0         0         0         0         0
         0         0         0         0         0         0         0         0
         0         0         0         0         0         0         0         0
         0         0         0         0         0         0         0         0
         0         0         0         0         0         0         0         0
         0         0         0         0         0         0         0         0
         0         0         0         0         0         0         0         0
         0         0         0         0         0         0         0         0
         0         0         0         0         0         0         0         0
         0         0         0         0         0         0         0         0
         0         0         0         0         0         0         0         0
         0         0         0         0         0         0         0         0
         0         0         0         0         0         0         0         0
         0         0         0         0         0         0         0         0
         0         0         0         0         0         0         0         0
         0         0         0         0         0         0         0         0
         0         0         0         0         0         0         0         0
         0         0         0         0         0         0         0         0
         0         0         0         0         0         0         0         0
         0         0         0         0         0         0         0         0
         0         0         0         0         0         0         0         0
         0         0         0         0         0         0         0         0
         0         0         0         0         0         0         0         0
         0         0         0         0         0         0         0         0
         0         0         0         0         0         0         0         0
         0         0         0         0         0         0         0         0
         0         0         0         0         0         0         0         0
         0         0         0         0         0         0         0         0
         0         0         0         0         0         0         0         0
         0         0         0         0         0         0         0         0
         0         0         0         0         0         0         0         0
         0         0         0         0         0         0         0         0
         0         0         0         0         0         0         0         0
         0         0         0         0         0         0         0         0
         0         0         0         0         0         0         0         0
         0         0         0         0         0         0         0         0
         0         0         0         0         0         0         0         0
         0         0         0         0         0         0         0         0
         0         0         0         0         0         0         0         0
         0         0         0         0         0         0         0         0
         0         0         0         0         0         0         0         0
         0         0         0         0         0         0         0         0
         0         0         0         0         0         0         0         0
         0         0         0         0         0         0         0         0
         0         0         0         0         0         0         0         0
         0         0         0         0         0         0         0         0
         0         0         0         0         0         0         0         0
         0         0         0         0         0         0         0         0
         0         0         0         0         0         0         0         0
         0         0         0         0         0         0         0         0
         0         0         0         0         0         0         0         0
         0         0         0         0         0         0         0         0
         0         0         0         0         0         0         0         0
         0         0         0         0         0         0         0         0
         0         0         0         0         0         0         0         0
         0         0         0         0         0         0         0         0
         0         0         0         0         0         0         0         0
         0         0         0         0         0         0         0         0
         0         0         0         0         0         0         0         0
         0         0         0         0         0         0         0         0
         0         0         0         0         0         0         0         0
         0         0         0         0         0         0         0         0
         0         0         0         0         0         0         0         0
         0         0         0         0         0         0         0         0
         0         0         0         0         0         0         0         0
         0         0         0         0         0         0         0         0
         0         0         0         0         0         0         0         0
         0         0         0         0         0         0         0         0
         0         0         0         0         0         0         0         0
         0         0         0         0         0         0         0         0
         0         0         0         0         0         0         0         0
         0         0         0         0         0         0         0         0
         0         0         0         0         0         0         0         0
         0         0         0         0         0         0         0         0
         0         0         0         0         0         0         0         0
         0         0         0         0         0         0         0         0
         0         0         0         0         0         0         0         0
         0         0         0         0         0         0         0         0
         0         0         0         0         0         0         0         0
         0         0         0         0         0         0         0         0
         0         0         0         0         0         0         0         0
         0         0         0         0         0         0         0         0
         0         0         0         0         0         0         0         0
         0         0         0         0         0         0         0         0
         0         0         0         0         0         0         0         0
         0         0         0         0         0         0         0         0
         0         0         0         0         0         0         0         0
         0         0         0         0         0         0         0         0
         0         0         0         0         0         0         0         0
         0         0         0         0         0         0         0         0
         0         0         0         0         0         0         0         0
         0         0         0         0         0         0         0         0
         0         0         0         0         0         0         0         0
         0         0         0         0         0         0         0         0
         0         0         0         0         0         0         0         0
         0         0         0         0         0         0         0         0
         0         0         0         0         0         0         0         0
         0         0         0         0         0         0         0         0
         0         0         0         0         0         0         0         0
         0         0         0         0         0         0         0         0
         0         0         0         0         0         0         0         0
         0         0         0         0         0         0         0         0
         0         0         0         0         0         0         0         0
         0         0         0         0         0         0         0         0
         0         0         0         0         0         0         0         0
         0         0         0         0         0         0         0         0
         0         0         0         0         0         0         0         0
         0         0         0         0         0         0         0         0
         0         0         0         0         0         0         0         0
         0         0         0         0         0         0         0         0
         0         0         0         0         0         0         0         0
         0         0         0         0         0         0         0         0
         0         0         0         0         0         0         0         0
         0         0         0         0         0         0         0         0
         0         0         0         0         0         0         0         0
         0         0         0         0         0         0         0         0
         0         0         0         0         0         0         0         0
         0         0         0         0         0         0         0         0
         0         0         0         0         0         0         0         0
         0         0         0         0         0         0         0         0
         0         0         0         0         0         0         0         0
         0         0         0         0         0         0         0         0
         0         0         0         0         0         0         0         0
         0         0         0         0         0         0         0         0
         0         0         0         0         0         0         0         0
         0         0         0         0         0         0         0         0
         0         0         0         0         0         0         0         0
         0         0         0         0         0         0         0         0
         0         0         0         0         0         0         0         0
         0         0         0         0         0         0         0         0
         0         0         0         0         0         0         0         0
         0         0         0         0         0         0         0         0
         0         0         0         0         0         0         0         0
         0         0         0         0         0         0         0         0
         0         0         0         0         0         0         0         0
         0         0         0         0         0         0         0         0
         0         0         0         0         0         0         0         0
         0         0         0         0         0         0         0         0
         0         0         0         0         0         0         0         0
         0         0         0         0         0         0         0         0
         0         0         0         0         0         0         0         0
         0         0         0         0         0         0         0         0
         0         0         0         0         0         0         0         0
         0         0         0         0         0         0         0         0
         0         0         0         0         0         0         0         0
         0         0         0         0         0         0         0         0
         0         0         0         0         0         0         0         0
         0         0         0         0         0         0         0         0
         0         0         0         0         0         0         0         0
         0         0         0         0         0         0         0         0
         0         0         0         0         0         0         0         0
         0         0         0         0         0         0         0         0
         0         0         0         0         0         0         0         0
         0         0         0         0         0         0         0         0
         0         0         0         0         0         0         0         0
         0         0         0         0         0         0         0         0
         0         0         0         0         0         0         0         0
         0         0         0         0         0         0         0         0
         0         0         0         0         0         0         0         0
         0         0         0         0         0         0         0         0
         0         0         0         0         0         0         0         0
         0         0         0         0         0         0         0         0
         0         0         0         0         0         0         0         0
         0         0         0         0         0         0         0         0
         0         0         0         0         0         0         0         0
         0         0         0         0         0         0         0         0
         0         0         0         0         0         0         0         0
         0         0         0         0         0         0         0         0
         0         0         0         0         0         0         0         0
         0         0         0         0         0         0         0         0
         0         0         0         0         0         0         0         0
         0         0         0         0         0         0         0         0
         0         0         0         0         0         0         0         0
         0         0         0         0         0         0         0         0
         0         0         0         0         0         0         0         0
         0         0         0         0         0         0         0         0
         0         0         0         0         0         0         0         0
         0         0         0         0         0         0         0         0
         0         0         0         0         0         0         0         0
         0         0         0         0         0         0         0         0
         0         0         0         0         0         0         0         0
         0         0         0         0         0         0         0         0
         0         0         0         0         0         0         0         0
         0         0         0         0         0         0         0         0
         0         0         0         0         0         0         0         0
         0         0         0         0         0         0         0         0
         0         0         0         0         0         0         0         0
         0         0         0         0         0         0         0         0
         0         0         0         0         0         0         0         0
         0         0         0         0         0         0         0         0
         0         0         0         0         0         0         0         0
         0         0         0         0         0         0         0         0
         0         0         0         0         0         0         0         0
         0         0         0         0         0         0         0         0
         0         0         0         0         0         0         0         0
         0         0         0         0         0         0         0         0
         0         0         0         0         0         0         0         0
         0         0         0         0         0         0         0         0
         0         0         0         0         0         0         0         0
         0         0         0         0         0         0         0         0
         0         0         0         0         0         0         0         0
         0         0         0         0         0         0         0         0
         0         0         0         0         0         0         0         0
         0         0         0         0         0         0         0         0
         0         0         0         0         0         0         0         0
         0         0         0         0         0         0         0         0
         0         0         0         0         0         0         0         0
         0         0         0         0         0         0         0         0
         0         0         0         0         0         0         0         0
         0         0         0         0         0         0         0         0
         0         0         0         0         0         0         0         0
         0         0         0         0         0         0         0         0
         0         0         0         0         0         0         0         0
         0         0         0         0         0         0         0         0
         0         0         0         0         0         0         0         0
         0         0         0         0         0         0         0         0
         0         0         0         0         0         0         0         0
         0         0         0         0         0         0         0         0
         0         0         0         0         0         0         0         0
         0         0         0         0         0         0         0         0
         0         0         0         0         0         0         0         0
         0         0         0         0         0         0         0         0
         0         0         0         0         0         0         0         0
         0         0         0         0         0         0         0         0
         0         0         0         0         0         0         0         0
         0         0         0         0         0         0         0         0
         0         0         0         0         0         0         0         0
         0         0         0         0         0         0         0         0
         0         0         0         0         0         0         0         0
         0         0         0         0         0         0         0         0
         0         0         0         0         0         0         0         0
         0         0         0         0         0         0         0         0
         0         0         0         0         0         0         0         0
         0         0         0         0         0         0         0         0
         0         0         0         0         0         0         0         0
         0         0         0         0         0         0         0         0
         0         0         0         0         0         0         0         0
         0         0         0         0         0         0         0         0
         0         0         0         0         0         0         0         0
         0         0         0         0         0         0         0         0
         0         0         0         0         0         0         0         0
         0         0         0         0         0         0         0         0
         0         0         0         0         0         0         0         0
         0         0         0         0         0         0         0         0
         0         0         0         0         0         0         0         0
         0         0         0         0         0         0         0         0
         0         0         0         0         0         0         0         0
         0         0         0         0         0         0         0         0
         0         0         0         0         0         0         0         0
         0         0         0         0         0         0         0         0
         0         0         0         0         0         0         0         0
         0         0         0         0         0         0         0         0
         0         0         0         0         0         0         0         0
         0         0         0         0         0         0         0         0
         0         0         0         0         0         0         0         0
         0         0         0         0         0         0         0         0
         0         0         0         0         0         0         0         0
         0         0         0         0         0         0         0         0
         0         0         0         0         0         0         0         0
         0         0         0         0         0         0         0         0
         0         0         0         0         0         0         0         0
         0         0         0         0         0         0         0         0
         0         0         0         0         0         0         0         0
         0         0         0         0         0         0         0         0
         0         0         0         0         0         0         0         0
         0         0         0         0         0         0         0         0
         0         0         0         0         0         0         0         0
         0         0         0         0         0         0         0         0
         0         0         0         0         0         0         0         0
         0         0         0         0         0         0         0         0
         0         0         0         0         0         0         0         0
         0         0         0         0         0         0         0         0
         0         0         0         0         0         0         0         0
         0         0         0         0         0         0         0         0
         0         0         0         0         0         0         0         0
         0         0         0         0         0         0         0         0
         0         0         0         0         0         0         0         0
         0         0         0         0         0         0         0         0
         0         0         0         0         0         0         0         0
         0         0         0         0         0         0         0         0
         0         0         0         0         0         0         0         0
         0         0         0         0         0         0         0         0
         0         0         0         0         0         0         0         0
         0         0         0         0         0         0         0         0
         0         0         0         0         0         0         0         0
         0         0         0         0         0         0         0         0
         0         0         0         0         0         0         0         0
         0         0         0         0         0         0         0         0
         0         0         0         0         0         0         0         0
         0         0         0         0         0         0         0         0
         0         0         0         0         0         0         0         0
         0         0         0         0         0         0         0         0
         0         0         0         0         0         0         0         0
         0         0         0         0         0         0         0         0
         0         0         0         0         0         0         0         0
         0         0         0         0         0         0         0         0
         0         0         0         0         0         0         0         0
         0         0         0         0         0         0         0         0
         0         0         0         0         0         0         0         0
         0         0         0         0         0         0         0         0
         0         0         0         0         0         0         0         0
         0         0         0         0         0         0         0         0
         0         0         0         0         0         0         0         0
         0         0         0         0         0         0         0         0
         0         0         0         0         0         0         0         0
         0         0         0         0         0         0         0         0
         0         0         0         0         0         0         0         0
         0         0         0         0         0         0         0         0
         0         0         0         0         0         0         0         0
         0         0         0         0         0         0         0         0
         0         0         0         0         0         0         0         0
         0         0         0         0         0         0         0         0
         0         0         0         0         0         0         0         0
         0         0         0         0         0         0         0         0
         0         0         0         0         0         0         0         0
         0         0         0         0         0         0         0         0
         0         0         0         0         0         0         0         0
         0         0         0         0         0         0         0         0
         0         0         0         0         0         0         0         0
         0         0         0         0         0         0         0         0
         0         0         0         0         0         0         0         0
         0         0         0         0         0         0         0         0
         0         0         0         0         0         0         0         0
         0         0         0         0         0         0         0         0
         0         0         0         0         0         0         0         0
         0         0         0         0         0         0         0         0
         0         0         0         0         0         0         0         0
         0         0         0         0         0         0         0         0
         0         0         0         0         0         0         0         0
         0         0         0         0         0         0         0         0
         0         0         0         0         0         0         0         0
         0         0         0         0         0         0         0         0
         0         0         0         0         0         0         0         0
         0         0         0         0         0         0         0         0
         0         0         0         0         0         0         0         0
         0         0         0         0         0         0         0         0
         0         0         0         0         0         0         0         0
         0         0         0         0         0         0         0         0
         0         0         0         0         0         0         0         0
         0         0         0         0         0         0         0         0
         0         0         0         0         0         0         0         0
         0         0         0         0         0         0         0         0
         0         0         0         0         0         0         0         0
         0         0         0         0         0         0         0         0
         0         0         0         0         0         0         0         0
         0         0         0         0         0         0         0         0
         0         0         0         0         0         0         0         0
         0         0         0         0         0         0         0         0
         0         0         0         0         0         0         0         0
         0         0         0         0         0         0         0         0
         0         0         0         0         0         0         0         0
         0         0         0         0         0         0         0         0
         0         0         0         0         0         0         0         0
         0         0         0         0         0         0         0         0
         0         0         0         0         0         0         0         0
         0         0         0         0         0         0         0         0
         0         0         0         0         0         0         0         0
         0         0         0         0         0         0         0         0
         0         0         0         0         0         0         0         0
         0         0         0         0         0         0         0         0
         0         0         0         0         0         0         0         0
         0         0         0         0         0         0         0         0
         0         0         0         0         0         0         0         0
         0         0         0         0         0         0         0         0
         0         0         0         0         0         0         0         0
         0         0         0         0         0         0         0         0
         0         0         0         0         0         0         0         0
         0         0         0         0         0         0         0         0
         0         0         0         0         0         0         0         0
         0         0         0         0         0         0         0         0
         0         0         0         0         0         0         0         0
         0         0         0         0         0         0         0         0
         0         0         0         0         0         0         0         0
         0         0         0         0         0         0         0         0
         0         0         0         0         0         0         0         0
         0         0         0         0         0         0         0         0
         0         0         0         0         0         0         0         0
         0         0         0         0         0         0         0         0
         0         0         0         0         0         0         0         0
         0         0         0         0         0         0         0         0
         0         0         0         0         0         0         0         0
         0         0         0         0         0         0         0         0
         0         0         0         0         0         0         0         0
         0         0         0         0         0         0         0         0
         0         0         0         0         0         0         0         0
         0         0         0         0         0         0         0         0
         0         0         0         0         0         0         0         0
         0         0         0         0         0         0         0         0
         0         0         0         0         0         0         0         0
         0         0         0         0         0         0         0         0
         0         0         0         0         0         0         0         0
         0         0         0         0         0         0         0         0
         0         0         0         0         0         0         0         0
         0         0         0         0         0         0         0         0
         0         0         0         0         0         0         0         0
         0         0         0         0         0         0         0         0
         0         0         0         0         0         0         0         0
         0         0         0         0         0         0         0         0
         0         0         0         0         0         0         0         0
         0         0         0         0         0         0         0         0
         0         0         0         0         0         0         0         0
         0         0         0         0         0         0         0         0
         0         0         0         0         0         0         0         0
         0         0         0         0         0         0         0         0
         0         0         0         0         0         0         0         0
         0         0         0         0         0         0         0         0
         0         0         0         0         0         0         0         0
         0         0         0         0         0         0         0         0
         0         0         0         0         0         0         0         0
         0         0         0         0         0         0         0         0
         0         0         0         0         0         0         0         0
         0         0         0         0         0         0         0         0
         0         0         0         0         0         0         0         0
         0         0         0         0         0         0         0         0
         0         0         0         0         0         0         0         0
         0         0         0         0         0         0         0         0
         0         0         0         0         0         0         0         0
         0         0         0         0         0         0         0         0
         0         0         0         0         0         0         0         0
         0         0         0         0         0         0         0         0
         0         0         0         0         0         0         0         0
         0         0         0         0         0         0         0         0
         0         0         0         0         0         0         0         0
         0         0         0         0         0         0         0         0
         0         0         0         0         0         0         0         0
         0         0         0         0         0         0         0         0
         0         0         0         0         0         0         0         0
         0         0         0         0         0         0         0         0
         0         0         0         0         0         0         0         0
         0         0         0         0         0         0         0         0
         0         0         0         0         0         0         0         0
         0         0         0         0         0         0         0         0
         0         0         0         0         0         0         0         0
         0         0         0         0         0         0         0         0
         0         0         0         0         0         0         0         0
         0         0         0         0         0         0         0         0
         0         0         0         0         0         0         0         0
         0         0         0         0         0         0         0         0
         0         0         0         0         0         0         0         0
         0         0         0         0         0         0         0         0
         0         0         0         0         0         0         0         0
         0         0         0         0         0         0         0         0
         0         0         0         0         0         0         0         0
         0         0         0         0         0         0         0         0
         0         0         0         0         0         0         0         0
         0         0         0         0         0         0         0         0
         0         0         0         0         0         0         0         0
         0         0         0         0         0         0         0         0
         0         0         0         0         0         0         0         0
         0         0         0         0         0         0         0         0
         0         0         0         0         0         0         0         0
         0         0         0         0         0         0         0         0
         0         0         0         0         0         0         0         0
         0         0         0         0         0         0         0         0
         0         0         0         0         0         0         0         0
         0         0         0         0         0         0         0         0
         0         0         0         0         0         0         0         0
         0         0         0         0         0         0         0         0
         0         0         0         0         0         0         0         0
         0         0         0         0         0         0         0         0
         0         0         0         0         0         0         0         0
         0         0         0         0         0         0         0         0
         0         0         0         0         0         0         0         0
         0         0         0         0         0         0         0         0
         0         0         0         0         0         0         0         0
         0         0         0         0         0         0         0         0
         0         0         0         0         0         0         0         0
         0         0         0         0         0         0         0         0
         0         0         0         0         0         0         0         0
         0         0         0         0         0         0         0         0
         0         0         0         0         0         0         0         0
         0         0         0         0         0         0         0         0
         0         0         0         0         0         0         0         0
         0         0         0         0         0         0         0         0
         0         0         0         0         0         0         0         0
         0         0         0         0         0         0         0         0
         0         0         0         0         0         0         0         0
         0         0         0         0         0         0         0         0
         0         0         0         0         0         0         0         0
         0         0         0         0         0         0         0         0
         0         0         0         0         0         0         0         0
         0         0         0         0         0         0         0         0
         0         0         0         0         0         0         0         0
         0         0         0         0         0         0         0         0
         0         0         0         0         0         0         0         0
         0         0         0         0         0         0         0         0
         0         0         0         0         0         0         0         0
         0         0         0         0         0         0         0         0
         0         0         0         0         0         0         0         0
         0         0         0         0         0         0         0         0
         0         0         0         0         0         0         0         0
         0         0         0         0         0         0         0         0
         0         0         0         0         0         0         0         0
         0         0         0         0         0         0         0         0
         0         0         0         0         0         0         0         0
         0         0         0         0         0         0         0         0
         0         0         0         0         0         0         0         0
         0         0         0         0         0         0         0         0
         0         0         0         0         0         0         0         0
         0         0         0         0         0         0         0         0
         0         0         0         0         0         0         0         0
         0         0         0         0         0         0         0         0
         0         0         0         0         0         0         0         0
         0         0         0         0         0         0         0         0
         0         0         0         0         0         0         0         0
         0         0         0         0         0         0         0         0
         0         0         0         0         0         0         0         0
         0         0         0         0         0         0         0         0
         0         0         0         0         0         0         0         0
         0         0         0         0         0         0         0         0
         0         0         0         0         0         0         0         0
         0         0         0         0         0         0         0         0
         0         0         0         0         0         0         0         0
         0         0         0         0         0         0         0         0
         0         0         0         0         0         0         0         0
         0         0         0         0         0         0         0         0
         0         0         0         0         0         0         0         0
         0         0         0         0         0         0         0         0
         0         0         0         0         0         0         0         0
         0         0         0         0         0         0         0         0
         0         0         0         0         0         0         0         0
         0         0         0         0         0         0         0         0
         0         0         0         0         0         0         0         0
         0         0         0         0         0         0         0         0
         0         0         0         0         0         0         0         0
         0         0         0         0         0         0         0         0
         0         0         0         0         0         0         0         0
         0         0         0         0         0         0         0         0
         0         0         0         0         0         0         0         0
         0         0         0         0         0         0         0         0
         0         0         0         0         0         0         0         0
         0         0         0         0         0         0         0         0
         0         0         0         0         0         0         0         0
         0         0         0         0         0         0         0         0
         0         0         0         0         0         0         0         0
         0         0         0         0         0         0         0         0
         0         0         0         0         0         0         0         0
         0         0         0         0         0         0         0         0
         0         0         0         0         0         0         0         0
         0         0         0         0         0         0         0         0
         0         0         0         0         0         0         0         0
         0         0         0         0         0         0         0         0
         0         0         0         0         0         0         0         0
         0         0         0         0         0         0         0         0
         0         0         0         0         0         0         0         0
         0         0         0         0         0         0         0         0
         0         0         0         0         0         0         0         0
         0         0         0         0         0         0         0         0
         0         0         0         0         0         0         0         0
         0         0         0         0         0         0         0         0
         0         0         0         0         0         0         0         0
         0         0         0         0         0         0         0         0
         0         0         0         0         0         0         0         0
         0         0         0         0         0         0         0         0
         0         0         0         0         0         0         0         0
         0         0         0         0         0         0         0         0
         0         0         0         0         0         0         0         0
         0         0         0         0         0         0         0         0
         0         0         0         0         0         0         0         0
         0         0         0         0         0         0         0         0
         0         0         0         0         0         0         0         0
         0         0         0         0         0         0         0         0
         0         0         0         0         0         0         0         0
         0         0         0         0         0         0         0         0
         0         0         0         0         0         0         0         0
         0         0         0         0         0         0         0         0
         0         0         0         0         0         0         0         0
         0         0         0         0         0         0         0         0
         0         0         0         0         0         0         0         0
         0         0         0         0         0         0         0         0
         0         0         0         0         0         0         0         0
         0         0         0         0         0         0         0         0
         0         0         0         0         0         0         0         0
         0         0         0         0         0         0         0         0
         0         0         0         0         0         0         0         0
         0         0         0         0         0         0         0         0
         0         0         0         0         0         0         0         0
         0         0         0         0         0         0         0         0
         0         0         0         0         0         0         0         0
         0         0         0         0         0         0         0         0
         0         0         0         0         0         0         0         0
         0         0         0         0         0         0         0         0
         0         0         0         0         0         0         0         0
         0         0         0         0         0         0         0         0
         0         0         0         0         0         0         0         0
         0         0         0         0         0         0         0         0
         0         0         0         0         0         0         0         0
         0         0         0         0         0         0         0         0
         0         0         0         0         0         0         0         0
         0         0         0         0         0         0         0         0
         0         0         0         0         0         0         0         0
         0         0         0         0         0         0         0         0
         0         0         0         0         0         0         0         0
         0         0         0         0         0         0         0         0
         0         0         0         0         0         0         0         0
         0         0         0         0         0         0         0         0
         0         0         0         0         0         0         0         0
         0         0         0         0         0         0         0         0
         0         0         0         0         0         0         0         0
         0         0         0         0         0         0         0         0
         0         0         0         0         0         0         0         0
         0         0         0         0         0         0         0         0
         0         0         0         0         0         0         0         0
         0         0         0         0         0         0         0         0
         0         0         0         0         0         0         0         0
         0         0         0         0         0         0         0         0
         0         0         0         0         0         0         0         0
         0         0         0         0         0         0         0         0
         0         0         0         0         0         0         0         0
         0         0         0         0         0         0         0         0
         0         0         0         0         0         0         0         0
         0         0         0         0         0         0         0         0
         0         0         0         0         0         0         0         0
         0         0         0         0         0         0         0         0
         0         0         0         0         0         0         0         0
         0         0         0         0         0         0         0         0
         0         0         0         0         0         0         0         0
         0         0         0         0         0         0         0         0
         0         0         0         0         0         0         0         0
         0         0         0         0         0         0         0         0
         0         0         0         0         0         0         0         0
         0         0         0         0         0         0         0         0
         0         0         0         0         0         0         0         0
         0         0         0         0         0         0         0         0
         0         0         0         0         0         0         0         0
         0         0         0         0         0         0         0         0
         0         0         0         0         0         0         0         0
         0         0         0         0         0         0         0         0
         0         0         0         0         0         0         0         0
         0         0         0         0         0         0         0         0
         0         0         0         0         0         0         0         0
         0         0         0         0         0         0         0         0
         0         0         0         0         0         0         0         0
         0         0         0         0         0         0         0         0
         0         0         0         0         0         0         0         0
         0         0         0         0         0         0         0         0
         0         0         0         0         0         0         0         0
         0         0         0         0         0         0         0         0
         0         0         0         0         0         0         0         0
         0         0         0         0         0         0         0         0
         0         0         0         0         0         0         0         0
         0         0         0         0         0         0         0         0
         0         0         0         0         0         0         0         0
         0         0         0         0         0         0         0         0
         0         0         0         0         0         0         0         0
         0         0         0         0         0         0         0         0
         0         0         0         0         0         0         0         0
         0         0         0         0         0         0         0         0
         0         0         0         0         0         0         0         0
         0         0         0         0         0         0         0         0
         0         0         0         0         0         0         0         0
         0         0         0         0         0         0         0         0
         0         0         0         0         0         0         0         0
         0         0         0         0         0         0         0         0
         0         0         0         0         0         0         0         0
         0         0         0         0         0         0         0         0
         0         0         0         0         0         0         0         0
         0         0         0         0         0         0         0         0
         0         0         0         0         0         0         0         0
         0         0         0         0         0         0         0         0
         0         0         0         0         0         0         0         0
         0         0         0         0         0         0         0         0
         0         0         0         0         0         0         0         0
         0         0         0         0         0         0         0         0
         0         0         0         0         0         0         0         0
         0         0         0         0         0         0         0         0
         0         0         0         0         0         0         0         0
         0         0         0         0         0         0         0         0
         0         0         0         0         0         0         0         0
         0         0         0         0         0         0         0         0
         0         0         0         0         0         0         0         0
         0         0         0         0         0         0         0         0
         0         0         0         0         0         0         0         0
         0         0         0         0         0         0         0         0
         0         0         0         0         0         0         0         0
         0         0         0         0         0         0         0         0
         0         0         0         0         0         0         0         0
         0         0         0         0         0         0         0         0
         0         0         0         0         0         0         0         0
         0         0         0         0         0         0         0         0
         0         0         0         0         0         0         0         0
         0         0         0         0         0         0         0         0
         0         0         0         0         0         0         0         0
         0         0         0         0         0         0         0         0
         0         0         0         0         0         0         0         0
         0         0         0         0         0         0         0         0
         0         0         0         0         0         0         0         0
         0         0         0         0         0         0         0         0
         0         0         0         0         0         0         0         0
         0         0         0         0         0         0         0         0
         0         0         0         0         0         0         0         0
         0         0         0         0         0         0         0         0
         0         0         0         0         0         0         0         0
         0         0         0         0         0         0         0         0
         0         0         0         0         0         0         0         0
         0         0         0         0         0         0         0         0
         0         0         0         0         0         0         0         0
         0         0         0         0         0         0         0         0
         0         0         0         0         0         0         0         0
         0         0         0         0         0         0         0         0
         0         0         0         0         0         0         0         0
         0         0         0         0         0         0         0         0
         0         0         0         0         0         0         0         0
         0         0         0         0         0         0         0         0
         0         0         0         0         0         0         0         0
         0         0         0         0         0         0         0         0
         0         0         0         0         0         0         0         0
         0         0         0         0         0         0         0         0
         0         0         0         0         0         0         0         0
         0         0         0         0         0         0         0         0
         0         0         0         0         0         0         0         0
         0         0         0         0         0         0         0         0
         0         0         0         0         0         0         0         0
         0         0         0         0         0         0         0         0
         0         0         0         0         0         0         0         0
         0         0         0         0         0         0         0         0
         0         0         0         0         0         0         0         0
         0         0         0         0         0         0         0         0
         0         0         0         0         0         0         0         0
         0         0         0         0         0         0         0         0
         0         0         0         0         0         0         0         0
         0         0         0         0         0         0         0         0
         0         0         0         0         0         0         0         0
         0         0         0         0         0         0         0         0
         0         0         0         0         0         0         0         0
         0         0         0         0         0         0         0         0
         0         0         0         0         0         0         0         0
         0         0         0         0         0         0         0         0
         0         0         0         0         0         0         0         0
         0         0         0         0         0         0         0         0
         0         0         0         0         0         0         0         0
         0         0         0         0         0         0         0         0
         0         0         0         0         0         0         0         0
         0         0         0         0         0         0         0         0
         0         0         0         0         0         0         0         0
         0         0         0         0         0         0         0         0
         0         0         0         0         0         0         0         0
         0         0         0         0         0         0         0         0
         0         0         0         0         0         0         0         0
         0         0         0         0         0         0         0         0
         0         0         0         0         0         0         0         0
         0         0         0         0         0         0         0         0
         0         0         0         0         0         0         0         0
         0         0         0         0         0         0         0         0
         0         0         0         0         0         0         0         0
         0         0         0         0         0         0         0         0
         0         0         0         0         0         0         0         0
         0         0         0         0         0         0         0         0
         0         0         0         0         0         0         0         0
         0         0         0         0         0         0         0         0
         0         0         0         0         0         0         0         0
         0         0         0         0         0         0         0         0
         0         0         0         0         0         0         0         0
         0         0         0         0         0         0         0         0
         0         0         0         0         0         0         0         0
         0         0         0         0         0         0         0         0
         0         0         0         0         0         0         0         0
         0         0         0         0         0         0         0         0
         0         0         0         0         0         0         0         0
         0         0         0         0         0         0         0         0
         0         0         0         0         0         0         0         0
         0         0         0         0         0         0         0         0
         0         0         0         0         0         0         0         0
         0         0         0         0         0         0         0         0
         0         0         0         0         0         0         0         0
         0         0         0         0         0         0         0         0
         0         0         0         0         0         0         0         0
         0         0         0         0         0         0         0         0
         0         0         0         0         0         0         0         0
         0         0         0         0         0         0         0         0
         0         0         0         0         0         0         0         0
         0         0         0         0         0         0         0         0
         0         0         0         0         0         0         0         0
         0         0         0         0         0         0         0         0
         0         0         0         0         0         0         0         0
         0         0         0         0         0         0         0         0
         0         0         0         0         0         0         0         0
         0         0         0         0         0         0         0         0
         0         0         0         0         0         0         0         0
         0         0         0         0         0         0         0         0
         0         0         0         0         0         0         0         0
         0         0         0         0         0         0         0         0
         0         0         0         0         0         0         0         0
         0         0         0         0         0         0         0         0
         0         0         0         0         0         0         0         0
         0         0         0         0         0         0         0         0
         0         0         0         0         0         0         0         0
         0         0         0         0         0         0         0         0
         0         0         0         0         0         0         0         0
         0         0         0         0         0         0         0         0
         0         0         0         0         0         0         0         0
         0         0         0         0         0         0         0         0
         0         0         0         0         0         0         0         0
         0         0         0         0         0         0         0         0
         0         0         0         0         0         0         0         0
         0         0         0         0         0         0         0         0
         0         0         0         0         0         0         0         0
         0         0         0         0         0         0         0         0
         0         0         0         0         0         0         0         0
         0         0         0         0         0         0         0         0
         0         0         0         0         0         0         0         0
         0         0         0         0         0         0         0         0
         0         0         0         0         0         0         0         0
         0         0         0         0         0         0         0         0
         0         0         0         0         0         0         0         0
         0         0         0         0         0         0         0         0
         0         0         0         0         0         0         0         0
         0         0         0         0         0         0         0         0
         0         0         0         0         0         0         0         0
         0         0         0         0         0         0         0         0
         0         0         0         0         0         0         0         0
         0         0         0         0         0         0         0         0
         0         0         0         0         0         0         0         0
         0         0         0         0         0         0         0         0
         0         0         0         0         0         0         0         0
         0         0         0         0         0         0         0         0
         0         0         0         0         0         0         0         0
         0         0         0         0         0         0         0         0
         0         0         0         0         0         0         0         0
         0         0         0         0         0         0         0         0
         0         0         0         0         0         0         0         0
         0         0         0         0         0         0         0         0
         0         0         0         0         0         0         0         0
         0         0         0         0         0         0         0         0
         0         0         0         0         0         0         0         0
         0         0         0         0         0         0         0         0
         0         0         0         0         0         0         0         0
         0         0         0         0         0         0         0         0
         0         0         0         0         0         0         0         0
         0         0         0         0         0         0         0         0
         0         0         0         0         0         0         0         0
         0         0         0         0         0         0         0         0
         0         0         0         0         0         0         0         0
         0         0         0         0         0         0         0         0
         0         0         0         0         0         0         0         0
         0         0         0         0         0         0         0         0
         0         0         0         0         0         0         0         0
         0         0         0         0         0         0         0         0
         0         0         0         0         0         0         0         0
         0         0         0         0         0         0         0         0
         0         0         0         0         0         0         0         0
         0         0         0         0         0         0         0         0
         0         0         0         0         0         0         0         0
         0         0         0         0         0         0         0         0
         0         0         0         0         0         0         0         0
         0         0         0         0         0         0         0         0
         0         0         0         0         0         0         0         0
         0         0         0         0         0         0         0         0
         0         0         0         0         0         0         0         0
         0         0         0         0         0         0         0         0
         0         0         0         0         0         0         0         0
         0         0         0         0         0         0         0         0
         0         0         0         0         0         0         0         0
         0         0         0         0         0         0         0         0
         0         0         0         0         0         0         0         0
         0         0         0         0         0         0         0         0
         0         0         0         0         0         0         0         0
         0         0         0         0         0         0         0         0
         0         0         0         0         0         0         0         0
         0         0         0         0         0         0         0         0
         0         0         0         0         0         0         0         0
         0         0         0         0         0         0         0         0
         0         0         0         0         0         0         0         0
         0         0         0         0         0         0         0         0
         0         0         0         0         0         0         0         0
         0         0         0         0         0         0         0         0
         0         0         0         0         0         0         0         0
         0         0         0         0         0         0         0         0
         0         0         0         0         0         0         0         0
         0         0         0         0         0         0         0         0
         0         0         0         0         0         0         0         0
         0         0         0         0         0         0         0         0
         0         0         0         0         0         0         0         0
         0         0         0         0         0         0         0         0
         0         0         0         0         0         0         0         0
         0         0         0         0         0         0         0         0
         0         0         0         0         0         0         0         0
         0         0         0         0         0         0         0         0
         0         0         0         0         0         0         0         0
         0         0         0         0         0         0         0         0
         0         0         0         0         0         0         0         0
         0         0         0         0         0         0         0         0
         0         0         0         0         0         0         0         0
         0         0         0         0         0         0         0         0
         0         0         0         0         0         0         0         0
         0         0         0         0         0         0         0         0
         0         0         0         0         0         0         0         0
         0         0         0         0         0         0         0         0
         0         0         0         0         0         0         0         0
         0         0         0         0         0         0         0         0
         0         0         0         0         0         0         0         0
         0         0         0         0         0         0         0         0
         0         0         0         0         0         0         0         0
         0         0         0         0         0         0         0         0
         0         0         0         0         0         0         0         0
         0         0         0         0         0         0         0         0
         0         0         0         0         0         0         0         0
         0         0         0         0         0         0         0         0
         0         0         0         0         0         0         0         0
         0         0         0         0         0         0         0         0
         0         0         0         0         0         0         0         0
         0         0         0         0         0         0         0         0
         0         0         0         0         0         0         0         0
         0         0         0         0         0         0         0         0
         0         0         0         0         0         0         0         0
         0         0         0         0         0         0         0         0
         0         0         0         0         0         0         0         0
         0         0         0         0         0         0         0         0
         0         0         0         0         0         0         0         0
         0         0         0         0         0         0         0         0
         0         0         0         0         0         0         0         0
         0         0         0         0         0         0         0         0
         0         0         0         0         0         0         0         0
         0         0         0         0         0         0         0         0
         0         0         0         0         0         0         0         0
         0         0         0         0         0         0         0         0
         0         0         0         0         0         0         0         0
         0         0         0         0         0         0         0         0
         0         0         0         0         0         0         0         0
         0         0         0         0         0         0         0         0
         0         0         0         0         0         0         0         0
         0         0         0         0         0         0         0         0
         0         0         0         0         0         0         0         0
         0         0         0         0         0         0         0         0
         0         0         0         0         0         0         0         0
         0         0         0         0         0         0         0         0
         0         0         0         0         0         0         0         0
         0         0         0         0         0         0         0         0
         0         0         0         0         0         0         0         0
         0         0         0         0         0         0         0         0
         0         0         0         0         0         0         0         0
         0         0         0         0         0         0         0         0
         0         0         0         0         0         0         0         0
         0         0         0         0         0         0         0         0
         0         0         0         0         0         0         0         0
         0         0         0         0         0         0         0         0
         0         0         0         0         0         0         0         0
         0         0         0         0         0         0         0         0
         0         0         0         0         0         0         0         0
         0         0         0         0         0         0         0         0
         0         0         0         0         0         0         0         0
         0         0         0         0         0         0         0         0
         0         0         0         0         0         0         0         0
         0         0         0         0         0         0         0         0
         0         0         0         0         0         0         0         0
         0         0         0         0         0         0         0         0
         0         0         0         0         0         0         0         0
         0         0         0         0         0         0         0         0
         0         0         0         0         0         0         0         0
         0         0         0         0         0         0         0         0
         0         0         0         0         0         0         0         0
         0         0         0         0         0         0         0         0
         0         0         0         0         0         0         0         0
         0         0         0         0         0         0         0         0
         0         0         0         0         0         0         0         0
         0         0         0         0         0         0         0         0
         0         0         0         0         0         0         0         0
         0         0         0         0         0         0         0         0
         0         0         0         0         0         0         0         0
         0         0         0         0         0         0         0         0
         0         0         0         0         0         0         0         0
         0         0         0         0         0         0         0         0
         0         0         0         0         0         0         0         0
         0         0         0         0         0         0         0         0
         0         0         0         0         0         0         0         0
         0         0         0         0         0         0         0         0
         0         0         0         0         0         0         0         0
         0         0         0         0         0         0         0         0
         0         0         0         0         0         0         0         0
         0         0         0         0         0         0         0         0
         0         0         0         0         0         0         0         0
         0         0         0         0         0         0         0         0
         0         0         0         0         0         0         0         0
         0         0         0         0         0         0         0         0
         0         0         0         0         0         0         0         0
         0         0         0         0         0         0         0         0
         0         0         0         0         0         0         0         0
         0         0         0         0         0         0         0         0
         0         0         0         0         0         0         0         0
         0         0         0         0         0         0         0         0
         0         0         0         0         0         0         0         0
         0         0         0         0         0         0         0         0
         0         0         0         0         0         0         0         0
         0         0         0         0         0         0         0         0
         0         0         0         0         0         0         0         0
         0         0         0         0         0         0         0         0
         0         0         0         0         0         0         0         0
         0         0         0         0         0         0         0         0
         0         0         0         0         0         0         0         0
         0         0         0         0         0         0         0         0
         0         0         0         0         0         0         0         0
         0         0         0         0         0         0         0         0
         0         0         0         0         0         0         0         0
         0         0         0         0         0         0         0         0
         0         0         0         0         0         0         0         0
         0         0         0         0         0         0         0         0
         0         0         0         0         0         0         0         0
         0         0         0         0         0         0         0         0
         0         0         0         0         0         0         0         0
         0         0         0         0         0         0         0         0
         0         0         0         0         0         0         0         0
         0         0         0         0         0         0         0         0
         0         0         0         0         0         0         0         0
         0         0         0         0         0         0         0         0
         0         0         0         0         0         0         0         0
         0         0         0         0         0         0         0         0
         0         0         0         0         0         0         0         0
         0         0         0         0         0         0         0         0
         0         0         0         0         0         0         0         0
         0         0         0         0         0         0         0         0
         0         0         0         0         0         0         0         0
         0         0         0         0         0         0         0         0
         0         0         0         0         0         0         0         0
         0         0         0         0         0         0         0         0
         0         0         0         0         0         0         0         0
         0         0         0         0         0         0         0         0
         0         0         0         0         0         0         0         0
         0         0         0         0         0         0         0         0
         0         0         0         0         0         0         0         0
         0         0         0         0         0         0         0         0
         0         0         0         0         0         0         0         0
         0         0         0         0         0         0         0         0
         0         0         0         0         0         0         0         0
         0         0         0         0         0         0         0         0
         0         0         0         0         0         0         0         0
         0         0         0         0         0         0         0         0
         0         0         0         0         0         0         0         0
         0         0         0         0         0         0         0         0
         0         0         0         0         0         0         0         0
         0         0         0         0         0         0         0         0
         0         0         0         0         0         0         0         0
         0         0         0         0         0         0         0         0
         0         0         0         0         0         0         0         0
         0         0         0         0         0         0         0         0
         0         0         0         0         0         0         0         0
         0         0         0         0         0         0         0         0
         0         0         0         0         0         0         0         0
         0         0         0         0         0         0         0         0
         0         0         0         0         0         0         0         0
         0         0         0         0         0         0         0         0
         0         0         0         0         0         0         0         0
         0         0         0         0         0         0         0         0
         0         0         0         0         0         0         0         0
         0         0         0         0         0         0         0         0
         0         0         0         0         0         0         0         0
         0         0         0         0         0         0         0         0
         0         0         0         0         0         0         0         0
         0         0         0         0         0         0         0         0
         0         0         0         0         0         0         0         0
         0         0         0         0         0         0         0         0
         0         0         0         0         0         0         0         0
         0         0         0         0         0         0         0         0
         0         0         0         0         0         0         0         0
         0         0         0         0         0         0         0         0
         0         0         0         0         0         0         0         0
         0         0         0         0         0         0         0         0
         0         0         0         0         0         0         0         0
         0         0         0         0         0         0         0         0
         0         0         0         0         0         0         0         0
         0         0         0         0         0         0         0         0
         0         0         0         0         0         0         0         0
         0         0         0         0         0         0         0         0
         0         0         0         0         0         0         0         0
         0         0         0         0         0         0         0         0
         0         0         0         0         0         0         0         0
         0         0         0         0         0         0         0         0
         0         0         0         0         0         0         0         0
         0         0         0         0         0         0         0         0
         0         0         0         0         0         0         0         0
         0         0         0         0         0         0         0         0
         0         0         0         0         0         0         0         0
         0         0         0         0         0         0         0         0
         0         0         0         0         0         0         0         0
         0         0         0         0         0         0         0         0
         0         0         0         0         0         0         0         0
         0         0         0         0         0         0         0         0
         0         0         0         0         0         0         0         0
         0         0         0         0         0         0         0         0
         0         0         0         0         0         0         0         0
         0         0         0         0         0         0         0         0
         0         0         0         0         0         0         0         0
         0         0         0         0         0         0         0         0
         0         0         0         0         0         0         0         0
         0         0         0         0         0         0         0         0
         0         0         0         0         0         0         0         0
         0         0         0         0         0         0         0         0
         0         0         0         0         0         0         0         0
         0         0         0         0         0         0         0         0
         0         0         0         0         0         0         0         0
         0         0         0         0         0         0         0         0
         0         0         0         0         0         0         0         0
         0         0         0         0         0         0         0         0
         0         0         0         0         0         0         0         0
         0         0         0         0         0         0         0         0
         0         0         0         0         0         0         0         0
         0         0         0         0         0         0         0         0
         0         0         0         0         0         0         0         0
         0         0         0         0         0         0         0         0
         0         0         0         0         0         0         0         0
         0         0         0         0         0         0         0         0
         0         0         0         0         0         0         0         0
         0         0         0         0         0         0         0         0
         0         0         0         0         0         0         0         0
         0         0         0         0         0         0         0         0
         0         0         0         0         0         0         0         0
         0         0         0         0         0         0         0         0
         0         0         0         0         0         0         0         0
         0         0         0         0         0         0         0         0
         0         0         0         0         0         0         0         0
         0         0         0         0         0         0         0         0
         0         0         0         0         0         0         0         0
         0         0         0         0         0         0         0         0
         0         0         0         0         0         0         0         0
         0         0         0         0         0         0         0         0
         0         0         0         0         0         0         0         0
         0         0         0         0         0         0         0         0
         0         0         0         0         0         0         0         0
         0         0         0         0         0         0         0         0
         0         0         0         0         0         0         0         0
         0         0         0         0         0         0         0         0
         0         0         0         0         0         0         0         0
         0         0         0         0         0         0         0         0
         0         0         0         0         0         0         0         0
         0         0         0         0         0         0         0         0
         0         0         0         0         0         0         0         0
         0         0         0         0         0         0         0         0
         0         0         0         0         0         0         0         0
         0         0         0         0         0         0         0         0
         0         0         0         0         0         0         0         0
         0         0         0         0         0         0         0         0
         0         0         0         0         0         0         0         0
         0         0         0         0         0         0         0         0
         0         0         0         0         0         0         0         0
         0         0         0         0         0         0         0         0
         0         0         0         0         0         0         0         0
         0         0         0         0         0         0         0         0
         0         0         0         0         0         0         0         0
         0         0         0         0         0         0         0         0
         0         0         0         0         0         0         0         0
         0         0         0         0         0         0         0         0
         0         0         0         0         0         0         0         0
         0         0         0         0         0         0         0         0
         0         0         0         0         0         0         0         0
         0         0         0         0         0         0         0         0
         0         0         0         0         0         0         0         0
         0         0         0         0         0         0         0         0
         0         0         0         0         0         0         0         0
         0         0         0         0         0         0         0         0
         0         0         0         0         0         0         0         0
         0         0         0         0         0         0         0         0
         0         0         0         0         0         0         0         0
         0         0         0         0         0         0         0         0
         0         0         0         0         0         0         0         0
         0         0         0         0         0         0         0         0
         0         0         0         0         0         0         0         0
         0         0         0         0         0         0         0         0
         0         0         0         0         0         0         0         0
         0         0         0         0         0         0         0         0
         0         0         0         0         0         0         0         0
         0         0         0         0         0         0         0         0
         0         0         0         0         0         0         0         0
         0         0         0         0         0         0         0         0
         0         0         0         0         0         0         0         0
         0         0         0         0         0         0         0         0
         0         0         0         0         0         0         0         0
         0         0         0         0         0         0         0         0
         0         0         0         0         0         0         0         0
         0         0         0         0         0         0         0         0
         0         0         0         0         0         0         0         0
         0         0         0         0         0         0         0         0
         0         0         0         0         0         0         0         0
         0         0         0         0         0         0         0         0
         0         0         0         0         0         0         0         0
         0         0         0         0         0         0         0         0
         0         0         0         0         0         0         0         0
         0         0         0         0         0         0         0         0
         0         0         0         0         0         0         0         0
         0         0         0         0         0         0         0         0
         0         0         0         0         0         0         0         0
         0         0         0         0         0         0         0         0
         0         0         0         0         0         0         0         0
         0         0         0         0         0         0         0         0
         0         0         0         0         0         0         0         0
         0         0         0         0         0         0         0         0
         0         0         0         0         0         0         0         0
         0         0         0         0         0         0         0         0
         0         0         0         0         0         0         0         0
         0         0         0         0         0         0         0         0
         0         0         0         0         0         0         0         0
         0         0         0         0         0         0         0         0
         0         0         0         0         0         0         0         0
         0         0         0         0         0         0         0         0
         0         0         0         0         0         0         0         0
         0         0         0         0         0         0         0         0
         0         0         0         0         0         0         0         0
         0         0         0         0         0         0         0         0
         0         0         0         0         0         0         0         0
         0         0         0         0         0         0         0         0
         0         0         0         0         0         0         0         0
         0         0         0         0         0         0         0         0
         0         0         0         0         0         0         0         0
         0         0         0         0         0         0         0         0
         0         0         0         0         0         0         0         0
         0         0         0         0         0         0         0         0
         0         0         0         0         0         0         0         0
         0         0         0         0         0         0         0         0
         0         0         0         0         0         0         0         0
         0         0         0         0         0         0         0         0
         0         0         0         0         0         0         0         0
         0         0         0         0         0         0         0         0
         0         0         0         0         0         0         0         0
         0         0         0         0         0         0         0         0
         0         0         0         0         0         0         0         0
         0         0         0         0         0         0         0         0
         0         0         0         0         0         0         0         0
         0         0         0         0         0         0         0         0
         0         0         0         0         0         0         0         0
         0         0         0         0         0         0         0         0
         0         0         0         0         0         0         0         0
         0         0         0         0         0         0         0         0
         0         0         0         0         0         0         0         0
         0         0         0         0         0         0         0         0
         0         0         0         0         0         0         0         0
         0         0         0         0         0         0         0         0
         0         0         0         0         0         0         0         0
         0         0         0         0         0         0         0         0
         0         0         0         0         0         0         0         0
         0         0         0         0         0         0         0         0
         0         0         0         0         0         0         0         0
         0         0         0         0         0         0         0         0
         0         0         0         0         0         0         0         0
         0         0         0         0         0         0         0         0
         0         0         0         0         0         0         0         0
         0         0         0         0         0         0         0         0
         0         0         0         0         0         0         0         0
         0         0         0         0         0         0         0         0
         0         0         0         0         0         0         0         0
         0         0         0         0         0         0         0         0
         0         0         0         0         0         0         0         0
         0         0         0         0         0         0         0         0
         0         0         0         0         0         0         0         0
         0         0         0         0         0         0         0         0
         0         0         0         0         0         0         0         0
         0         0         0         0         0         0         0         0
         0         0         0         0         0         0         0         0
         0         0         0         0         0         0         0         0
         0         0         0         0         0         0         0         0
         0         0         0         0         0         0         0         0
         0         0         0         0         0         0         0         0
         0         0         0         0         0         0         0         0
         0         0         0         0         0         0         0         0
         0         0         0         0         0         0         0         0
         0         0         0         0         0         0         0         0
         0         0         0         0         0         0         0         0
         0         0         0         0         0         0         0         0
         0         0         0         0         0         0         0         0
         0         0         0         0         0         0         0         0
         0         0         0         0         0         0         0         0
         0         0         0         0         0         0         0         0
         0         0         0         0         0         0         0         0
         0         0         0         0         0         0         0         0
         0         0         0         0         0         0         0         0
         0         0         0         0         0         0         0         0
         0         0         0         0         0         0         0         0
         0         0         0         0         0         0         0         0
         0         0         0         0         0         0         0         0
         0         0         0         0         0         0         0         0
         0         0         0         0         0         0         0         0
         0         0         0         0         0         0         0         0
         0         0         0         0         0         0         0         0
         0         0         0         0         0         0         0         0
         0         0         0         0         0         0         0         0
         0         0         0         0         0         0         0         0
         0         0         0         0         0         0         0         0
         0         0         0         0         0         0         0         0
         0         0         0         0         0         0         0         0
         0         0         0         0         0         0         0         0
         0         0         0         0         0         0         0         0
         0         0         0         0         0         0         0         0
         0         0         0         0         0         0         0         0
         0         0         0         0         0         0         0         0
         0         0         0         0         0         0         0         0
         0         0         0         0         0         0         0         0
         0         0         0         0         0         0         0         0
         0         0         0         0         0         0         0         0
         0         0         0         0         0         0         0         0
         0         0         0         0         0         0         0         0
         0         0         0         0         0         0         0         0
         0         0         0         0         0         0         0         0
         0         0         0         0         0         0         0         0
         0         0         0         0         0         0         0         0
         0         0         0         0         0         0         0         0
         0         0         0         0         0         0         0         0
         0         0         0         0         0         0         0         0
         0         0         0         0         0         0         0         0
         0         0         0         0         0         0         0         0
         0         0         0         0         0         0         0         0
         0         0         0         0         0         0         0         0
         0         0         0         0         0         0         0         0
         0         0         0         0         0         0         0         0
         0         0         0         0         0         0         0         0
         0         0         0         0         0         0         0         0
         0         0         0         0         0         0         0         0
         0         0         0         0         0         0         0         0
         0         0         0         0         0         0         0         0
         0         0         0         0         0         0         0         0
         0         0         0         0         0         0         0         0
         0         0         0         0         0         0         0         0
         0         0         0         0         0         0         0         0
         0         0         0         0         0         0         0         0
         0         0         0         0         0         0         0         0
         0         0         0         0         0         0         0         0
         0         0         0         0         0         0         0         0
         0         0         0         0         0         0         0         0
         0         0         0         0         0         0         0         0
         0         0         0         0         0         0         0         0
         0         0         0         0         0         0         0         0
         0         0         0         0         0         0         0         0
         0         0         0         0         0         0         0         0
         0         0         0         0         0         0         0         0
         0         0         0         0         0         0         0         0
         0         0         0         0         0         0         0         0
         0         0         0         0         0         0         0         0
         0         0         0         0         0         0         0         0
         0         0         0         0         0         0         0         0
         0         0         0         0         0         0         0         0
         0         0         0         0         0         0         0         0
         0         0         0         0         0         0         0         0
         0         0         0         0         0         0         0         0
         0         0         0         0         0         0         0         0
         0         0         0         0         0         0         0         0
         0         0         0         0         0         0         0         0
         0         0         0         0         0         0         0         0
         0         0         0         0         0         0         0         0
         0         0         0         0         0         0         0         0
         0         0         0         0         0         0         0         0
         0         0         0         0         0         0         0         0
         0         0         0         0         0         0         0         0
         0         0         0         0         0         0         0         0
         0         0         0         0         0         0         0         0
         0         0         0         0         0         0         0         0
         0         0         0         0         0         0         0         0
         0         0         0         0         0         0         0         0
         0         0         0         0         0         0         0         0
         0         0         0         0         0         0         0         0
         0         0         0         0         0         0         0         0
         0         0         0         0         0         0         0         0
         0         0         0         0         0         0         0         0
         0         0         0         0         0         0         0         0
         0         0         0         0         0         0         0         0
         0         0         0         0         0         0         0         0
         0         0         0         0         0         0         0         0
         0         0         0         0         0         0         0         0
         0         0         0         0         0         0         0         0
         0         0         0         0         0         0         0         0
         0         0         0         0         0         0         0         0
         0         0         0         0         0         0         0         0
         0         0         0         0         0         0         0         0
         0         0         0         0         0         0         0         0
         0         0         0         0         0         0         0         0
         0         0         0         0         0         0         0         0
         0         0         0         0         0         0         0         0
         0         0         0         0         0         0         0         0
         0         0         0         0         0         0         0         0
         0         0         0         0         0         0         0         0
         0         0         0         0         0         0         0         0
         0         0         0         0         0         0         0         0
         0         0         0         0         0         0         0         0
         0         0         0         0         0         0         0         0
         0         0         0         0         0         0         0         0
         0         0         0         0         0         0         0         0
         0         0         0         0         0         0         0         0
         0         0         0         0         0         0         0         0
         0         0         0         0         0         0         0         0
         0         0         0         0         0         0         0         0
         0         0         0         0         0         0         0         0
         0         0         0         0         0         0         0         0
         0         0         0         0         0         0         0         0
         0         0         0         0         0         0         0         0
         0         0         0         0         0         0         0         0
         0         0         0         0         0         0         0         0
         0         0         0         0         0         0         0         0
         0         0         0         0         0         0         0         0
         0         0         0         0         0         0         0         0
         0         0         0         0         0         0         0         0
         0         0         0         0         0         0         0         0
         0         0         0         0         0         0         0         0
         0         0         0         0         0         0         0         0
         0         0         0         0         0         0         0         0
         0         0         0         0         0         0         0         0
         0         0         0         0         0         0         0         0
         0         0         0         0         0         0         0         0
         0         0         0         0         0         0         0         0
         0         0         0         0         0         0         0         0
         0         0         0         0         0         0         0         0
         0         0         0         0         0         0         0         0
         0         0         0         0         0         0         0         0
         0         0         0         0         0         0         0         0
         0         0         0         0         0         0         0         0
         0         0         0         0         0         0         0         0
         0         0         0         0         0         0         0         0
         0         0         0         0         0         0         0         0
         0         0         0         0         0         0         0         0
         0         0         0         0         0         0         0         0
         0         0         0         0         0         0         0         0
         0         0         0         0         0         0         0         0
         0         0         0         0         0         0         0         0
         0         0         0         0         0         0         0         0
         0         0         0         0         0         0         0         0
         0         0         0         0         0         0         0         0
         0         0         0         0         0         0         0         0
         0         0         0         0         0         0         0         0
         0         0         0         0         0         0         0         0
         0         0         0         0         0         0         0         0
         0         0         0         0         0         0         0         0
         0         0         0         0         0         0         0         0
         0         0         0         0         0         0         0         0
         0         0         0         0         0         0         0         0
         0         0         0         0         0         0         0         0
         0         0         0         0         0         0         0         0
         0         0         0         0         0         0         0         0
         0         0         0         0         0         0         0         0
         0         0         0         0         0         0         0         0
         0         0         0         0         0         0         0         0
         0         0         0         0         0         0         0         0
         0         0         0         0         0         0         0         0
         0         0         0         0         0         0         0         0
         0         0         0         0         0         0         0         0
         0         0         0         0         0         0         0         0
         0         0         0         0         0         0         0         0
         0         0         0         0         0         0         0         0
         0         0         0         0         0         0         0         0
         0         0         0         0         0         0         0         0
         0         0         0         0         0         0         0         0
         0         0         0         0         0         0         0         0
         0         0         0         0         0         0         0         0
         0         0         0         0         0         0         0         0
         0         0         0         0         0         0         0         0
         0         0         0         0         0         0         0         0
         0         0         0         0         0         0         0         0
         0         0         0         0         0         0         0         0
         0         0         0         0         0         0         0         0
         0         0         0         0         0         0         0         0
         0         0         0         0         0         0         0         0
         0         0         0         0         0         0         0         0
         0         0         0         0         0         0         0         0
         0         0         0         0         0         0         0         0
         0         0         0         0         0         0         0         0
         0         0         0         0         0         0         0         0
         0         0         0         0         0         0         0         0
         0         0         0         0         0         0         0         0
         0         0         0         0         0         0         0         0
         0         0         0         0         0         0         0         0
         0         0         0         0         0         0         0         0
         0         0         0         0         0         0         0         0
         0         0         0         0         0         0         0         0
         0         0         0         0         0         0         0         0
         0         0         0         0         0         0         0         0
         0         0         0         0         0         0         0         0
         0         0         0         0         0         0         0         0
         0         0         0         0         0         0         0         0
         0         0         0         0         0         0         0         0
         0         0         0         0         0         0         0         0
         0         0         0         0         0         0         0         0
         0         0         0         0         0         0         0         0
         0         0         0         0         0         0         0         0
         0         0         0         0         0         0         0         0
         0         0         0         0         0         0         0         0
         0         0         0         0         0         0         0         0
         0         0         0         0         0         0         0         0
         0         0         0         0         0         0         0         0
         0         0         0         0         0         0         0         0
         0         0         0         0         0         0         0         0
         0         0         0         0         0         0         0         0
         0         0         0         0         0         0         0         0
         0         0         0         0         0         0         0         0
         0         0         0         0         0         0         0         0
         0         0         0         0         0         0         0         0
         0         0         0         0         0         0         0         0
         0         0         0         0         0         0         0         0
         0         0         0         0         0         0         0         0
         0         0         0         0         0         0         0         0
         0         0         0         0         0         0         0         0
         0         0         0         0         0         0         0         0
         0         0         0         0         0         0         0         0
         0         0         0         0         0         0         0         0
         0         0         0         0         0         0         0         0
         0         0         0         0         0         0         0         0
         0         0         0         0         0         0         0         0
         0         0         0         0         0         0         0         0
         0         0         0         0         0         0         0         0
         0         0         0         0         0         0         0         0
         0         0         0         0         0         0         0         0
         0         0         0         0         0         0         0         0
         0         0         0         0         0         0         0         0
         0         0         0         0         0         0         0         0
         0         0         0         0         0         0         0         0
         0         0         0         0         0         0         0         0
         0         0         0         0         0         0         0         0
         0         0         0         0         0         0         0         0
         0         0         0         0         0         0         0         0
         0         0         0         0         0         0         0         0
         0         0         0         0         0         0         0         0
         0         0         0         0         0         0         0         0
         0         0         0         0         0         0         0         0
         0         0         0         0         0         0         0         0
         0         0         0         0         0         0         0         0
         0         0         0         0         0         0         0         0
         0         0         0         0         0         0         0         0
         0         0         0         0         0         0         0         0
         0         0         0         0         0         0         0         0
         0         0         0         0         0         0         0         0
         0         0         0         0         0         0         0         0
         0         0         0         0         0         0         0         0
         0         0         0         0         0         0         0         0
         0         0         0         0         0         0         0         0
         0         0         0         0         0         0         0         0
         0         0         0         0         0         0         0         0
         0         0         0         0         0         0         0         0
         0         0         0         0         0         0         0         0
         0         0         0         0         0         0         0         0
         0         0         0         0         0         0         0         0
         0         0         0         0         0         0         0         0
         0         0         0         0         0         0         0         0
         0         0         0         0         0         0         0         0
         0         0         0         0         0         0         0         0
         0         0         0         0         0         0         0         0
         0         0         0         0         0         0         0         0
         0         0         0         0         0         0         0         0
         0         0         0         0         0         0         0         0
         0         0         0         0         0         0         0         0
         0         0         0         0         0         0         0         0
         0         0         0         0         0         0         0         0
         0         0         0         0         0         0         0         0
         0         0         0         0         0         0         0         0
         0         0         0         0         0         0         0         0
         0         0         0         0         0         0         0         0
         0         0         0         0         0         0         0         0
         0         0         0         0         0         0         0         0
         0         0         0         0         0         0         0         0
         0         0         0         0         0         0         0         0
         0         0         0         0         0         0         0         0
         0         0         0         0         0         0         0         0
         0         0         0         0         0         0         0         0
         0         0         0         0         0         0         0         0
         0         0         0         0         0         0         0         0
         0         0         0         0         0         0         0         0
         0         0         0         0         0         0         0         0
         0         0         0         0         0         0         0         0
         0         0         0         0         0         0         0         0
         0         0         0         0         0         0         0         0
         0         0         0         0         0         0         0         0
         0         0         0         0         0         0         0         0
         0         0         0         0         0         0         0         0
         0         0         0         0         0         0         0         0
         0         0         0         0         0         0         0         0
         0         0         0         0         0         0         0         0
         0         0         0         0         0         0         0         0
         0         0         0         0         0         0         0         0
         0         0         0         0         0         0         0         0
         0         0         0         0         0         0         0         0
         0         0         0         0         0         0         0         0
         0         0         0         0         0         0         0         0
         0         0         0         0         0         0         0         0
         0         0         0         0         0         0         0         0
         0         0         0         0         0         0         0         0
         0         0         0         0         0         0         0         0
         0         0         0         0         0         0         0         0
         0         0         0         0         0         0         0         0
         0         0         0         0         0         0         0         0
         0         0         0         0         0         0         0         0
         0         0         0         0         0         0         0         0
         0         0         0         0         0         0         0         0
         0         0         0         0         0         0         0         0
         0         0         0         0         0         0         0         0
         0         0         0         0         0         0         0         0
         0         0         0         0         0         0         0         0
         0         0         0         0         0         0         0         0
         0         0         0         0         0         0         0         0
         0         0         0         0         0         0         0         0
         0         0         0         0         0         0         0         0
         0         0         0         0         0         0         0         0
         0         0         0         0         0         0         0         0
         0         0         0         0         0         0         0         0
         0         0         0         0         0         0         0         0
         0         0         0         0         0         0         0         0
         0         0         0         0         0         0         0         0
         0         0         0         0         0         0         0         0
         0         0         0         0         0         0         0         0
         0         0         0         0         0         0         0         0
         0         0         0         0         0         0         0         0
         0         0         0         0         0         0         0         0
         0         0         0         0         0         0         0         0
         0         0         0         0         0         0         0         0
         0         0         0         0         0         0         0         0
         0         0         0         0         0         0         0         0
         0         0         0         0         0         0         0         0
         0         0         0         0         0         0         0         0
         0         0         0         0         0         0         0         0
         0         0         0         0         0         0         0         0
         0         0         0         0         0         0         0         0
         0         0         0         0         0         0         0         0
         0         0         0         0         0         0         0         0
         0         0         0         0         0         0         0         0
         0         0         0         0         0         0         0         0
         0         0         0         0         0         0         0         0
         0         0         0         0         0         0         0         0
         0         0         0         0         0         0         0         0
         0         0         0         0         0         0         0         0
         0         0         0         0         0         0         0         0
         0         0         0         0         0         0         0         0
         0         0         0         0         0         0         0         0
         0         0         0         0         0         0         0         0
         0         0         0         0         0         0         0         0
         0         0         0         0         0         0         0         0
         0         0         0         0         0         0         0         0
         0         0         0         0         0         0         0         0
         0         0         0         0         0         0         0         0
         0         0         0         0         0         0         0         0
         0         0         0         0         0         0         0         0
         0         0         0         0         0         0         0         0
         0         0         0         0         0         0         0         0
         0         0         0         0         0         0         0         0
         0         0         0         0         0         0         0         0
         0         0         0         0         0         0         0         0
         0         0         0         0         0         0         0         0
         0         0         0         0         0         0         0         0
         0         0         0         0         0         0         0         0
         0         0         0         0         0         0         0         0
         0         0         0         0         0         0         0         0
         0         0         0         0         0         0         0         0
         0         0         0         0         0         0         0         0
         0         0         0         0         0         0         0         0
         0         0         0         0         0         0         0         0
         0         0         0         0         0         0         0         0
         0         0         0         0         0         0         0         0
         0         0         0         0         0         0         0         0
         0         0         0         0         0         0         0         0
         0         0         0         0         0         0         0         0
         0         0         0         0         0         0         0         0
         0         0         0         0         0         0         0         0
         0         0         0         0         0         0         0         0
         0         0         0         0         0         0         0         0
         0         0         0         0         0         0         0         0
         0         0         0         0         0         0         0         0
         0         0         0         0         0         0         0         0
         0         0         0         0         0         0         0         0
         0         0         0         0         0         0         0         0
         0         0         0         0         0         0         0         0
         0         0         0         0         0         0         0         0
         0         0         0         0         0         0         0         0
         0         0         0         0         0         0         0         0
         0         0         0         0         0         0         0         0
         0         0         0         0         0         0         0         0
         0         0         0         0         0         0         0         0
         0         0         0         0         0         0         0         0
         0         0         0         0         0         0         0         0
         0         0         0         0         0         0         0         0
         0         0         0         0         0         0         0         0
         0         0         0         0         0         0         0         0
         0         0         0         0         0         0         0         0
         0         0         0         0         0         0         0         0
         0         0         0         0         0         0         0         0
         0         0         0         0         0         0         0         0
         0         0         0         0         0         0         0         0
         0         0         0         0         0         0         0         0
         0         0         0         0         0         0         0         0
         0         0         0         0         0         0         0         0
         0         0         0         0         0         0         0         0
         0         0         0         0         0         0         0         0
         0         0         0         0         0         0         0         0
         0         0         0         0         0         0         0         0
         0         0         0         0         0         0         0         0
         0         0         0         0         0         0         0         0
         0         0         0         0         0         0         0         0
         0         0         0         0         0         0         0         0
         0         0         0         0         0         0         0         0
         0         0         0         0         0         0         0         0
         0         0         0         0         0         0         0         0
         0         0         0         0         0         0         0         0
         0         0         0         0         0         0         0         0
         0         0         0         0         0         0         0         0
         0         0         0         0         0         0         0         0
         0         0         0         0         0         0         0         0
         0         0         0         0         0         0         0         0
         0         0         0         0         0         0         0         0
         0         0         0         0         0         0         0         0
         0         0         0         0         0         0         0         0
         0         0         0         0         0         0         0         0
         0         0         0         0         0         0         0         0
         0         0         0         0         0         0         0         0
         0         0         0         0         0         0         0         0
         0         0         0         0         0         0         0         0
         0         0         0         0         0         0         0         0
         0         0         0         0         0         0         0         0
         0         0         0         0         0         0         0         0
         0         0         0         0         0         0         0         0
         0         0         0         0         0         0         0         0
         0         0         0         0         0         0         0         0
         0         0         0         0         0         0         0         0
         0         0         0         0         0         0         0         0
         0         0         0         0         0         0         0         0
         0         0         0         0         0         0         0         0
         0         0         0         0         0         0         0         0
         0         0         0         0         0         0         0         0
         0         0         0         0         0         0         0         0
         0         0         0         0         0         0         0         0
         0         0         0         0         0         0         0         0
         0         0         0         0         0         0         0         0
         0         0         0         0         0         0         0         0
         0         0         0         0         0         0         0         0
         0         0         0         0         0         0         0         0
         0         0         0         0         0         0         0         0
         0         0         0         0         0         0         0         0
         0         0         0         0         0         0         0         0
         0         0         0         0         0         0         0         0
         0         0         0         0         0         0         0         0
         0         0         0         0         0         0         0         0
         0         0         0         0         0         0         0         0
         0         0         0         0         0         0         0         0
         0         0         0         0         0         0         0         0
         0         0         0         0         0         0         0         0
         0         0         0         0         0         0         0         0
         0         0         0         0         0         0         0         0
         0         0         0         0         0         0         0         0
         0         0         0         0         0         0         0         0
         0         0         0         0         0         0         0         0
         0         0         0         0         0         0         0         0
         0         0         0         0         0         0         0         0
         0         0         0         0         0         0         0         0
         0         0         0         0         0         0         0         0
         0         0         0         0         0         0         0         0
         0         0         0         0         0         0         0         0
         0         0         0         0         0         0         0         0
         0         0         0         0         0         0         0         0
         0         0         0         0         0         0         0         0
         0         0         0         0         0         0         0         0
         0         0         0         0         0         0         0         0
         0         0         0         0         0         0         0         0
         0         0         0         0         0         0         0         0
         0         0         0         0         0         0         0         0
         0         0         0         0         0         0         0         0
         0         0         0         0         0         0         0         0
         0         0         0         0         0         0         0         0
         0         0         0         0         0         0         0         0
         0         0         0         0         0         0         0         0
         0         0         0         0         0         0         0         0
         0         0         0         0         0         0         0         0
         0         0         0         0         0         0         0         0
         0         0         0         0         0         0         0         0
         0         0         0         0         0         0         0         0
         0         0         0         0         0         0         0         0
         0         0         0         0         0         0         0         0
         0         0         0         0         0         0         0         0
         0         0         0         0         0         0         0         0
         0         0         0         0         0         0         0         0
         0         0         0         0         0         0         0         0
         0         0         0         0         0         0         0         0
         0         0         0         0         0         0         0         0
         0         0         0         0         0         0         0         0
         0         0         0         0         0         0         0         0
         0         0         0         0         0         0         0         0
         0         0         0         0         0         0         0         0
         0         0         0         0         0         0         0         0
         0         0         0         0         0         0         0         0
         0         0         0         0         0         0         0         0
         0         0         0         0         0         0         0         0
         0         0         0         0         0         0         0         0
         0         0         0         0         0         0         0         0
         0         0         0         0         0         0         0         0
         0         0         0         0         0         0         0         0
         0         0         0         0         0         0         0         0
         0         0         0         0         0         0         0         0
         0         0         0         0         0         0         0         0
         0         0         0         0         0         0         0         0
         0         0         0         0         0         0         0         0
         0         0         0         0         0         0         0         0
         0         0         0         0         0         0         0         0
         0         0         0         0         0         0         0         0
         0         0         0         0         0         0         0         0
         0         0         0         0         0         0         0         0
         0         0         0         0         0         0         0         0
         0         0         0         0         0         0         0         0
         0         0         0         0         0         0         0         0
         0         0         0         0         0         0         0         0
         0         0         0         0         0         0         0         0
         0         0         0         0         0         0         0         0
         0         0         0         0         0         0         0         0
         0         0         0         0         0         0         0         0
         0         0         0         0         0         0         0         0
         0         0         0         0         0         0         0         0
         0         0         0         0         0         0         0         0
         0         0         0         0         0         0         0         0
         0         0         0         0         0         0         0         0
         0         0         0         0         0         0         0         0
         0         0         0         0         0         0         0         0
         0         0         0         0         0         0         0         0
         0         0         0         0         0         0         0         0
         0         0         0         0         0         0         0         0
         0         0         0         0         0         0         0         0
         0         0         0         0         0         0         0         0
         0         0         0         0         0         0         0         0
         0         0         0         0         0         0         0         0
         0         0         0         0         0         0         0         0
         0         0         0         0         0         0         0         0
         0         0         0         0         0         0         0         0
         0         0         0         0         0         0         0         0
         0         0         0         0         0         0         0         0
         0         0         0         0         0         0         0         0
         0         0         0         0         0         0         0         0
         0         0         0         0         0         0         0         0
         0         0         0         0         0         0         0         0
         0         0         0         0         0         0         0         0
         0         0         0         0         0         0         0         0
         0         0         0         0         0         0         0         0
         0         0         0         0         0         0         0         0
         0         0         0         0         0         0         0         0
         0         0         0         0         0         0         0         0
         0         0         0         0         0         0         0         0
         0         0         0         0         0         0         0         0
         0         0         0         0         0         0         0         0
         0         0         0         0         0         0         0         0
         0         0         0         0         0         0         0         0
         0         0         0         0         0         0         0         0
         0         0         0         0         0         0         0         0
         0         0         0         0         0         0         0         0
         0         0         0         0         0         0         0         0
         0         0         0         0         0         0         0         0
         0         0         0         0         0         0         0         0
         0         0         0         0         0         0         0         0
         0         0         0         0         0         0         0         0
         0         0         0         0         0         0         0         0
         0         0         0         0         0         0         0         0
         0         0         0         0         0         0         0         0
         0         0         0         0         0         0         0         0
         0         0         0         0         0         0         0         0
         0         0         0         0         0         0         0         0
         0         0         0         0         0         0         0         0
         0         0         0         0         0         0         0         0
         0         0         0         0         0         0         0         0
         0         0         0         0         0         0         0         0
         0         0         0         0         0         0         0         0
         0         0         0         0         0         0         0         0
         0         0         0         0         0         0         0         0
         0         0         0         0         0         0         0         0
         0         0         0         0         0         0         0         0
         0         0         0         0         0         0         0         0
         0         0         0         0         0         0         0         0
         0         0         0         0         0         0         0         0
         0         0         0         0         0         0         0         0
         0         0         0         0         0         0         0         0
         0         0         0         0         0         0         0         0
         0         0         0         0         0         0         0         0
         0         0         0         0         0         0         0         0
         0         0         0         0         0         0         0         0
         0         0         0         0         0         0         0         0
         0         0         0         0         0         0         0         0
         0         0         0         0         0         0         0         0
         0         0         0         0         0         0         0         0
         0         0         0         0         0         0         0         0
         0         0         0         0         0         0         0         0
         0         0         0         0         0         0         0         0
         0         0         0         0         0         0         0         0
         0         0         0         0         0         0         0         0
         0         0         0         0         0         0         0         0
         0         0         0         0         0         0         0         0
         0         0         0         0         0         0         0         0
         0         0         0         0         0         0         0         0
         0         0         0         0         0         0         0         0
         0         0         0         0         0         0         0         0
         0         0         0         0         0         0         0         0
         0         0         0         0         0         0         0         0
         0         0         0         0         0         0         0         0
         0         0         0         0         0         0         0         0
         0         0         0         0         0         0         0         0
         0         0         0         0         0         0         0         0
         0         0         0         0         0         0         0         0
         0         0         0         0         0         0         0         0
         0         0         0         0         0         0         0         0
         0         0         0         0         0         0         0         0
         0         0         0         0         0         0         0         0
         0         0         0         0         0         0         0         0
         0         0         0         0         0         0         0         0
         0         0         0         0         0         0         0         0
         0         0         0         0         0         0         0         0
         0         0         0         0         0         0         0         0
         0         0         0         0         0         0         0         0
         0         0         0         0         0         0         0         0
         0         0         0         0         0         0         0         0
         0         0         0         0         0         0         0         0
         0         0         0         0         0         0         0         0
         0         0         0         0         0         0         0         0
         0         0         0         0         0         0         0         0
         0         0         0         0         0         0         0         0
         0         0         0         0         0         0         0         0
         0         0         0         0         0         0         0         0
         0         0         0         0         0         0         0         0
         0         0         0         0         0         0         0         0
         0         0         0         0         0         0         0         0
         0         0         0         0         0         0         0         0
         0         0         0         0         0         0         0         0
         0         0         0         0         0         0         0         0
         0         0         0         0         0         0         0         0
         0         0         0         0         0         0         0         0
         0         0         0         0         0         0         0         0
         0         0         0         0         0         0         0         0
         0         0         0         0         0         0         0         0
         0         0         0         0         0         0         0         0
         0         0         0         0         0         0         0         0
         0         0         0         0         0         0         0         0
         0         0         0         0         0         0         0         0
         0         0         0         0         0         0         0         0
         0         0         0         0         0         0         0         0
         0         0         0         0         0         0         0         0
         0         0         0         0         0         0         0         0
         0         0         0         0         0         0         0         0
         0         0         0         0         0         0         0         0
         0         0         0         0         0         0         0         0
         0         0         0         0         0         0         0         0
         0         0         0         0         0         0         0         0
         0         0         0         0         0         0         0         0
         0         0         0         0         0         0         0         0
         0         0         0         0         0         0         0         0
         0         0         0         0         0         0         0         0
         0         0         0         0         0         0         0         0
         0         0         0         0         0         0         0         0
         0         0         0         0         0         0         0         0
         0         0         0         0         0         0         0         0
         0         0         0         0         0         0         0         0
         0         0         0         0         0         0         0         0
         0         0         0         0         0         0         0         0
         0         0         0         0         0         0         0         0
         0         0         0         0         0         0         0         0
         0         0         0         0         0         0         0         0
         0         0         0         0         0         0         0         0
         0         0         0         0         0         0         0         0
         0         0         0         0         0         0         0         0
         0         0         0         0         0         0         0         0
         0         0         0         0         0         0         0         0
         0         0         0         0         0         0         0         0
         0         0         0         0         0         0         0         0
         0         0         0         0         0         0         0         0
         0         0         0         0         0         0         0         0
         0         0         0         0         0         0         0         0
         0         0         0         0         0         0         0         0
         0         0         0         0         0         0         0         0
         0         0         0         0         0         0         0         0
         0         0         0         0         0         0         0         0
         0         0         0         0         0         0         0         0
         0         0         0         0         0         0         0         0
         0         0         0         0         0         0         0         0
         0         0         0         0         0         0         0         0
         0         0         0         0         0         0         0         0
         0         0         0         0         0         0         0         0
         0         0         0         0         0         0         0         0
         0         0         0         0         0         0         0         0
         0         0         0         0         0         0         0         0
         0         0         0         0         0         0         0         0
         0         0         0         0         0         0         0         0
         0         0         0         0         0         0         0         0
         0         0         0         0         0         0         0         0
         0         0         0         0         0         0         0         0
         0         0         0         0         0         0         0         0
         0         0         0         0         0         0         0         0
         0         0         0         0         0         0         0         0
         0         0         0         0         0         0         0         0
         0         0         0         0         0         0         0         0
         0         0         0         0         0         0         0         0
         0         0         0         0         0         0         0         0
         0         0         0         0         0         0         0         0
         0         0         0         0         0         0         0         0
         0         0         0         0         0         0         0         0
         0         0         0         0         0         0         0         0
         0         0         0         0         0         0         0         0
         0         0         0         0         0         0         0         0
         0         0         0         0         0         0         0         0
         0         0         0         0         0         0         0         0
         0         0         0         0         0         0         0         0
         0         0         0         0         0         0         0         0
         0         0         0         0         0         0         0         0
         0         0         0         0         0         0         0         0
         0         0         0         0         0         0         0         0
         0         0         0         0         0         0         0         0
         0         0         0         0         0         0         0         0
         0         0         0         0         0         0         0         0
         0         0         0         0         0         0         0         0
         0         0         0         0         0         0         0         0
         0         0         0         0         0         0         0         0
         0         0         0         0         0         0         0         0
         0         0         0         0         0         0         0         0
         0         0         0         0         0         0         0         0
         0         0         0         0         0         0         0         0
         0         0         0         0         0         0         0         0
         0         0         0         0         0         0         0         0
         0         0         0         0         0         0         0         0
         0         0         0         0         0         0         0         0
         0         0         0         0         0         0         0         0
         0         0         0         0         0         0         0         0
         0         0         0         0         0         0         0         0
         0         0         0         0         0         0         0         0
         0         0         0         0         0         0         0         0
         0         0         0         0         0         0         0         0
         0         0         0         0         0         0         0         0
         0         0         0         0         0         0         0         0
         0         0         0         0         0         0         0         0
         0         0         0         0         0         0         0         0
         0         0         0         0         0         0         0         0
         0         0         0         0         0         0         0         0
         0         0         0         0         0         0         0         0
         0         0         0         0         0         0         0         0
         0         0         0         0         0         0         0         0
         0         0         0         0         0         0         0         0
         0         0         0         0         0         0         0         0
         0         0         0         0         0         0         0         0
         0         0         0         0         0         0         0         0
         0         0         0         0         0         0         0         0
         0         0         0         0         0         0         0         0
         0         0         0         0         0         0         0         0
         0         0         0         0         0         0         0         0
         0         0         0         0         0         0         0         0
         0         0         0         0         0         0         0         0
         0         0         0         0         0         0         0         0
         0         0         0         0         0         0         0         0
         0         0         0         0         0         0         0         0
         0         0         0         0         0         0         0         0
         0         0         0         0         0         0         0         0
         0         0         0         0         0         0         0         0
         0         0         0         0         0         0         0         0
         0         0         0         0         0         0         0         0
         0         0         0         0         0         0         0         0
         0         0         0         0         0         0         0         0
         0         0         0         0         0         0         0         0
         0         0         0         0         0         0         0         0
         0         0         0         0         0         0         0         0
         0         0         0         0         0         0         0         0
         0         0         0         0         0         0         0         0
         0         0         0         0         0         0         0         0
         0         0         0         0         0         0         0         0
         0         0         0         0         0         0         0         0
         0         0         0         0         0         0         0         0
         0         0         0         0         0         0         0         0
         0         0         0         0         0         0         0         0
         0         0         0         0         0         0         0         0
         0         0         0         0         0         0         0         0
         0         0         0         0         0         0         0         0
         0         0         0         0         0         0         0         0
         0         0         0         0         0         0         0         0
         0         0         0         0         0         0         0         0
         0         0         0         0         0         0         0         0
         0         0         0         0         0         0         0         0
         0         0         0         0         0         0         0         0
         0         0         0         0         0         0         0         0
         0         0         0         0         0         0         0         0
         0         0         0         0         0         0         0         0
         0         0         0         0         0         0         0         0
         0         0         0         0         0         0         0         0
         0         0         0         0         0         0         0         0
         0         0         0         0         0         0         0         0
         0         0         0         0         0         0         0         0
         0         0         0         0         0         0         0         0
         0         0         0         0         0         0         0         0
         0         0         0         0         0         0         0         0
         0         0         0         0         0         0         0         0
         0         0         0         0         0         0         0         0
         0         0         0         0         0         0         0         0
         0         0         0         0         0         0         0         0
         0         0         0         0         0         0         0         0
         0         0         0         0         0         0         0         0
         0         0         0         0         0         0         0         0
         0         0         0         0         0         0         0         0
         0         0         0         0         0         0         0         0
         0         0         0         0         0         0         0         0
         0         0         0         0         0         0         0         0
         0         0         0         0         0         0         0         0
         0         0         0         0         0         0         0         0
         0         0         0         0         0         0         0         0
         0         0         0         0         0         0         0         0
         0         0         0         0         0         0         0         0
         0         0         0         0         0         0         0         0
         0         0         0         0         0         0         0         0
         0         0         0         0         0         0         0         0
         0         0         0         0         0         0         0         0
         0         0         0         0         0         0         0         0
         0         0         0         0         0         0         0         0
         0         0         0         0         0         0         0         0
         0         0         0         0         0         0         0         0
         0         0         0         0         0         0         0         0
         0         0         0         0         0         0         0         0
         0         0         0         0         0         0         0         0
         0         0         0         0         0         0         0         0
         0         0         0         0         0         0         0         0
         0         0         0         0         0         0         0         0
         0         0         0         0         0         0         0         0
         0         0         0         0         0         0         0         0
         0         0         0         0         0         0         0         0
         0         0         0         0         0         0         0         0
         0         0         0         0         0         0         0         0
         0         0         0         0         0         0         0         0
         0         0         0         0         0         0         0         0
         0         0         0         0         0         0         0         0
         0         0         0         0         0         0         0         0
         0         0         0         0         0         0         0         0
         0         0         0         0         0         0         0         0
         0         0         0         0         0         0         0         0
         0         0         0         0         0         0         0         0
         0         0         0         0         0         0         0         0
         0         0         0         0         0         0         0         0
         0         0         0         0         0         0         0         0
         0         0         0         0         0         0         0         0
         0         0         0         0         0         0         0         0
         0         0         0         0         0         0         0         0
         0         0         0         0         0         0         0         0
         0         0         0         0         0         0         0         0
         0         0         0         0         0         0         0         0
         0         0         0         0         0         0         0         0
         0         0         0         0         0         0         0         0
         0         0         0         0         0         0         0         0
         0         0         0         0         0         0         0         0
         0         0         0         0         0         0         0         0
         0         0         0         0         0         0         0         0
         0         0         0         0         0         0         0         0
         0         0         0         0         0         0         0         0
         0         0         0         0         0         0         0         0
         0         0         0         0         0         0         0         0
         0         0         0         0         0         0         0         0
         0         0         0         0         0         0         0         0
         0         0         0         0         0         0         0         0
         0         0         0         0         0         0         0         0
         0         0         0         0         0         0         0         0
         0         0         0         0         0         0         0         0
         0         0         0         0         0         0         0         0
         0         0         0         0         0         0         0         0
         0         0         0         0         0         0         0         0
         0         0         0         0         0         0         0         0
         0         0         0         0         0         0         0         0
         0         0         0         0         0         0         0         0
         0         0         0         0         0         0         0         0
         0         0         0         0         0         0         0         0
         0         0         0         0         0         0         0         0
         0         0         0         0         0         0         0         0
         0         0         0         0         0         0         0         0
         0         0         0         0         0         0         0         0
         0         0         0         0         0         0         0         0
         0         0         0         0         0         0         0         0
         0         0         0         0         0         0         0         0
         0         0         0         0         0         0         0         0
         0         0         0         0         0         0         0         0
         0         0         0         0         0         0         0         0
         0         0         0         0         0         0         0         0
         0         0         0         0         0         0         0         0
         0         0         0         0         0         0         0         0
         0         0         0         0         0         0         0         0
         0         0         0         0         0         0         0         0
         0         0         0         0         0         0         0         0
         0         0         0         0         0         0         0         0
         0         0         0         0         0         0         0         0
         0         0         0         0         0         0         0         0
         0         0         0         0         0         0         0         0
         0         0         0         0         0         0         0         0
         0         0         0         0         0         0         0         0
         0         0         0         0         0         0         0         0
         0         0         0         0         0         0         0         0
         0         0         0         0         0         0         0         0
         0         0         0         0         0         0         0         0
         0         0         0         0         0         0         0         0
         0         0         0         0         0         0         0         0
         0         0         0         0         0         0         0         0
         0         0         0         0         0         0         0         0
         0         0         0         0         0         0         0         0
         0         0         0         0         0         0         0         0
         0         0         0         0         0         0         0         0
         0         0         0         0         0         0         0         0
         0         0         0         0         0         0         0         0
         0         0         0         0         0         0         0         0
         0         0         0         0         0         0         0         0
         0         0         0         0         0         0         0         0
         0         0         0         0         0         0         0         0
         0         0         0         0         0         0         0         0
         0         0         0         0         0         0         0         0
         0         0         0         0         0         0         0         0
         0         0         0         0         0         0         0         0
         0         0         0         0         0         0         0         0
         0         0         0         0         0         0         0         0
         0         0         0         0         0         0         0         0
         0         0         0         0         0         0         0         0
         0         0         0         0         0         0         0         0
         0         0         0         0         0         0         0         0
         0         0         0         0         0         0         0         0
         0         0         0         0         0         0         0         0
         0         0         0         0         0         0         0         0
         0         0         0         0         0         0         0         0
         0         0         0         0         0         0         0         0
         0         0         0         0         0         0         0         0
         0         0         0         0         0         0         0         0
         0         0         0         0         0         0         0         0
         0         0         0         0         0         0         0         0
         0         0         0         0         0         0         0         0
         0         0         0         0         0         0         0         0
         0         0         0         0         0         0         0         0
         0         0         0         0         0         0         0         0
         0         0         0         0         0         0         0         0
         0         0         0         0         0         0         0         0
         0         0         0         0         0         0         0         0
         0         0         0         0         0         0         0         0
         0         0         0         0         0         0         0         0
         0         0         0         0         0         0         0         0
         0         0         0         0         0         0         0         0
         0         0         0         0         0         0         0         0
         0         0         0         0         0         0         0         0
         0         0         0         0         0         0         0         0
         0         0         0         0         0         0         0         0
         0         0         0         0         0         0         0         0
         0         0         0         0         0         0         0         0
         0         0         0         0         0         0         0         0
         0         0         0         0         0         0         0         0
         0         0         0         0         0         0         0         0
         0         0         0         0         0         0         0         0
         0         0         0         0         0         0         0         0
         0         0         0         0         0         0         0         0
         0         0         0         0         0         0         0         0
         0         0         0         0         0         0         0         0
         0         0         0         0         0         0         0         0
         0         0         0         0         0         0         0         0
         0         0         0         0         0         0         0         0
         0         0         0         0         0         0         0         0
         0         0         0         0         0         0         0         0
         0         0         0         0         0         0         0         0
         0         0         0         0         0         0         0         0
         0         0         0         0         0         0         0         0
         0         0         0         0         0         0         0         0
         0         0         0         0         0         0         0         0
         0         0         0         0         0         0         0         0
         0         0         0         0         0         0         0         0
         0         0         0         0         0         0         0         0
         0         0         0         0         0         0         0         0
         0         0         0         0         0         0         0         0
         0         0         0         0         0         0         0         0
         0         0         0         0         0         0         0         0
         0         0         0         0         0         0         0         0
         0         0         0         0         0         0         0         0
         0         0         0         0         0         0         0         0
         0         0         0         0         0         0         0         0
         0         0         0         0         0         0         0         0
         0         0         0         0         0         0         0         0
         0         0         0         0         0         0         0         0
         0         0         0         0         0         0         0         0
         0         0         0         0         0         0         0         0
         0         0         0         0         0         0         0         0
         0         0         0         0         0         0         0         0
         0         0         0         0         0         0         0         0
         0         0         0         0         0         0         0         0
         0         0         0         0         0         0         0         0
         0         0         0         0         0         0         0         0
         0         0         0         0         0         0         0         0
         0         0         0         0         0         0         0         0
         0         0         0         0         0         0         0         0
         0         0         0         0         0         0         0         0
         0         0         0         0         0         0         0         0
         0         0         0         0         0         0         0         0
         0         0         0         0         0         0         0         0
         0         0         0         0         0         0         0         0
         0         0         0         0         0         0         0         0
         0         0         0         0         0         0         0         0
         0         0         0         0         0         0         0         0
         0         0         0         0         0         0         0         0
         0         0         0         0         0         0         0         0
         0         0         0         0         0         0         0         0
         0         0         0         0         0         0         0         0
         0         0         0         0         0         0         0         0
         0         0         0         0         0         0         0         0
         0         0         0         0         0         0         0         0
         0         0         0         0         0         0         0         0
         0         0         0         0         0         0         0         0
         0         0         0         0         0         0         0         0
         0         0         0         0         0         0         0         0
         0         0         0         0         0         0         0         0
         0         0         0         0         0         0         0         0
         0         0         0         0         0         0         0         0
         0         0         0         0         0         0         0         0
         0         0         0         0         0         0         0         0
         0         0         0         0         0         0         0         0
         0         0         0         0         0         0         0         0
         0         0         0         0         0         0         0         0
         0         0         0         0         0         0         0         0
         0         0         0         0         0         0         0         0
         0         0         0         0         0         0         0         0
         0         0         0         0         0         0         0         0
         0         0         0         0         0         0         0         0
         0         0         0         0         0         0         0         0
         0         0         0         0         0         0         0         0
         0         0         0         0         0         0         0         0
         0         0         0         0         0         0         0         0
         0         0         0         0         0         0         0         0
         0         0         0         0         0         0         0         0
         0         0         0         0         0         0         0         0
         0         0         0         0         0         0         0         0
         0         0         0         0         0         0         0         0
         0         0         0         0         0         0         0         0
         0         0         0         0         0         0         0         0
         0         0         0         0         0         0         0         0
         0         0         0         0         0         0         0         0
         0         0         0         0         0         0         0         0
         0         0         0         0         0         0         0         0
         0         0         0         0         0         0         0         0
         0         0         0         0         0         0         0         0
         0         0         0         0         0         0         0         0
         0         0         0         0         0         0         0         0
         0         0         0         0         0         0         0         0
         0         0         0         0         0         0         0         0
         0         0         0         0         0         0         0         0
         0         0         0         0         0         0         0         0
         0         0         0         0         0         0         0         0
         0         0         0         0         0         0         0         0
         0         0         0         0         0         0         0         0
         0         0         0         0         0         0         0         0
         0         0         0         0         0         0         0         0
         0         0         0         0         0         0         0         0
         0         0         0         0         0         0         0         0
         0         0         0         0         0         0         0         0
         0         0         0         0         0         0         0         0
         0         0         0         0         0         0         0         0
         0         0         0         0         0         0         0         0
         0         0         0         0         0         0         0         0
         0         0         0         0         0         0         0         0
         0         0         0         0         0         0         0         0
         0         0         0         0         0         0         0         0
         0         0         0         0         0         0         0         0
         0         0         0         0         0         0         0         0
         0         0         0         0         0         0         0         0
         0         0         0         0         0         0         0         0
         0         0         0         0         0         0         0         0
         0         0         0         0         0         0         0         0
         0         0         0         0         0         0         0         0
         0         0         0         0         0         0         0         0
         0         0         0         0         0         0         0         0
         0         0         0         0         0         0         0         0
         0         0         0         0         0         0         0         0
         0         0         0         0         0         0         0         0
         0         0         0         0         0         0         0         0
         0         0         0         0         0         0         0         0
         0         0         0         0         0         0         0         0
         0         0         0         0         0         0         0         0
         0         0         0         0         0         0         0         0
         0         0         0         0         0         0         0         0
         0         0         0         0         0         0         0         0
         0         0         0         0         0         0         0         0
         0         0         0         0         0         0         0         0
         0         0         0         0         0         0         0         0
         0         0         0         0         0         0         0         0
         0         0         0         0         0         0         0         0
         0         0         0         0         0         0         0         0
         0         0         0         0         0         0         0         0
         0         0         0         0         0         0         0         0
         0         0         0         0         0         0         0         0
         0         0         0         0         0         0         0         0
         0         0         0         0         0         0         0         0
         0         0         0         0         0         0         0         0
         0         0         0         0         0         0         0         0
         0         0         0         0         0         0         0         0
         0         0         0         0         0         0         0         0
         0         0         0         0         0         0         0         0
         0         0         0         0         0         0         0         0
         0         0         0         0         0         0         0         0
         0         0         0         0         0         0         0         0
         0         0         0         0         0         0         0         0
         0         0         0         0         0         0         0         0
         0         0         0         0         0         0         0         0
         0         0         0         0         0         0         0         0
         0         0         0         0         0         0         0         0
         0         0         0         0         0         0         0         0
         0         0         0         0         0         0         0         0
         0         0         0         0         0         0         0         0
         0         0         0         0         0         0         0         0
         0         0         0         0         0         0         0         0
         0         0         0         0         0         0         0         0
         0         0         0         0         0         0         0         0
         0         0         0         0         0         0         0         0
         0         0         0         0         0         0         0         0
         0         0         0         0         0         0         0         0
         0         0         0         0         0         0         0         0
         0         0         0         0         0         0         0         0
         0         0         0         0         0         0         0         0
         0         0         0         0         0         0         0         0
         0         0         0         0         0         0         0         0
         0         0         0         0         0         0         0         0
         0         0         0         0         0         0         0         0
         0         0         0         0         0         0         0         0
         0         0         0         0         0         0         0         0
         0         0         0         0         0         0         0         0
         0         0         0         0         0         0         0         0
         0         0         0         0         0         0         0         0
         0         0         0         0         0         0         0         0
         0         0         0         0         0         0         0         0
         0         0         0         0         0         0         0         0
         0         0         0         0         0         0         0         0
         0         0         0         0         0         0         0         0
         0         0         0         0         0         0         0         0
         0         0         0         0         0         0         0         0
         0         0         0         0         0         0         0         0
         0         0         0         0         0         0         0         0
         0         0         0         0         0         0         0         0
         0         0         0         0         0         0         0         0
         0         0         0         0         0         0         0         0
         0         0         0         0         0         0         0         0
         0         0         0         0         0         0         0         0
         0         0         0         0         0         0         0         0
         0         0         0         0         0         0         0         0
         0         0         0         0         0         0         0         0
         0         0         0         0         0         0         0         0
         0         0         0         0         0         0         0         0
         0         0         0         0         0         0         0         0
         0         0         0         0         0         0         0         0
         0         0         0         0         0         0         0         0
         0         0         0         0         0         0         0         0
         0         0         0         0         0         0         0         0
         0         0         0         0         0         0         0         0
         0         0         0         0         0         0         0         0
         0         0         0         0         0         0         0         0
         0         0         0         0         0         0         0         0
         0         0         0         0         0         0         0         0
         0         0         0         0         0         0         0         0
         0         0         0         0         0         0         0         0
         0         0         0         0         0         0         0         0
         0         0         0         0         0         0         0         0
         0         0         0         0         0         0         0         0
         0         0         0         0         0         0         0         0
         0         0         0         0         0         0         0         0
         0         0         0         0         0         0         0         0
         0         0         0         0         0         0         0         0
         0         0         0         0         0         0         0         0
         0         0         0         0         0         0         0         0
         0         0         0         0         0         0         0         0
         0         0         0         0         0         0         0         0
         0         0         0         0         0         0         0         0
         0         0         0         0         0         0         0         0
         0         0         0         0         0         0         0         0
         0         0         0         0         0         0         0         0
         0         0         0         0         0         0         0         0
         0         0         0         0         0         0         0         0
         0         0         0         0         0         0         0         0
         0         0         0         0         0         0         0         0
         0         0         0         0         0         0         0         0
         0         0         0         0         0         0         0         0
         0         0         0         0         0         0         0         0
         0         0         0         0         0         0         0         0
         0         0         0         0         0         0         0         0
         0         0         0         0         0         0         0         0
         0         0         0         0         0         0         0         0
         0         0         0         0         0         0         0         0
         0         0         0         0         0         0         0         0
         0         0         0         0         0         0         0         0
         0         0         0         0         0         0         0         0
         0         0         0         0         0         0         0         0
         0         0         0         0         0         0         0         0
         0         0         0         0         0         0         0         0
         0         0         0         0         0         0         0         0
         0         0         0         0         0         0         0         0
         0         0         0         0         0         0         0         0
         0         0         0         0         0         0         0         0
         0         0         0         0         0         0         0         0
         0         0         0         0         0         0         0         0
         0         0         0         0         0         0         0         0
         0         0         0         0         0         0         0         0
         0         0         0         0         0         0         0         0
         0         0         0         0         0         0         0         0
         0         0         0         0         0         0         0         0
         0         0         0         0         0         0         0         0
         0         0         0         0         0         0         0         0
         0         0         0         0         0         0         0         0
         0         0         0         0         0         0         0         0
         0         0         0         0         0         0         0         0
         0         0         0         0         0         0         0         0
         0         0         0         0         0         0         0         0
         0         0         0         0         0         0         0         0
         0         0         0         0         0         0         0         0
         0         0         0         0         0         0         0         0
         0         0         0         0         0         0         0         0
         0         0         0         0         0         0         0         0
         0         0         0         0         0         0         0         0
         0         0         0         0         0         0         0         0
         0         0         0         0         0         0         0         0
         0         0         0         0         0         0         0         0
         0         0         0         0         0         0         0         0
         0         0         0         0         0         0         0         0
         0         0         0         0         0         0         0         0
         0         0         0         0         0         0         0         0
         0         0         0         0         0         0         0         0
         0         0         0         0         0         0         0         0
         0         0         0         0         0         0         0         0
         0         0         0         0         0         0         0         0
         0         0         0         0         0         0         0         0
         0         0         0         0         0         0         0         0
         0         0         0         0         0         0         0         0
         0         0         0         0         0         0         0         0
         0         0         0         0         0         0         0         0
         0         0         0         0         0         0         0         0
         0         0         0         0         0         0         0         0
         0         0         0         0         0         0         0         0
         0         0         0         0         0         0         0         0
         0         0         0         0         0         0         0         0
         0         0         0         0         0         0         0         0
         0         0         0         0         0         0         0         0
         0         0         0         0         0         0         0         0
         0         0         0         0         0         0         0         0
         0         0         0         0         0         0         0         0
         0         0         0         0         0         0         0         0
         0         0         0         0         0         0         0         0
         0         0         0         0         0         0         0         0
         0         0         0         0         0         0         0         0
         0         0         0         0         0         0         0         0
         0         0         0         0         0         0         0         0
         0         0         0         0         0         0         0         0
         0         0         0         0         0         0         0         0
         0         0         0         0         0         0         0         0
         0         0         0         0         0         0         0         0
         0         0         0         0         0         0         0         0
         0         0         0         0         0         0         0         0
         0         0         0         0         0         0         0         0
         0         0         0         0         0         0         0         0
         0         0         0         0         0         0         0         0
         0         0         0         0         0         0         0         0
         0         0         0         0         0         0         0         0
         0         0         0         0         0         0         0         0
         0         0         0         0         0         0         0         0
         0         0         0         0         0         0         0         0
         0         0         0         0         0         0         0         0
         0         0         0         0         0         0         0         0
         0         0         0         0         0         0         0         0
         0         0         0         0         0         0         0         0
         0         0         0         0         0         0         0         0
         0         0         0         0         0         0         0         0
         0         0         0         0         0         0         0         0
         0         0         0         0         0         0         0         0
         0         0         0         0         0         0         0         0
         0         0         0         0         0         0         0         0
         0         0         0         0         0         0         0         0
         0         0         0         0         0         0         0         0
         0         0         0         0         0         0         0         0
         0         0         0         0         0         0         0         0
         0         0         0         0         0         0         0         0
         0         0         0         0         0         0         0         0
         0         0         0         0         0         0         0         0
         0         0         0         0         0         0         0         0
         0         0         0         0         0         0         0         0
         0         0         0         0         0         0         0         0
         0         0         0         0         0         0         0         0
         0         0         0         0         0         0         0         0
         0         0         0         0         0         0         0         0
         0         0         0         0         0         0         0         0
         0         0         0         0         0         0         0         0
         0         0         0         0         0         0         0         0
         0         0         0         0         0         0         0         0
         0         0         0         0         0         0         0         0
         0         0         0         0         0         0         0         0
         0         0         0         0         0         0         0         0
         0         0         0         0         0         0         0         0
         0         0         0         0         0         0         0         0
         0         0         0         0         0         0         0         0
         0         0         0         0         0         0         0         0
         0         0         0         0         0         0         0         0
         0         0         0         0         0         0         0         0
         0         0         0         0         0         0         0         0
         0         0         0         0         0         0         0         0
         0         0         0         0         0         0         0         0
         0         0         0         0         0         0         0         0
         0         0         0         0         0         0         0         0
         0         0         0         0         0         0         0         0
         0         0         0         0         0         0         0         0
         0         0         0         0         0         0         0         0
         0         0         0         0         0         0         0         0
         0         0         0         0         0         0         0         0
         0         0         0         0         0         0         0         0
         0         0         0         0         0         0         0         0
         0         0         0         0         0         0         0         0
         0         0         0         0         0         0         0         0
         0         0         0         0         0         0         0         0
         0         0         0         0         0         0         0         0
         0         0         0         0         0         0         0         0
         0         0         0         0         0         0         0         0
         0         0         0         0         0         0         0         0
         0         0         0         0         0         0         0         0
         0         0         0         0         0         0         0         0
         0         0         0         0         0         0         0         0
         0         0         0         0         0         0         0         0
         0         0         0         0         0         0         0         0
         0         0         0         0         0         0         0         0
         0         0         0         0         0         0         0         0
         0         0         0         0         0         0         0         0
         0         0         0         0         0         0         0         0
         0         0         0         0         0         0         0         0
         0         0         0         0         0         0         0         0
         0         0         0         0         0         0         0         0
         0         0         0         0         0         0         0         0
         0         0         0         0         0         0         0         0
         0         0         0         0         0         0         0         0
         0         0         0         0         0         0         0         0
         0         0         0         0         0         0         0         0
         0         0         0         0         0         0         0         0
         0         0         0         0         0         0         0         0
         0         0         0         0         0         0         0         0
         0         0         0         0         0         0         0         0
         0         0         0         0         0         0         0         0
         0         0         0         0         0         0         0         0
         0         0         0         0         0         0         0         0
         0         0         0         0         0         0         0         0
         0         0         0         0         0         0         0         0
         0         0         0         0         0         0         0         0
         0         0         0         0         0         0         0         0
         0         0         0         0         0         0         0         0
         0         0         0         0         0         0         0         0
         0         0         0         0         0         0         0         0
         0         0         0         0         0         0         0         0
         0         0         0         0         0         0         0         0
         0         0         0         0         0         0         0         0
         0         0         0         0         0         0         0         0
         0         0         0         0         0         0         0         0
         0         0         0         0         0         0         0         0
         0         0         0         0         0         0         0         0
         0         0         0         0         0         0         0         0
         0         0         0         0         0         0         0         0
         0         0         0         0         0         0         0         0
         0         0         0         0         0         0         0         0
         0         0         0         0         0         0         0         0
         0         0         0         0         0         0         0         0
         0         0         0         0         0         0         0         0
         0         0         0         0         0         0         0         0
         0         0         0         0         0         0         0         0
         0         0         0         0         0         0         0         0
         0         0         0         0         0         0         0         0
         0         0         0         0         0         0         0         0
         0         0         0         0         0         0         0         0
         0         0         0         0         0         0         0         0
         0         0         0         0         0         0         0         0
         0         0         0         0         0         0         0         0
         0         0         0         0         0         0         0         0
         0         0         0         0         0         0         0         0
         0         0         0         0         0         0         0         0
         0         0         0         0         0         0         0         0
         0         0         0         0         0         0         0         0
         0         0         0         0         0         0         0         0
         0         0         0         0         0         0         0         0
         0         0         0         0         0         0         0         0
         0         0         0         0         0         0         0         0
         0         0         0         0         0         0         0         0
         0         0         0         0         0         0         0         0
         0         0         0         0         0         0         0         0
         0         0         0         0         0         0         0         0
         0         0         0         0         0         0         0         0
         0         0         0         0         0         0         0         0
         0         0         0         0         0         0         0         0
         0         0         0         0         0         0         0         0
         0         0         0         0         0         0         0         0
         0         0         0         0         0         0         0         0
         0         0         0         0         0         0         0         0
         0         0         0         0         0         0         0         0
         0         0         0         0         0         0         0         0
         0         0         0         0         0         0         0         0
         0         0         0         0         0         0         0         0
         0         0         0         0         0         0         0         0
         0         0         0         0         0         0         0         0
         0         0         0         0         0         0         0         0
         0         0         0         0         0         0         0         0
         0         0         0         0         0         0         0         0
         0         0         0         0         0         0         0         0
         0         0         0         0         0         0         0         0
         0         0         0         0         0         0         0         0
         0         0         0         0         0         0         0         0
         0         0         0         0         0         0         0         0
         0         0         0         0         0         0         0         0
         0         0         0         0         0         0         0         0
         0         0         0         0         0         0         0         0
         0         0         0         0         0         0         0         0
         0         0         0         0         0         0         0         0
         0         0         0         0         0         0         0         0
         0         0         0         0         0         0         0         0
         0         0         0         0         0         0         0         0
         0         0         0         0         0         0         0         0
         0         0         0         0         0         0         0         0
         0         0         0         0         0         0         0         0
         0         0         0         0         0         0         0         0
         0         0         0         0         0         0         0         0
         0         0         0         0         0         0         0         0
         0         0         0         0         0         0         0         0
         0         0         0         0         0         0         0         0
         0         0         0         0         0         0         0         0
         0         0         0         0         0         0         0         0
         0         0         0         0         0         0         0         0
         0         0         0         0         0         0         0         0
         0         0         0         0         0         0         0         0
         0         0         0         0         0         0         0         0
         0         0         0         0         0         0         0         0
         0         0         0         0         0         0         0         0
         0         0         0         0         0         0         0         0
         0         0         0         0         0         0         0         0
         0         0         0         0         0         0         0         0
         0         0         0         0         0         0         0         0
         0         0         0         0         0         0         0         0
         0         0         0         0         0         0         0         0
         0         0         0         0         0         0         0         0
         0         0         0         0         0         0         0         0
         0         0         0         0         0         0         0         0
         0         0         0         0         0         0         0         0
         0         0         0         0         0         0         0         0
         0         0         0         0         0         0         0         0
         0         0         0         0         0         0         0         0
         0         0         0         0         0         0         0         0
         0         0         0         0         0         0         0         0
         0         0         0         0         0         0         0         0
         0         0         0         0         0         0         0         0
         0         0         0         0         0         0         0         0
         0         0         0         0         0         0         0         0
         0         0         0         0         0         0         0         0
         0         0         0         0         0         0         0         0
         0         0         0         0         0         0         0         0
         0         0         0         0         0         0         0         0
         0         0         0         0         0         0         0         0
         0         0         0         0         0         0         0         0
         0         0         0         0         0         0         0         0
         0         0         0         0         0         0         0         0
         0         0         0         0         0         0         0         0
         0         0         0         0         0         0         0         0
         0         0         0         0         0         0         0         0
         0         0         0         0         0         0         0         0
         0         0         0         0         0         0         0         0
         0         0         0         0         0         0         0         0
         0         0         0         0         0         0         0         0
         0         0         0         0         0         0         0         0
         0         0         0         0         0         0         0         0
         0         0         0         0         0         0         0         0
         0         0         0         0         0         0         0         0
         0         0         0         0         0         0         0         0
         0         0         0         0         0         0         0         0
         0         0         0         0         0         0         0         0
         0         0         0         0         0         0         0         0
         0         0         0         0         0         0         0         0
         0         0         0         0         0         0         0         0
         0         0         0         0         0         0         0         0
         0         0         0         0         0         0         0         0
         0         0         0         0         0         0         0         0
         0         0         0         0         0         0         0         0
         0         0         0         0         0         0         0         0
         0         0         0         0         0         0         0         0
         0         0         0         0         0         0         0         0
         0         0         0         0         0         0         0         0
         0         0         0         0         0         0         0         0
         0         0         0         0         0         0         0         0
         0         0         0         0         0         0         0         0
         0         0         0         0         0         0         0         0
         0         0         0         0         0         0         0         0
         0         0         0         0         0         0         0         0
         0         0         0         0         0         0         0         0
         0         0         0         0         0         0         0         0
         0         0         0         0         0         0         0         0
         0         0         0         0         0         0         0         0
         0         0         0         0         0         0         0         0
         0         0         0         0         0         0         0         0
         0         0         0         0         0         0         0         0
         0         0         0         0         0         0         0         0
         0         0         0         0         0         0         0         0
         0         0         0         0         0         0         0         0
         0         0         0         0         0         0         0         0
         0         0         0         0         0         0         0         0
         0         0         0         0         0         0         0         0
         0         0         0         0         0         0         0         0
         0         0         0         0         0         0         0         0
         0         0         0         0         0         0         0         0
         0         0         0         0         0         0         0         0
         0         0         0         0         0         0         0         0
         0         0         0         0         0         0         0         0
         0         0         0         0         0         0         0         0
         0         0         0         0         0         0         0         0
         0         0         0         0         0         0         0         0
         0         0         0         0         0         0         0         0
         0         0         0         0         0         0         0         0
         0         0         0         0         0         0         0         0
         0         0         0         0         0         0         0         0
         0         0         0         0         0         0         0         0
         0         0         0         0         0         0         0         0
         0         0         0         0         0         0         0         0
         0         0         0         0         0         0         0         0
         0         0         0         0         0         0         0         0
         0         0         0         0         0         0         0         0
         0         0         0         0         0         0         0         0
         0         0         0         0         0         0         0         0
         0         0         0         0         0         0         0         0
         0         0         0         0         0         0         0         0
         0         0         0         0         0         0         0         0
         0         0         0         0         0         0         0         0
         0         0         0         0         0         0         0         0
         0         0         0         0         0         0         0         0
         0         0         0         0         0         0         0         0
         0         0         0         0         0         0         0         0
         0         0         0         0         0         0         0         0
         0         0         0         0         0         0         0         0
         0         0         0         0         0         0         0         0
         0         0         0         0         0         0         0         0
         0         0         0         0         0         0         0         0
         0         0         0         0         0         0         0         0
         0         0         0         0         0         0         0         0
         0         0         0         0         0         0         0         0
         0         0         0         0         0         0         0         0
         0         0         0         0         0         0         0         0
         0         0         0         0         0         0         0         0
         0         0         0         0         0         0         0         0
         0         0         0         0         0         0         0         0
         0         0         0         0         0         0         0         0
         0         0         0         0         0         0         0         0
         0         0         0         0         0         0         0         0
         0         0         0         0         0         0         0         0
         0         0         0         0         0         0         0         0
         0         0         0         0         0         0         0         0
         0         0         0         0         0         0         0         0
         0         0         0         0         0         0         0         0
         0         0         0         0         0         0         0         0
         0         0         0         0         0         0         0         0
         0         0         0         0         0         0         0         0
         0         0         0         0         0         0         0         0
         0         0         0         0         0         0         0         0
         0         0         0         0         0         0         0         0
         0         0         0         0         0         0         0         0
         0         0         0         0         0         0         0         0
         0         0         0         0         0         0         0         0
         0         0         0         0         0         0         0         0
         0         0         0         0         0         0         0         0
         0         0         0         0         0         0         0         0
         0         0         0         0         0         0         0         0
         0         0         0         0         0         0         0         0
         0         0         0         0         0         0         0         0
         0         0         0         0         0         0         0         0
         0         0         0         0         0         0         0         0
         0         0         0         0         0         0         0         0
         0         0         0         0         0         0         0         0
         0         0         0         0         0         0         0         0
         0         0         0         0         0         0         0         0
         0         0         0         0         0         0         0         0
         0         0         0         0         0         0         0         0
         0         0         0         0         0         0         0         0
         0         0         0         0         0         0         0         0
         0         0         0         0         0         0         0         0
         0         0         0         0         0         0         0         0
         0         0         0         0         0         0         0         0
         0         0         0         0         0         0         0         0
         0         0         0         0         0         0         0         0
         0         0         0         0         0         0         0         0
         0         0         0         0         0         0         0         0
         0         0         0         0         0         0         0         0
         0         0         0         0         0         0         0         0
         0         0         0         0         0         0         0         0
         0         0         0         0         0         0         0         0
         0         0         0         0         0         0         0         0
         0         0         0         0         0         0         0         0
         0         0         0         0         0         0         0         0
         0         0         0         0         0         0         0         0
         0         0         0         0         0         0         0         0
         0         0         0         0         0         0         0         0
         0         0         0         0         0         0         0         0
         0         0         0         0         0         0         0         0
         0         0         0         0         0         0         0         0
         0         0         0         0         0         0         0         0
         0         0         0         0         0         0         0         0
         0         0         0         0         0         0         0         0
         0         0         0         0         0         0         0         0
         0         0         0         0         0         0         0         0
         0         0         0         0         0         0         0         0
         0         0         0         0         0         0         0         0
         0         0         0         0         0         0         0         0
         0         0         0         0         0         0         0         0
         0         0         0         0         0         0         0         0
         0         0         0         0         0         0         0         0
         0         0         0         0         0         0         0         0
         0         0         0         0         0         0         0         0
         0         0         0         0         0         0         0         0
         0         0         0         0         0         0         0         0
         0         0         0         0         0         0         0         0
         0         0         0         0         0         0         0         0
         0         0         0         0         0         0         0         0
         0         0         0         0         0         0         0         0
         0         0         0         0         0         0         0         0
         0         0         0         0         0         0         0         0
         0         0         0         0         0         0         0         0
         0         0         0         0         0         0         0         0
         0         0         0         0         0         0         0         0
         0         0         0         0         0         0         0         0
         0         0         0         0         0         0         0         0
         0         0         0         0         0         0         0         0
         0         0         0         0         0         0         0         0
         0         0         0         0         0         0         0         0
         0         0         0         0         0         0         0         0
         0         0         0         0         0         0         0         0
         0         0         0         0         0         0         0         0
         0         0         0         0         0         0         0         0
         0         0         0         0         0         0         0         0
         0         0         0         0         0         0         0         0
         0         0         0         0         0         0         0         0
         0         0         0         0         0         0         0         0
         0         0         0         0         0         0         0         0
         0         0         0         0         0         0         0         0
         0         0         0         0         0         0         0         0
         0         0         0         0         0         0         0         0
         0         0         0         0         0         0         0         0
         0         0         0         0         0         0         0         0
         0         0         0         0         0         0         0         0
         0         0         0         0         0         0         0         0
         0         0         0         0         0         0         0         0
         0         0         0         0         0         0         0         0
         0         0         0         0         0         0         0         0
         0         0         0         0         0         0         0         0
         0         0         0         0         0         0         0         0
         0         0         0         0         0         0         0         0
         0         0         0         0         0         0         0         0
         0         0         0         0         0         0         0         0
         0         0         0         0         0         0         0         0
         0         0         0         0         0         0         0         0
         0         0         0         0         0         0         0         0
         0         0         0         0         0         0         0         0
         0         0         0         0         0         0         0         0
         0         0         0         0         0         0         0         0
         0         0         0         0         0         0         0         0
         0         0         0         0         0         0         0         0
         0         0         0         0         0         0         0         0
         0         0         0         0         0         0         0         0
         0         0         0         0         0         0         0         0
         0         0         0         0         0         0         0         0
         0         0         0         0         0         0         0         0
         0         0         0         0         0         0         0         0
         0         0         0         0         0         0         0         0
         0         0         0         0         0         0         0         0
         0         0         0         0         0         0         0         0
         0         0         0         0         0         0         0         0
         0         0         0         0         0         0         0         0
         0         0         0         0         0         0         0         0
         0         0         0         0         0         0         0         0
         0         0         0         0         0         0         0         0
         0         0         0         0         0         0         0         0
         0         0         0         0         0         0         0         0
         0         0         0         0         0         0         0         0
         0         0         0         0         0         0         0         0
         0         0         0         0         0         0         0         0
         0         0         0         0         0         0         0         0
         0         0         0         0         0         0         0         0
         0         0         0         0         0         0         0         0
         0         0         0         0         0         0         0         0
         0         0         0         0         0         0         0         0
         0         0         0         0         0         0         0         0
         0         0         0         0         0         0         0         0
         0         0         0         0         0         0         0         0
         0         0         0         0         0         0         0         0
         0         0         0         0         0         0         0         0
         0         0         0         0         0         0         0         0
         0         0         0         0         0         0         0         0
         0         0         0         0         0         0         0         0
         0         0         0         0         0         0         0         0
         0         0         0         0         0         0         0         0
         0         0         0         0         0         0         0         0
         0         0         0         0         0         0         0         0
         0         0         0         0         0         0         0         0
         0         0         0         0         0         0         0         0
         0         0         0         0         0         0         0         0
         0         0         0         0         0         0         0         0
         0         0         0         0         0         0         0         0
         0         0         0         0         0         0         0         0
         0         0         0         0         0         0         0         0
         0         0         0         0         0         0         0         0
         0         0         0         0         0         0         0         0
         0         0         0         0         0         0         0         0
         0         0         0         0         0         0         0         0
         0         0         0         0         0         0         0         0
         0         0         0         0         0         0         0         0
         0         0         0         0         0         0         0         0
         0         0         0         0         0         0         0         0
         0         0         0         0         0         0         0         0
         0         0         0         0         0         0         0         0
         0         0         0         0         0         0         0         0
         0         0         0         0         0         0         0         0
         0         0         0         0         0         0         0         0
         0         0         0         0         0         0         0         0
         0         0         0         0         0         0         0         0
         0         0         0         0         0         0         0         0
         0         0         0         0         0         0         0         0
         0         0         0         0         0         0         0         0
         0         0         0         0         0         0         0         0
         0         0         0         0         0         0         0         0
         0         0         0         0         0         0         0         0
         0         0         0         0         0         0         0         0
         0         0         0         0         0         0         0         0
         0         0         0         0         0         0         0         0
         0         0         0         0         0         0         0         0
         0         0         0         0         0         0         0         0
         0         0         0         0         0         0         0         0
         0         0         0         0         0         0         0         0
         0         0         0         0         0         0         0         0
         0         0         0         0         0         0         0         0
         0         0         0         0         0         0         0         0
         0         0         0         0         0         0         0         0
         0         0         0         0         0         0         0         0
         0         0         0         0         0         0         0         0
         0         0         0         0         0         0         0         0
         0         0         0         0         0         0         0         0
         0         0         0         0         0         0         0         0
         0         0         0         0         0         0         0         0
         0         0         0         0         0         0         0         0
         0         0         0         0         0         0         0         0
         0         0         0         0         0         0         0         0
         0         0         0         0         0         0         0         0
         0         0         0         0         0         0         0         0
         0         0         0         0         0         0         0         0
         0         0         0         0         0         0         0         0
         0         0         0         0         0         0         0         0
         0         0         0         0         0         0         0         0
         0         0         0         0         0         0         0         0
         0         0         0         0         0         0         0         0
         0         0         0         0         0         0         0         0
         0         0         0         0         0         0         0         0
         0         0         0         0         0         0         0         0
         0         0         0         0         0         0         0         0
         0         0         0         0         0         0         0         0
         0         0         0         0         0         0         0         0
         0         0         0         0         0         0         0         0
         0         0         0         0         0         0         0         0
         0         0         0         0         0         0         0         0
         0         0         0         0         0         0         0         0
         0         0         0         0         0         0         0         0
         0         0         0         0         0         0         0         0
         0         0         0         0         0         0         0         0
         0         0         0         0         0         0         0         0
         0         0         0         0         0         0         0         0
         0         0         0         0         0         0         0         0
         0         0         0         0         0         0         0         0
         0         0         0         0         0         0         0         0
         0         0         0         0         0         0         0         0
         0         0         0         0         0         0         0         0
         0         0         0         0         0         0         0         0
         0         0         0         0         0         0         0         0
         0         0         0         0         0         0         0         0
         0         0         0         0         0         0         0         0
         0         0         0         0         0         0         0         0
         0         0         0         0         0         0         0         0
         0         0         0         0         0         0         0         0
         0         0         0         0         0         0         0         0
         0         0         0         0         0         0         0         0
         0         0         0         0         0         0         0         0
         0         0         0         0         0         0         0         0
         0         0         0         0         0         0         0         0
         0         0         0         0         0         0         0         0
         0         0         0         0         0         0         0         0
         0         0         0         0         0         0         0         0
         0         0         0         0         0         0         0         0
         0         0         0         0         0         0         0         0
         0         0         0         0         0         0         0         0
         0         0         0         0         0         0         0         0
         0         0         0         0         0         0         0         0
         0         0         0         0         0         0         0         0
         0         0         0         0         0         0         0         0
         0         0         0         0         0         0         0         0
         0         0         0         0         0         0         0         0
         0         0         0         0         0         0         0         0
         0         0         0         0         0         0         0         0
         0         0         0         0         0         0         0         0
         0         0         0         0         0         0         0         0
         0         0         0         0         0         0         0         0
         0         0         0         0         0         0         0         0
         0         0         0         0         0         0         0         0
         0         0         0         0         0         0         0         0
         0         0         0         0         0         0         0         0
         0         0         0         0         0         0         0         0
         0         0         0         0         0         0         0         0
         0         0         0         0         0         0         0         0
         0         0         0         0         0         0         0         0
         0         0         0         0         0         0         0         0
         0         0         0         0         0         0         0         0
         0         0         0         0         0         0         0         0
         0         0         0         0         0         0         0         0
         0         0         0         0         0         0         0         0
         0         0         0         0         0         0         0         0
         0         0         0         0         0         0         0         0
         0         0         0         0         0         0         0         0
         0         0         0         0         0         0         0         0
         0         0         0         0         0         0         0         0
         0         0         0         0         0         0         0         0
         0         0         0         0         0         0         0         0
         0         0         0         0         0         0         0         0
         0         0         0         0         0         0         0         0
         0         0         0         0         0         0         0         0
         0         0         0         0         0         0         0         0
         0         0         0         0         0         0         0         0
         0         0         0         0         0         0         0         0
         0         0         0         0         0         0         0         0
         0         0         0         0         0         0         0         0
         0         0         0         0         0         0         0         0
         0         0         0         0         0         0         0         0
         0         0         0         0         0         0         0         0
         0         0         0         0         0         0         0         0
         0         0         0         0         0         0         0         0
         0         0         0         0         0         0         0         0
         0         0         0         0         0         0         0         0
         0         0         0         0         0         0         0         0
         0         0         0         0         0         0         0         0
         0         0         0         0         0         0         0         0
         0         0         0         0         0         0         0         0
         0         0         0         0         0         0         0         0
         0         0         0         0         0         0         0         0
         0         0         0         0         0         0         0         0
         0         0         0         0         0         0         0         0
         0         0         0         0         0         0         0         0
         0         0         0         0         0         0         0         0
         0         0         0         0         0         0         0         0
         0         0         0         0         0         0         0         0
         0         0         0         0         0         0         0         0
         0         0         0         0         0         0         0         0
         0         0         0         0         0         0         0         0
         0         0         0         0         0         0         0         0
         0         0         0         0         0         0         0         0
         0         0         0         0         0         0         0         0
         0         0         0         0         0         0         0         0
         0         0         0         0         0         0         0         0
         0         0         0         0         0         0         0         0
         0         0         0         0         0         0         0         0
         0         0         0         0         0         0         0         0
         0         0         0         0         0         0         0         0
         0         0         0         0         0         0         0         0
         0         0         0         0         0         0         0         0
         0         0         0         0         0         0         0         0
         0         0         0         0         0         0         0         0
         0         0         0         0         0         0         0         0
         0         0         0         0         0         0         0         0
         0         0         0         0         0         0         0         0
         0         0         0         0         0         0         0         0
         0         0         0         0         0         0         0         0
         0         0         0         0         0         0         0         0
         0         0         0         0         0         0         0         0
         0         0         0         0         0         0         0         0
         0         0         0         0         0         0         0         0
         0         0         0         0         0         0         0         0
         0         0         0         0         0         0         0         0
         0         0         0         0         0         0         0         0
         0         0         0         0         0         0         0         0
         0         0         0         0         0         0         0         0
         0         0         0         0         0         0         0         0
         0         0         0         0         0         0         0         0
         0         0         0         0         0         0         0         0
         0         0         0         0         0         0         0         0
         0         0         0         0         0         0         0         0
         0         0         0         0         0         0         0         0
         0         0         0         0         0         0         0         0
         0         0         0         0         0         0         0         0
         0         0         0         0         0         0         0         0
         0         0         0         0         0         0         0         0
         0         0         0         0         0         0         0         0
         0         0         0         0         0         0         0         0
         0         0         0         0         0         0         0         0
         0         0         0         0         0         0         0         0
         0         0         0         0         0         0         0         0
         0         0         0         0         0         0         0         0
         0         0         0         0         0         0         0         0
         0         0         0         0         0         0         0         0
         0         0         0         0         0         0         0         0
         0         0         0         0         0         0         0         0
         0         0         0         0         0         0         0         0
         0         0         0         0         0         0         0         0
         0         0         0         0         0         0         0         0
         0         0         0         0         0         0         0         0
         0         0         0         0         0         0         0         0
         0         0         0         0         0         0         0         0
         0         0         0         0         0         0         0         0
         0         0         0         0         0         0         0         0
         0         0         0         0         0         0         0         0
         0         0         0         0         0         0         0         0
         0         0         0         0         0         0         0         0
         0         0         0         0         0         0         0         0
         0         0         0         0         0         0         0         0
         0         0         0         0         0         0         0         0
         0         0         0         0         0         0         0         0
         0         0         0         0         0         0         0         0
         0         0         0         0         0         0         0         0
         0         0         0         0         0         0         0         0
         0         0         0         0         0         0         0         0
         0         0         0         0         0         0         0         0
         0         0         0         0         0         0         0         0
         0         0         0         0         0         0         0         0
         0         0         0         0         0         0         0         0
         0         0         0         0         0         0         0         0
         0         0         0         0         0         0         0         0
         0         0         0         0         0         0         0         0
         0         0         0         0         0         0         0         0
         0         0         0         0         0         0         0         0
         0         0         0         0         0         0         0         0
         0         0         0         0         0         0         0         0
         0         0         0         0         0         0         0         0
         0         0         0         0         0         0         0         0
         0         0         0         0         0         0         0         0
         0         0         0         0         0         0         0         0
         0         0         0         0         0         0         0         0
         0         0         0         0         0         0         0         0
         0         0         0         0         0         0         0         0
         0         0         0         0         0         0         0         0
         0         0         0         0         0         0         0         0
         0         0         0         0         0         0         0         0
         0         0         0         0         0         0         0         0
         0         0         0         0         0         0         0         0
         0         0         0         0         0         0         0         0
         0         0         0         0         0         0         0         0
         0         0         0         0         0         0         0         0
         0         0         0         0         0         0         0         0
         0         0         0         0         0         0         0         0
         0         0         0         0         0         0         0         0
         0         0         0         0         0         0         0         0
         0         0         0         0         0         0         0         0
         0         0         0         0         0         0         0         0
         0         0         0         0         0         0         0         0
         0         0         0         0         0         0         0         0
         0         0         0         0         0         0         0         0
         0         0         0         0         0         0         0         0
         0         0         0         0         0         0         0         0
         0         0         0         0         0         0         0         0
         0         0         0         0         0         0         0         0
         0         0         0         0         0         0         0         0
         0         0         0         0         0         0         0         0
         0         0         0         0         0         0         0         0
         0         0         0         0         0         0         0         0
         0         0         0         0         0         0         0         0
         0         0         0         0         0         0         0         0
         0         0         0         0         0         0         0         0
         0         0         0         0         0         0         0         0
         0         0         0         0         0         0         0         0
         0         0         0         0         0         0         0         0
         0         0         0         0         0         0         0         0
         0         0         0         0         0         0         0         0
         0         0         0         0         0         0         0         0
         0         0         0         0         0         0         0         0
         0         0         0         0         0         0         0         0
         0         0         0         0         0         0         0         0
         0         0         0         0         0         0         0         0
         0         0         0         0         0         0         0         0
         0         0         0         0         0         0         0         0
         0         0         0         0         0         0         0         0
         0         0         0         0         0         0         0         0
         0         0         0         0         0         0         0         0
         0         0         0         0         0         0         0         0
         0         0         0         0         0         0         0         0
         0         0         0         0         0         0         0         0
         0         0         0         0         0         0         0         0
         0         0         0         0         0         0         0         0
         0         0         0         0         0         0         0         0
         0         0         0         0         0         0         0         0
         0         0         0         0         0         0         0         0
         0         0         0         0         0         0         0         0
         0         0         0         0         0         0         0         0
         0         0         0         0         0         0         0         0
         0         0         0         0         0         0         0         0
         0         0         0         0         0         0         0         0
         0         0         0         0         0         0         0         0
         0         0         0         0         0         0         0         0
         0         0         0         0         0         0         0         0
         0         0         0         0         0         0         0         0
         0         0         0         0         0         0         0         0
         0         0         0         0         0         0         0         0
         0         0         0         0         0         0         0         0
         0         0         0         0         0         0         0         0
         0         0         0         0         0         0         0         0
         0         0         0         0         0         0         0         0
         0         0         0         0         0         0         0         0
         0         0         0         0         0         0         0         0
         0         0         0         0         0         0         0         0
         0         0         0         0         0         0         0         0
         0         0         0         0         0         0         0         0
         0         0         0         0         0         0         0         0
         0         0         0         0         0         0         0         0
         0         0         0         0         0         0         0         0
         0         0         0         0         0         0         0         0
         0         0         0         0         0         0         0         0
         0         0         0         0         0         0         0         0
         0         0         0         0         0         0         0         0
         0         0         0         0         0         0         0         0
         0         0         0         0         0         0         0         0
         0         0         0         0         0         0         0         0
         0         0         0         0         0         0         0         0
         0         0         0         0         0         0         0         0
         0         0         0         0         0         0         0         0
         0         0         0         0         0         0         0         0
         0         0         0         0         0         0         0         0
         0         0         0         0         0         0         0         0
         0         0         0         0         0         0         0         0
         0         0         0         0         0         0         0         0
         0         0         0         0         0         0         0         0
         0         0         0         0         0         0         0         0
         0         0         0         0         0         0         0         0
         0         0         0         0         0         0         0         0
         0         0         0         0         0         0         0         0
         0         0         0         0         0         0         0         0
         0         0         0         0         0         0         0         0
         0         0         0         0         0         0         0         0
         0         0         0         0         0         0         0         0
         0         0         0         0         0         0         0         0
         0         0         0         0         0         0         0         0
         0         0         0         0         0         0         0         0
         0         0         0         0         0         0         0         0
         0         0         0         0         0         0         0         0
         0         0         0         0         0         0         0         0
         0         0         0         0         0         0         0         0
         0         0         0         0         0         0         0         0
         0         0         0         0         0         0         0         0
         0         0         0         0         0         0         0         0
         0         0         0         0         0         0         0         0
         0         0         0         0         0         0         0         0
         0         0         0         0         0         0         0         0
         0         0         0         0         0         0         0         0
         0         0         0         0         0         0         0         0
         0         0         0         0         0         0         0         0
         0         0         0         0         0         0         0         0
         0         0         0         0         0         0         0         0
         0         0         0         0         0         0         0         0
         0         0         0         0         0         0         0         0
         0         0         0         0         0         0         0         0
         0         0         0         0         0         0         0         0
         0         0         0         0         0         0         0         0
         0         0         0         0         0         0         0         0
         0         0         0         0         0         0         0         0
         0         0         0         0         0         0         0         0
         0         0         0         0         0         0         0         0
         0         0         0         0         0         0         0         0
         0         0         0         0         0         0         0         0
         0         0         0         0         0         0         0         0
         0         0         0         0         0         0         0         0
         0         0         0         0         0         0         0         0
         0         0         0         0         0         0         0         0
         0         0         0         0         0         0         0         0
         0         0         0         0         0         0         0         0
         0         0         0         0         0         0         0         0
         0         0         0         0         0         0         0         0
         0         0         0         0         0         0         0         0
         0         0         0         0         0         0         0         0
         0         0         0         0         0         0         0         0
         0         0         0         0         0         0         0         0
         0         0         0         0         0         0         0         0
         0         0         0         0         0         0         0         0
         0         0         0         0         0         0         0         0
         0         0         0         0         0         0         0         0
         0         0         0         0         0         0         0         0
         0         0         0         0         0         0         0         0
         0         0         0         0         0         0         0         0
         0         0         0         0         0         0         0         0
         0         0         0         0         0         0         0         0
         0         0         0         0         0         0         0         0
         0         0         0         0         0         0         0         0
         0         0         0         0         0         0         0         0
         0         0         0         0         0         0         0         0
         0         0         0         0         0         0         0         0
         0         0         0         0         0         0         0         0
         0         0         0         0         0         0         0         0
         0         0         0         0         0         0         0         0
         0         0         0         0         0         0         0         0
         0         0         0         0         0         0         0         0
         0         0         0         0         0         0         0         0
         0         0         0         0         0         0         0         0
         0         0         0         0         0         0         0         0
         0         0         0         0         0         0         0         0
         0         0         0         0         0         0         0         0
         0         0         0         0         0         0         0         0
         0         0         0         0         0         0         0         0
         0         0         0         0         0         0         0         0
         0         0         0         0         0         0         0         0
         0         0         0         0         0         0         0         0
         0         0         0         0         0         0         0         0
         0         0         0         0         0         0         0         0
         0         0         0         0         0         0         0         0
         0         0         0         0         0         0         0         0
         0         0         0         0         0         0         0         0
         0         0         0         0         0         0         0         0
         0         0         0         0         0         0         0         0
         0         0         0         0         0         0         0         0
         0         0         0         0         0         0         0         0
         0         0         0         0         0         0         0         0
         0         0         0         0         0         0         0         0
         0         0         0         0         0         0         0         0
         0         0         0         0         0         0         0         0
         0         0         0         0         0         0         0         0
         0         0         0         0         0         0         0         0
         0         0         0         0         0         0         0         0
         0         0         0         0         0         0         0         0
         0         0         0         0         0         0         0         0
         0         0         0         0         0         0         0         0
         0         0         0         0         0         0         0         0
         0         0         0         0         0         0         0         0
         0         0         0         0         0         0         0         0
         0         0         0         0         0         0         0         0
         0         0         0         0         0         0         0         0
         0         0         0         0         0         0         0         0
         0         0         0         0         0         0         0         0
         0         0         0         0         0         0         0         0
         0         0         0         0         0         0         0         0
         0         0         0         0         0         0         0         0
         0         0         0         0         0         0         0         0
         0         0         0         0         0         0         0         0
         0         0         0         0         0         0         0         0
         0         0         0         0         0         0         0         0
         0         0         0         0         0         0         0         0
         0         0         0         0         0         0         0         0
         0         0         0         0         0         0         0         0
         0         0         0         0         0         0         0         0
         0         0         0         0         0         0         0         0
         0         0         0         0         0         0         0         0
         0         0         0         0         0         0         0         0
         0         0         0         0         0         0         0         0
         0         0         0         0         0         0         0         0
         0         0         0         0         0         0         0         0
         0         0         0         0         0         0         0         0
         0         0         0         0         0         0         0         0
         0         0         0         0         0         0         0         0
         0         0         0         0         0         0         0         0
         0         0         0         0         0         0         0         0
         0         0         0         0         0         0         0         0
         0         0         0         0         0         0         0         0
         0         0         0         0         0         0         0         0
         0         0         0         0         0         0         0         0
         0         0         0         0         0         0         0         0
         0         0         0         0         0         0         0         0
         0         0         0         0         0         0         0         0
         0         0         0         0         0         0         0         0
         0         0         0         0         0         0         0         0
         0         0         0         0         0         0         0         0
         0         0         0         0         0         0         0         0
         0         0         0         0         0         0         0         0
         0         0         0         0         0         0         0         0
         0         0         0         0         0         0         0         0
         0         0         0         0         0         0         0         0
         0         0         0         0         0         0         0         0
         0         0         0         0         0         0         0         0
         0         0         0         0         0         0         0         0
         0         0         0         0         0         0         0         0
         0         0         0         0         0         0         0         0
         0         0         0         0         0         0         0         0
         0         0         0         0         0         0         0         0
         0         0         0         0         0         0         0         0
         0         0         0         0         0         0         0         0
         0         0         0         0         0         0         0         0
         0         0         0         0         0         0         0         0
         0         0         0         0         0         0         0         0
         0         0         0         0         0         0         0         0
         0         0         0         0         0         0         0         0
         0         0         0         0         0         0         0         0
         0         0         0         0         0         0         0         0
         0         0         0         0         0         0         0         0
         0         0         0         0         0         0         0         0
         0         0         0         0         0         0         0         0
         0         0         0         0         0         0         0         0
         0         0         0         0         0         0         0         0
         0         0         0         0         0         0         0         0
         0         0         0         0         0         0         0         0
         0         0         0         0         0         0         0         0
         0         0         0         0         0         0         0         0
         0         0         0         0         0         0         0         0
         0         0         0         0         0         0         0         0
         0         0         0         0         0         0         0         0
         0         0         0         0         0         0         0         0
         0         0         0         0         0         0         0         0
         0         0         0         0         0         0         0         0
         0         0         0         0         0         0         0         0
         0         0         0         0         0         0         0         0
         0         0         0         0         0         0         0         0
         0         0         0         0         0         0         0         0
         0         0         0         0         0         0         0         0
         0         0         0         0         0         0         0         0
         0         0         0         0         0         0         0         0
         0         0         0         0         0         0         0         0
         0         0         0         0         0         0         0         0
         0         0         0         0         0         0         0         0
         0         0         0         0         0         0         0         0
         0         0         0         0         0         0         0         0
         0         0         0         0         0         0         0         0
         0         0         0         0         0         0         0         0
         0         0         0         0         0         0         0         0
         0         0         0         0         0         0         0         0
         0         0         0         0         0         0         0         0
         0         0         0         0         0         0         0         0
         0         0         0         0         0         0         0         0
         0         0         0         0         0         0         0         0
         0         0         0         0         0         0         0         0
         0         0         0         0         0         0         0         0
         0         0         0         0         0         0         0         0
         0         0         0         0         0         0         0         0
         0         0         0         0         0         0         0         0
         0         0         0         0         0         0         0         0
         0         0         0         0         0         0         0         0
         0         0         0         0         0         0         0         0
         0         0         0         0         0         0         0         0
         0         0         0         0         0         0         0         0
         0         0         0         0         0         0         0         0
         0         0         0         0         0         0         0         0
         0         0         0         0         0         0         0         0
         0         0         0         0         0         0         0         0
         0         0         0         0         0         0         0         0
         0         0         0         0         0         0         0         0
         0         0         0         0         0         0         0         0
         0         0         0         0         0         0         0         0
         0         0         0         0         0         0         0         0
         0         0         0         0         0         0         0         0
         0         0         0         0         0         0         0         0
         0         0         0         0         0         0         0         0
         0         0         0         0         0         0         0         0
         0         0         0         0         0         0         0         0
         0         0         0         0         0         0         0         0
         0         0         0         0         0         0         0         0
         0         0         0         0         0         0         0         0
         0         0         0         0         0         0         0         0
         0         0         0         0         0         0         0         0
         0         0         0         0         0         0         0         0
         0         0         0         0         0         0         0         0
         0         0         0         0         0         0         0         0
         0         0         0         0         0         0         0         0
         0         0         0         0         0         0         0         0
         0         0         0         0         0         0         0         0
         0         0         0         0         0         0         0         0
         0         0         0         0         0         0         0         0
         0         0         0         0         0         0         0         0
         0         0         0         0         0         0         0         0
         0         0         0         0         0         0         0         0
         0         0         0         0         0         0         0         0
         0         0         0         0         0         0         0         0
         0         0         0         0         0         0         0         0
         0         0         0         0         0         0         0         0
         0         0         0         0         0         0         0         0
         0         0         0         0         0         0         0         0
         0         0         0         0         0         0         0         0
         0         0         0         0         0         0         0         0
         0         0         0         0         0         0         0         0
         0         0         0         0         0         0         0         0
         0         0         0         0         0         0         0         0
         0         0         0         0         0         0         0         0
         0         0         0         0         0         0         0         0
         0         0         0         0         0         0         0         0
         0         0         0         0         0         0         0         0
         0         0         0         0         0         0         0         0
         0         0         0         0         0         0         0         0
         0         0         0         0         0         0         0         0
         0         0         0         0         0         0         0         0
         0         0         0         0         0         0         0         0
         0         0         0         0         0         0         0         0
         0         0         0         0         0         0         0         0
         0         0         0         0         0         0         0         0
         0         0         0         0         0         0         0         0
         0         0         0         0         0         0         0         0
         0         0         0         0         0         0         0         0
         0         0         0         0         0         0         0         0
         0         0         0         0         0         0         0         0
         0         0         0         0         0         0         0         0
         0         0         0         0         0         0         0         0
         0         0         0         0         0         0         0         0
         0         0         0         0         0         0         0         0
         0         0         0         0         0         0         0         0
         0         0         0         0         0         0         0         0
         0         0         0         0         0         0         0         0
         0         0         0         0         0         0         0         0
         0         0         0         0         0         0         0         0
         0         0         0         0         0         0         0         0
         0         0         0         0         0         0         0         0
         0         0         0         0         0         0         0         0
         0         0         0         0         0         0         0         0
         0         0         0         0         0         0         0         0
         0         0         0         0         0         0         0         0
         0         0         0         0         0         0         0         0
         0         0         0         0         0         0         0         0
         0         0         0         0         0         0         0         0
         0         0         0         0         0         0         0         0
         0         0         0         0         0         0         0         0
         0         0         0         0         0         0         0         0
         0         0         0         0         0         0         0         0
         0         0         0         0         0         0         0         0
         0         0         0         0         0         0         0         0
         0         0         0         0         0         0         0         0
         0         0         0         0         0         0         0         0
         0         0         0         0         0         0         0         0
         0         0         0         0         0         0         0         0
         0         0         0         0         0         0         0         0
         0         0         0         0         0         0         0         0
         0         0         0         0         0         0         0         0
         0         0         0         0         0         0         0         0
         0         0         0         0         0         0         0         0
         0         0         0         0         0         0         0         0
         0         0         0         0         0         0         0         0
         0         0         0         0         0         0         0         0
         0         0         0         0         0         0         0         0
         0         0         0         0         0         0         0         0
         0         0         0         0         0         0         0         0
         0         0         0         0         0         0         0         0
         0         0         0         0         0         0         0         0
         0         0         0         0         0         0         0         0
         0         0         0         0         0         0         0         0
         0         0         0         0         0         0         0         0
         0         0         0         0         0         0         0         0
         0         0         0         0         0         0         0         0
         0         0         0         0         0         0         0         0
         0         0         0         0         0         0         0         0
         0         0         0         0         0         0         0         0
         0         0         0         0         0         0         0         0
         0         0         0         0         0         0         0         0
         0         0         0         0         0         0         0         0
         0         0         0         0         0         0         0         0
         0         0         0         0         0         0         0         0
         0         0         0         0         0         0         0         0
         0         0         0         0         0         0         0         0
         0         0         0         0         0         0         0         0
         0         0         0         0         0         0         0         0
         0         0         0         0         0         0         0         0
         0         0         0         0         0         0         0         0
         0         0         0         0         0         0         0         0
         0         0         0         0         0         0         0         0
         0         0         0         0         0         0         0         0
         0         0         0         0         0         0         0         0
         0         0         0         0         0         0         0         0
         0         0         0         0         0         0         0         0
         0         0         0         0         0         0         0         0
         0         0         0         0         0         0         0         0
         0         0         0         0         0         0         0         0
         0         0         0         0         0         0         0         0
         0         0         0         0         0         0         0         0
         0         0         0         0         0         0         0         0
         0         0         0         0         0         0         0         0
         0         0         0         0         0         0         0         0
         0         0         0         0         0         0         0         0
         0         0         0         0         0         0         0         0
         0         0         0         0         0         0         0         0
         0         0         0         0         0         0         0         0
         0         0         0         0         0         0         0         0
         0         0         0         0         0         0         0         0
         0         0         0         0         0         0         0         0
         0         0         0         0         0         0         0         0
         0         0         0         0         0         0         0         0
         0         0         0         0         0         0         0         0
         0         0         0         0         0         0         0         0
         0         0         0         0         0         0         0         0
         0         0         0         0         0         0         0         0
         0         0         0         0         0         0         0         0
         0         0         0         0         0         0         0         0
         0         0         0         0         0         0         0         0
         0         0         0         0         0         0         0         0
         0         0         0         0         0         0         0         0
         0         0         0         0         0         0         0         0
         0         0         0         0         0         0         0         0
         0         0         0         0         0         0         0         0
         0         0         0         0         0         0         0         0
         0         0         0         0         0         0         0         0
         0         0         0         0         0         0         0         0
         0         0         0         0         0         0         0         0
         0         0         0         0         0         0         0         0
         0         0         0         0         0         0         0         0
         0         0         0         0         0         0         0         0
         0         0         0         0         0         0         0         0
         0         0         0         0         0         0         0         0
         0         0         0         0         0         0         0         0
         0         0         0         0         0         0         0         0
         0         0         0         0         0         0         0         0
         0         0         0         0         0         0         0         0
         0         0         0         0         0         0         0         0
         0         0         0         0         0         0         0         0
         0         0         0         0         0         0         0         0
         0         0         0         0         0         0         0         0
         0         0         0         0         0         0         0         0
         0         0         0         0         0         0         0         0
         0         0         0         0         0         0         0         0
         0         0         0         0         0         0         0         0
         0         0         0         0         0         0         0         0
         0         0         0         0         0         0         0         0
         0         0         0         0         0         0         0         0
         0         0         0         0         0         0         0         0
         0         0         0         0         0         0         0         0
         0         0         0         0         0         0         0         0
         0         0         0         0         0         0         0         0
         0         0         0         0         0         0         0         0
         0         0         0         0         0         0         0         0
         0         0         0         0         0         0         0         0
         0         0         0         0         0         0         0         0
         0         0         0         0         0         0         0         0
         0         0         0         0         0         0         0         0
         0         0         0         0         0         0         0         0
         0         0         0         0         0         0         0         0
         0         0         0         0         0         0         0         0
         0         0         0         0         0         0         0         0
         0         0         0         0         0         0         0         0
         0         0         0         0         0         0         0         0
         0         0         0         0         0         0         0         0
         0         0         0         0         0         0         0         0
         0         0         0         0         0         0         0         0
         0         0         0         0         0         0         0         0
         0         0         0         0         0         0         0         0
         0         0         0         0         0         0         0         0
         0         0         0         0         0         0         0         0
         0         0         0         0         0         0         0         0
         0         0         0         0         0         0         0         0
         0         0         0         0         0         0         0         0
         0         0         0         0         0         0         0         0
         0         0         0         0         0         0         0         0
         0         0         0         0         0         0         0         0
         0         0         0         0         0         0         0         0
         0         0         0         0         0         0         0         0
         0         0         0         0         0         0         0         0
         0         0         0         0         0         0         0         0
         0         0         0         0         0         0         0         0
         0         0         0         0         0         0         0         0
         0         0         0         0         0         0         0         0
         0         0         0         0         0         0         0         0
         0         0         0         0         0         0         0         0
         0         0         0         0         0         0         0         0
         0         0         0         0         0         0         0         0
         0         0         0         0         0         0         0         0
         0         0         0         0         0         0         0         0
         0         0         0         0         0         0         0         0
         0         0         0         0         0         0         0         0
         0         0         0         0         0         0         0         0
         0         0         0         0         0         0         0         0
         0         0         0         0         0         0         0         0
         0         0         0         0         0         0         0         0
         0         0         0         0         0         0         0         0
         0         0         0         0         0         0         0         0
         0         0         0         0         0         0         0         0
         0         0         0         0         0         0         0         0
         0         0         0         0         0         0         0         0
         0         0         0         0         0         0         0         0
         0         0         0         0         0         0         0         0
         0         0         0         0         0         0         0         0
         0         0         0         0         0         0         0         0
         0         0         0         0         0         0         0         0
         0         0         0         0         0         0         0         0
         0         0         0         0         0         0         0         0
         0         0         0         0         0         0         0         0
         0         0         0         0         0         0         0         0
         0         0         0         0         0         0         0         0
         0         0         0         0         0         0         0         0
         0         0         0         0         0         0         0         0
         0         0         0         0         0         0         0         0
         0         0         0         0         0         0         0         0
         0         0         0         0         0         0         0         0
         0         0         0         0         0         0         0         0
         0         0         0         0         0         0         0         0
         0         0         0         0         0         0         0         0
         0         0         0         0         0         0         0         0
         0         0         0         0         0         0         0         0
         0         0         0         0         0         0         0         0
         0         0         0         0         0         0         0         0
         0         0         0         0         0         0         0         0
         0         0         0         0         0         0         0         0
         0         0         0         0         0         0         0         0
         0         0         0         0         0         0         0         0
         0         0         0         0         0         0         0         0
         0         0         0         0         0         0         0         0
         0         0         0         0         0         0         0         0
         0         0         0         0         0         0         0         0
         0         0         0         0         0         0         0         0
         0         0         0         0         0         0         0         0
         0         0         0         0         0         0         0         0
         0         0         0         0         0         0         0         0
         0         0         0         0         0         0         0         0
         0         0         0         0         0         0         0         0
         0         0         0         0         0         0         0         0
         0         0         0         0         0         0         0         0
         0         0         0         0         0         0         0         0
         0         0         0         0         0         0         0         0
         0         0         0         0         0         0         0         0
         0         0         0         0         0         0         0         0
         0         0         0         0         0         0         0         0
         0         0         0         0         0         0         0         0
         0         0         0         0         0         0         0         0
         0         0         0         0         0         0         0         0
         0         0         0         0         0         0         0         0
         0         0         0         0         0         0         0         0
         0         0         0         0         0         0         0         0
         0         0         0         0         0         0         0         0
         0         0         0         0         0         0         0         0
         0         0         0         0         0         0         0         0
         0         0         0         0         0         0         0         0
         0         0         0         0         0         0         0         0
         0         0         0         0         0         0         0         0
         0         0         0         0         0         0         0         0
         0         0         0         0         0         0         0         0
         0         0         0         0         0         0         0         0
         0         0         0         0         0         0         0         0
         0         0         0         0         0         0         0         0
         0         0         0         0         0         0         0         0
         0         0         0         0         0         0         0         0
         0         0         0         0         0         0         0         0
         0         0         0         0         0         0         0         0
         0         0         0         0         0         0         0         0
         0         0         0         0         0         0         0         0
         0         0         0         0         0         0         0         0
         0         0         0         0         0         0         0         0
         0         0         0         0         0         0         0         0
         0         0         0         0         0         0         0         0
         0         0         0         0         0         0         0         0
         0         0         0         0         0         0         0         0
         0         0         0         0         0         0         0         0
         0         0         0         0         0         0         0         0
         0         0         0         0         0         0         0         0
         0         0         0         0         0         0         0         0
         0         0         0         0         0         0         0         0
         0         0         0         0         0         0         0         0
         0         0         0         0         0         0         0         0
         0         0         0         0         0         0         0         0
         0         0         0         0         0         0         0         0
         0         0         0         0         0         0         0         0
         0         0         0         0         0         0         0         0
         0         0         0         0         0         0         0         0
         0         0         0         0         0         0         0         0
         0         0         0         0         0         0         0         0
         0         0         0         0         0         0         0         0
         0         0         0         0         0         0         0         0
         0         0         0         0         0         0         0         0
         0         0         0         0         0         0         0         0
         0         0         0         0         0         0         0         0
         0         0         0         0         0         0         0         0
         0         0         0         0         0         0         0         0
         0         0         0         0         0         0         0         0
         0         0         0         0         0         0         0         0
         0         0         0         0         0         0         0         0
         0         0         0         0         0         0         0         0
         0         0         0         0         0         0         0         0
         0         0         0         0         0         0         0         0
         0         0         0         0         0         0         0         0
         0         0         0         0         0         0         0         0
         0         0         0         0         0         0         0         0
         0         0         0         0         0         0         0         0
         0         0         0         0         0         0         0         0
         0         0         0         0         0         0         0         0
         0         0         0         0         0         0         0         0
         0         0         0         0         0         0         0         0
         0         0         0         0         0         0         0         0
         0         0         0         0         0         0         0         0
         0         0         0         0         0         0         0         0
         0         0         0         0         0         0         0         0
         0         0         0         0         0         0         0         0
         0         0         0         0         0         0         0         0
         0         0         0         0         0         0         0         0
         0         0         0         0         0         0         0         0
         0         0         0         0         0         0         0         0
         0         0         0         0         0         0         0         0
         0         0         0         0         0         0         0         0
         0         0         0         0         0         0         0         0
         0         0         0         0         0         0         0         0
         0         0         0         0         0         0         0         0
         0         0         0         0         0         0         0         0
         0         0         0         0         0         0         0         0
         0         0         0         0         0         0         0         0
         0         0         0         0         0         0         0         0
         0         0         0         0         0         0         0         0
         0         0         0         0         0         0         0         0
         0         0         0         0         0         0         0         0
         0         0         0         0         0         0         0         0
         0         0         0         0         0         0         0         0
         0         0         0         0         0         0         0         0
         0         0         0         0         0         0         0         0
         0         0         0         0         0         0         0         0
         0         0         0         0         0         0         0         0
         0         0         0         0         0         0         0         0
         0         0         0         0         0         0         0         0
         0         0         0         0         0         0         0         0
         0         0         0         0         0         0         0         0
         0         0         0         0         0         0         0         0
         0         0         0         0         0         0         0         0
         0         0         0         0         0         0         0         0
         0         0         0         0         0         0         0         0
         0         0         0         0         0         0         0         0
         0         0         0         0         0         0         0         0
         0         0         0         0         0         0         0         0
         0         0         0         0         0         0         0         0
         0         0         0         0         0         0         0         0
         0         0         0         0         0         0         0         0
         0         0         0         0         0         0         0         0
         0         0         0         0         0         0         0         0
         0         0         0         0         0         0         0         0
         0         0         0         0         0         0         0         0
         0         0         0         0         0         0         0         0
         0         0         0         0         0         0         0         0
         0         0         0         0         0         0         0         0
         0         0         0         0         0         0         0         0
         0         0         0         0         0         0         0         0
         0         0         0         0         0         0         0         0
         0         0         0         0         0         0         0         0
         0         0         0         0         0         0         0         0
         0         0         0         0         0         0         0         0
         0         0         0         0         0         0         0         0
         0         0         0         0         0         0         0         0
         0         0         0         0         0         0         0         0
         0         0         0         0         0         0         0         0
         0         0         0         0         0         0         0         0
         0         0         0         0         0         0         0         0
         0         0         0         0         0         0         0         0
         0         0         0         0         0         0         0         0
         0         0         0         0         0         0         0         0
         0         0         0         0         0         0         0         0
         0         0         0         0         0         0         0         0
         0         0         0         0         0         0         0         0
         0         0         0         0         0         0         0         0
         0         0         0         0         0         0         0         0
         0         0         0         0         0         0         0         0
         0         0         0         0         0         0         0         0
         0         0         0         0         0         0         0         0
         0         0         0         0         0         0         0         0
         0         0         0         0         0         0         0         0
         0         0         0         0         0         0         0         0
         0         0         0         0         0         0         0         0
         0         0         0         0         0         0         0         0
         0         0         0         0         0         0         0         0
         0         0         0         0         0         0         0         0
         0         0         0         0         0         0         0         0
         0         0         0         0         0         0         0         0
         0         0         0         0         0         0         0         0
         0         0         0         0         0         0         0         0
         0         0         0         0         0         0         0         0
         0         0         0         0         0         0         0         0
         0         0         0         0         0         0         0         0
         0         0         0         0         0         0         0         0
         0         0         0         0         0         0         0         0
         0         0         0         0         0         0         0         0
         0         0         0         0         0         0         0         0
         0         0         0         0         0         0         0         0
         0         0         0         0         0         0         0         0
         0         0         0         0         0         0         0         0
         0         0         0         0         0         0         0         0
         0         0         0         0         0         0         0         0
         0         0         0         0         0         0         0         0
         0         0         0         0         0         0         0         0
         0         0         0         0         0         0         0         0
         0         0         0         0         0         0         0         0
         0         0         0         0         0         0         0         0
         0         0         0         0         0         0         0         0
         0         0         0         0         0         0         0         0
         0         0         0         0         0         0         0         0
         0         0         0         0         0         0         0         0
         0         0         0         0         0         0         0         0
         0         0         0         0         0         0         0         0
         0         0         0         0         0         0         0         0
         0         0         0         0         0         0         0         0
         0         0         0         0         0         0         0         0
         0         0         0         0         0         0         0         0
         0         0         0         0         0         0         0         0
         0         0         0         0         0         0         0         0
         0         0         0         0         0         0         0         0
         0         0         0         0         0         0         0         0
         0         0         0         0         0         0         0         0
         0         0         0         0         0         0         0         0
         0         0         0         0         0         0         0         0
         0         0         0         0         0         0         0         0
         0         0         0         0         0         0         0         0
         0         0         0         0         0         0         0         0
         0         0         0         0         0         0         0         0
         0         0         0         0         0         0         0         0
         0         0         0         0         0         0         0         0
         0         0         0         0         0         0         0         0
         0         0         0         0         0         0         0         0
         0         0         0         0         0         0         0         0
         0         0         0         0         0         0         0         0
         0         0         0         0         0         0         0         0
         0         0         0         0         0         0         0         0
         0         0         0         0         0         0         0         0
         0         0         0         0         0         0         0         0
         0         0         0         0         0         0         0         0
         0         0         0         0         0         0         0         0
         0         0         0         0         0         0         0         0
         0         0         0         0         0         0         0         0
         0         0         0         0         0         0         0         0
         0         0         0         0         0         0         0         0
         0         0         0         0         0         0         0         0
         0         0         0         0         0         0         0         0
         0         0         0         0         0         0         0         0
         0         0         0         0         0         0         0         0
         0         0         0         0         0         0         0         0
         0         0         0         0         0         0         0         0
         0         0         0         0         0         0         0         0
         0         0         0         0         0         0         0         0
         0         0         0         0         0         0         0         0
         0         0         0         0         0         0         0         0
         0         0         0         0         0         0         0         0
         0         0         0         0         0         0         0         0
         0         0         0         0         0         0         0         0
         0         0         0         0         0         0         0         0
         0         0         0         0         0         0         0         0
         0         0         0         0         0         0         0         0
         0         0         0         0         0         0         0         0
         0         0         0         0         0         0         0         0
         0         0         0         0         0         0         0         0
         0         0         0         0         0         0         0         0
         0         0         0         0         0         0         0         0
         0         0         0         0         0         0         0         0
         0         0         0         0         0         0         0         0
         0         0         0         0         0         0         0         0
         0         0         0         0         0         0         0         0
         0         0         0         0         0         0         0         0
         0         0         0         0         0         0         0         0
         0         0         0         0         0         0         0         0
         0         0         0         0         0         0         0         0
         0         0         0         0         0         0         0         0
         0         0         0         0         0         0         0         0
         0         0         0         0         0         0         0         0
         0         0         0         0         0         0         0         0
         0         0         0         0         0         0         0         0
         0         0         0         0         0         0         0         0
         0         0         0         0         0         0         0         0
         0         0         0         0         0         0         0         0
         0         0         0         0         0         0         0         0
         0         0         0         0         0         0         0         0
         0         0         0         0         0         0         0         0
         0         0         0         0         0         0         0         0
         0         0         0         0         0         0         0         0
         0         0         0         0         0         0         0         0
         0         0         0         0         0         0         0         0
         0         0         0         0         0         0         0         0
         0         0         0         0         0         0         0         0
         0         0         0         0         0         0         0         0
         0         0         0         0         0         0         0         0
         0         0         0         0         0         0         0         0
         0         0         0         0         0         0         0         0
         0         0         0         0         0         0         0         0
         0         0         0         0         0         0         0         0
         0         0         0         0         0         0         0         0
         0         0         0         0         0         0         0         0
         0         0         0         0         0         0         0         0
         0         0         0         0         0         0         0         0
         0         0         0         0         0         0         0         0
         0         0         0         0         0         0         0         0
         0         0         0         0         0         0         0         0
         0         0         0         0         0         0         0         0
         0         0         0         0         0         0         0         0
         0         0         0         0         0         0         0         0
         0         0         0         0         0         0         0         0
         0         0         0         0         0         0         0         0
         0         0         0         0         0         0         0         0
         0         0         0         0         0         0         0         0
         0         0         0         0         0         0         0         0
         0         0         0         0         0         0         0         0
         0         0         0         0         0         0         0         0
         0         0         0         0         0         0         0         0
         0         0         0         0         0         0         0         0
         0         0         0         0         0         0         0         0
         0         0         0         0         0         0         0         0
         0         0         0         0         0         0         0         0
         0         0         0         0         0         0         0         0
         0         0         0         0         0         0         0         0
         0         0         0         0         0         0         0         0
         0         0         0         0         0         0         0         0
         0         0         0         0         0         0         0         0
         0         0         0         0         0         0         0         0
         0         0         0         0         0         0         0         0
         0         0         0         0         0         0         0         0
         0         0         0         0         0         0         0         0
         0         0         0         0         0         0         0         0
         0         0         0         0         0         0         0         0
         0         0         0         0         0         0         0         0
         0         0         0         0         0         0         0         0
         0         0         0         0         0         0         0         0
         0         0         0         0         0         0         0         0
         0         0         0         0         0         0         0         0
         0         0         0         0         0         0         0         0
         0         0         0         0         0         0         0         0
         0         0         0         0         0         0         0         0
         0         0         0         0         0         0         0         0
         0         0         0         0         0         0         0         0
         0         0         0         0         0         0         0         0
         0         0         0         0         0         0         0         0
         0         0         0         0         0         0         0         0
         0         0         0         0         0         0         0         0
         0         0         0         0         0         0         0         0
         0         0         0         0         0         0         0         0
         0         0         0         0         0         0         0         0
         0         0         0         0         0         0         0         0
         0         0         0         0         0         0         0         0
         0         0         0         0         0         0         0         0
         0         0         0         0         0         0         0         0
         0         0         0         0         0         0         0         0
         0         0         0         0         0         0         0         0
         0         0         0         0         0         0         0         0
         0         0         0         0         0         0         0         0
         0         0         0         0         0         0         0         0
         0         0         0         0         0         0         0         0
         0         0         0         0         0         0         0         0
         0         0         0         0         0         0         0         0
         0         0         0         0         0         0         0         0
         0         0         0         0         0         0         0         0
         0         0         0         0         0         0         0         0
         0         0         0         0         0         0         0         0
         0         0         0         0         0         0         0         0
         0         0         0         0         0         0         0         0
         0         0         0         0         0         0         0         0
         0         0         0         0         0         0         0         0
         0         0         0         0         0         0         0         0
         0         0         0         0         0         0         0         0
         0         0         0         0         0         0         0         0
         0         0         0         0         0         0         0         0
         0         0         0         0         0         0         0         0
         0         0         0         0         0         0         0         0
         0         0         0         0         0         0         0         0
         0         0         0         0         0         0         0         0
         0         0         0         0         0         0         0         0
         0         0         0         0         0         0         0         0
         0         0         0         0         0         0         0         0
         0         0         0         0         0         0         0         0
         0         0         0         0         0         0         0         0
         0         0         0         0         0         0         0         0
         0         0         0         0         0         0         0         0
         0         0         0         0         0         0         0         0
         0         0         0         0         0         0         0         0
         0         0         0         0         0         0         0         0
         0         0         0         0         0         0         0         0
         0         0         0         0         0         0         0         0
         0         0         0         0         0         0         0         0
         0         0         0         0         0         0         0         0
         0         0         0         0         0         0         0         0
         0         0         0         0         0         0         0         0
         0         0         0         0         0         0         0         0
         0         0         0         0         0         0         0         0
         0         0         0         0         0         0         0         0
         0         0         0         0         0         0         0         0
         0         0         0         0         0         0         0         0
         0         0         0         0         0         0         0         0
         0         0         0         0         0         0         0         0
         0         0         0         0         0         0         0         0
         0         0         0         0         0         0         0         0
         0         0         0         0         0         0         0         0
         0         0         0         0         0         0         0         0
         0         0         0         0         0         0         0         0
         0         0         0         0         0         0         0         0
         0         0         0         0         0         0         0         0
         0         0         0         0         0         0         0         0
         0         0         0         0         0         0         0         0
         0         0         0         0         0         0         0         0
         0         0         0         0         0         0         0         0
         0         0         0         0         0         0         0         0
         0         0         0         0         0         0         0         0
         0         0         0         0         0         0         0         0
         0         0         0         0         0         0         0         0
         0         0         0         0         0         0         0         0
         0         0         0         0         0         0         0         0
         0         0         0         0         0         0         0         0
         0         0         0         0         0         0         0         0
         0         0         0         0         0         0         0         0
         0         0         0         0         0         0         0         0
         0         0         0         0         0         0         0         0
         0         0         0         0         0         0         0         0
         0         0         0         0         0         0         0         0
         0         0         0         0         0         0         0         0
         0         0         0         0         0         0         0         0
         0         0         0         0         0         0         0         0
         0         0         0         0         0         0         0         0
         0         0         0         0         0         0         0         0
         0         0         0         0         0         0         0         0
         0         0         0         0         0         0         0         0
         0         0         0         0         0         0         0         0
         0         0         0         0         0         0         0         0
         0         0         0         0         0         0         0         0
         0         0         0         0         0         0         0         0
         0         0         0         0         0         0         0         0
         0         0         0         0         0         0         0         0
         0         0         0         0         0         0         0         0
         0         0         0         0         0         0         0         0
         0         0         0         0         0         0         0         0
         0         0         0         0         0         0         0         0
         0         0         0         0         0         0         0         0
         0         0         0         0         0         0         0         0
         0         0         0         0         0         0         0         0
         0         0         0         0         0         0         0         0
         0         0         0         0         0         0         0         0
         0         0         0         0         0         0         0         0
         0         0         0         0         0         0         0         0
         0         0         0         0         0         0         0         0
         0         0         0         0         0         0         0         0
         0         0         0         0         0         0         0         0
         0         0         0         0         0         0         0         0
         0         0         0         0         0         0         0         0
         0         0         0         0         0         0         0         0
         0         0         0         0         0         0         0         0
         0         0         0         0         0         0         0         0
         0         0         0         0         0         0         0         0
         0         0         0         0         0         0         0         0
         0         0         0         0         0         0         0         0
         0         0         0         0         0         0         0         0
         0         0         0         0         0         0         0         0
         0         0         0         0         0         0         0         0
         0         0         0         0         0         0         0         0
         0         0         0         0         0         0         0         0
         0         0         0         0         0         0         0         0
         0         0         0         0         0         0         0         0
         0         0         0         0         0         0         0         0
         0         0         0         0         0         0         0         0
         0         0         0         0         0         0         0         0
         0         0         0         0         0         0         0         0
         0         0         0         0         0         0         0         0
         0         0         0         0         0         0         0         0
         0         0         0         0         0         0         0         0
         0         0         0         0         0         0         0         0
         0         0         0         0         0         0         0         0
         0         0         0         0         0         0         0         0
         0         0         0         0         0         0         0         0
         0         0         0         0         0         0         0         0
         0         0         0         0         0         0         0         0
         0         0         0         0         0         0         0         0
         0         0         0         0         0         0         0         0
         0         0         0         0         0         0         0         0
         0         0         0         0         0         0         0         0
         0         0         0         0         0         0         0         0
         0         0         0         0         0         0         0         0
         0         0         0         0         0         0         0         0
         0         0         0         0         0         0         0         0
         0         0         0         0         0         0         0         0
         0         0         0         0         0         0         0         0
         0         0         0         0         0         0         0         0
         0         0         0         0         0         0         0         0
         0         0         0         0         0         0         0         0
         0         0         0         0         0         0         0         0
         0         0         0         0         0         0         0         0
         0         0         0         0         0         0         0         0
         0         0         0         0         0         0         0         0
         0         0         0         0         0         0         0         0
         0         0         0         0         0         0         0         0
         0         0         0         0         0         0         0         0
         0         0         0         0         0         0         0         0
         0         0         0         0         0         0         0         0
         0         0         0         0         0         0         0         0
         0         0         0         0         0         0         0         0
         0         0         0         0         0         0         0         0
         0         0         0         0         0         0         0         0
         0         0         0         0         0         0         0         0
         0         0         0         0         0         0         0         0
         0         0         0         0         0         0         0         0
         0         0         0         0         0         0         0         0
         0         0         0         0         0         0         0         0
         0         0         0         0         0         0         0         0
         0         0         0         0         0         0         0         0
         0         0         0         0         0         0         0         0
         0         0         0         0         0         0         0         0
         0         0         0         0         0         0         0         0
         0         0         0         0         0         0         0         0
         0         0         0         0         0         0         0         0
         0         0         0         0         0         0         0         0
         0         0         0         0         0         0         0         0
         0         0         0         0         0         0         0         0
         0         0         0         0         0         0         0         0
         0         0         0         0         0         0         0         0
         0         0         0         0         0         0         0         0
         0         0         0         0         0         0         0         0
         0         0         0         0         0         0         0         0
         0         0         0         0         0         0         0         0
         0         0         0         0         0         0         0         0
         0         0         0         0         0         0         0         0
         0         0         0         0         0         0         0         0
         0         0         0         0         0         0         0         0
         0         0         0         0         0         0         0         0
         0         0         0         0         0         0         0         0
         0         0         0         0         0         0         0         0
         0         0         0         0         0         0         0         0
         0         0         0         0         0         0         0         0
         0         0         0         0         0         0         0         0
         0         0         0         0         0         0         0         0
         0         0         0         0         0         0         0         0
         0         0         0         0         0         0         0         0
         0         0         0         0         0         0         0         0
         0         0         0         0         0         0         0         0
         0         0         0         0         0         0         0         0
         0         0         0         0         0         0         0         0
         0         0         0         0         0         0         0         0
         0         0         0         0         0         0         0         0
         0         0         0         0         0         0         0         0
         0         0         0         0         0         0         0         0
         0         0         0         0         0         0         0         0
         0         0         0         0         0         0         0         0
         0         0         0         0         0         0         0         0
         0         0         0         0         0         0         0         0
         0         0         0         0         0         0         0         0
         0         0         0         0         0         0         0         0
         0         0         0         0         0         0         0         0
         0         0         0         0         0         0         0         0
         0         0         0         0         0         0         0         0
         0         0         0         0         0         0         0         0
         0         0         0         0         0         0         0         0
         0         0         0         0         0         0         0         0
         0         0         0         0         0         0         0         0
         0         0         0         0         0         0         0         0
         0         0         0         0         0         0         0         0
         0         0         0         0         0         0         0         0
         0         0         0         0         0         0         0         0
         0         0         0         0         0         0         0         0
         0         0         0         0         0         0         0         0
         0         0         0         0         0         0         0         0
         0         0         0         0         0         0         0         0
         0         0         0         0         0         0         0         0
         0         0         0         0         0         0         0         0
         0         0         0         0         0         0         0         0
         0         0         0         0         0         0         0         0
         0         0         0         0         0         0         0         0
         0         0         0         0         0         0         0         0
         0         0         0         0         0         0         0         0
         0         0         0         0         0         0         0         0
         0         0         0         0         0         0         0         0
         0         0         0         0         0         0         0         0
         0         0         0         0         0         0         0         0
         0         0         0         0         0         0         0         0
         0         0         0         0         0         0         0         0
         0         0         0         0         0         0         0         0
         0         0         0         0         0         0         0         0
         0         0         0         0         0         0         0         0
         0         0         0         0         0         0         0         0
         0         0         0         0         0         0         0         0
         0         0         0         0         0         0         0         0
         0         0         0         0         0         0         0         0
         0         0         0         0         0         0         0         0
         0         0         0         0         0         0         0         0
         0         0         0         0         0         0         0         0
         0         0         0         0         0         0         0         0
         0         0         0         0         0         0         0         0
         0         0         0         0         0         0         0         0
         0         0         0         0         0         0         0         0
         0         0         0         0         0         0         0         0
         0         0         0         0         0         0         0         0
         0         0         0         0         0         0         0         0
         0         0         0         0         0         0         0         0
         0         0         0         0         0         0         0         0
         0         0         0         0         0         0         0         0
         0         0         0         0         0         0         0         0
         0         0         0         0         0         0         0         0
         0         0         0         0         0         0         0         0
         0         0         0         0         0         0         0         0
         0         0         0         0         0         0         0         0
         0         0         0         0         0         0         0         0
         0         0         0         0         0         0         0         0
         0         0         0         0         0         0         0         0
         0         0         0         0         0         0         0         0
         0         0         0         0         0         0         0         0
         0         0         0         0         0         0         0         0
         0         0         0         0         0         0         0         0
         0         0         0         0         0         0         0         0
         0         0         0         0         0         0         0         0
         0         0         0         0         0         0         0         0
         0         0         0         0         0         0         0         0
         0         0         0         0         0         0         0         0
         0         0         0         0         0         0         0         0
         0         0         0         0         0         0         0         0
         0         0         0         0         0         0         0         0
         0         0         0         0         0         0         0         0
         0         0         0         0         0         0         0         0
         0         0         0         0         0         0         0         0
         0         0         0         0         0         0         0         0
         0         0         0         0         0         0         0         0
         0         0         0         0         0         0         0         0
         0         0         0         0         0         0         0         0
         0         0         0         0         0         0         0         0
         0         0         0         0         0         0         0         0
         0         0         0         0         0         0         0         0
         0         0         0         0         0         0         0         0
         0         0         0         0         0         0         0         0
         0         0         0         0         0         0         0         0
         0         0         0         0         0         0         0         0
         0         0         0         0         0         0         0         0
         0         0         0         0         0         0         0         0
         0         0         0         0         0         0         0         0
         0         0         0         0         0         0         0         0
         0         0         0         0         0         0         0         0
         0         0         0         0         0         0         0         0
         0         0         0         0         0         0         0         0
         0         0         0         0         0         0         0         0
         0         0         0         0         0         0         0         0
         0         0         0         0         0         0         0         0
         0         0         0         0         0         0         0         0
         0         0         0         0         0         0         0         0
         0         0         0         0         0         0         0         0
         0         0         0         0         0         0         0         0
         0         0         0         0         0         0         0         0
         0         0         0         0         0         0         0         0
         0         0         0         0         0         0         0         0
         0         0         0         0         0         0         0         0
         0         0         0         0         0         0         0         0
         0         0         0         0         0         0         0         0
         0         0         0         0         0         0         0         0
         0         0         0         0         0         0         0         0
         0         0         0         0         0         0         0         0
         0         0         0         0         0         0         0         0
         0         0         0         0         0         0         0         0
         0         0         0         0         0         0         0         0
         0         0         0         0         0         0         0         0
         0         0         0         0         0         0         0         0
         0         0         0         0         0         0         0         0
         0         0         0         0         0         0         0         0
         0         0         0         0         0         0         0         0
         0         0         0         0         0         0         0         0
         0         0         0         0         0         0         0         0
         0         0         0         0         0         0         0         0
         0         0         0         0         0         0         0         0
         0         0         0         0         0         0         0         0
         0         0         0         0         0         0         0         0
         0         0         0         0         0         0         0         0
         0         0         0         0         0         0         0         0
         0         0         0         0         0         0         0         0
         0         0         0         0         0         0         0         0
         0         0         0         0         0         0         0         0
         0         0         0         0         0         0         0         0
         0         0         0         0         0         0         0         0
         0         0         0         0         0         0         0         0
         0         0         0         0         0         0         0         0
         0         0         0         0         0         0         0         0
         0         0         0         0         0         0         0         0
         0         0         0         0         0         0         0         0
         0         0         0         0         0         0         0         0
         0         0         0         0         0         0         0         0
         0         0         0         0         0         0         0         0
         0         0         0         0         0         0         0         0
         0         0         0         0         0         0         0         0
         0         0         0         0         0         0         0         0
         0         0         0         0         0         0         0         0
         0         0         0         0         0         0         0         0
         0         0         0         0         0         0         0         0
         0         0         0         0         0         0         0         0
         0         0         0         0         0         0         0         0
         0         0         0         0         0         0         0         0
         0         0         0         0         0         0         0         0
         0         0         0         0         0         0         0         0
         0         0         0         0         0         0         0         0
         0         0         0         0         0         0         0         0
         0         0         0         0         0         0         0         0
         0         0         0         0         0         0         0         0
         0         0         0         0         0         0         0         0
         0         0         0         0         0         0         0         0
         0         0         0         0         0         0         0         0
         0         0         0         0         0         0         0         0
         0         0         0         0         0         0         0         0
         0         0         0         0         0         0         0         0
         0         0         0         0         0         0         0         0
         0         0         0         0         0         0         0         0
         0         0         0         0         0         0         0         0
         0         0         0         0         0         0         0         0
         0         0         0         0         0         0         0         0
         0         0         0         0         0         0         0         0
         0         0         0         0         0         0         0         0
         0         0         0         0         0         0         0         0
         0         0         0         0         0         0         0         0
         0         0         0         0         0         0         0         0
         0         0         0         0         0         0         0         0
         0         0         0         0         0         0         0         0
         0         0         0         0         0         0         0         0
         0         0         0         0         0         0         0         0
         0         0         0         0         0         0         0         0
         0         0         0         0         0         0         0         0
         0         0         0         0         0         0         0         0
         0         0         0         0         0         0         0         0
         0         0         0         0         0         0         0         0
         0         0         0         0         0         0         0         0
         0         0         0         0         0         0         0         0
         0         0         0         0         0         0         0         0
         0         0         0         0         0         0         0         0
         0         0         0         0         0         0         0         0
         0         0         0         0         0         0         0         0
         0         0         0         0         0         0         0         0
         0         0         0         0         0         0         0         0
         0         0         0         0         0         0         0         0
         0         0         0         0         0         0         0         0
         0         0         0         0         0         0         0         0
         0         0         0         0         0         0         0         0
         0         0         0         0         0         0         0         0
         0         0         0         0         0         0         0         0
         0         0         0         0         0         0         0         0
         0         0         0         0         0         0         0         0
         0         0         0         0         0         0         0         0
         0         0         0         0         0         0         0         0
         0         0         0         0         0         0         0         0
         0         0         0         0         0         0         0         0
         0         0         0         0         0         0         0         0
         0         0         0         0         0         0         0         0
         0         0         0         0         0         0         0         0
         0         0         0         0         0         0         0         0
         0         0         0         0         0         0         0         0
         0         0         0         0         0         0         0         0
         0         0         0         0         0         0         0         0
         0         0         0         0         0         0         0         0
         0         0         0         0         0         0         0         0
         0         0         0         0         0         0         0         0
         0         0         0         0         0         0         0         0
         0         0         0         0         0         0         0         0
         0         0         0         0         0         0         0         0
         0         0         0         0         0         0         0         0
         0         0         0         0         0         0         0         0
         0         0         0         0         0         0         0         0
         0         0         0         0         0         0         0         0
         0         0         0         0         0         0         0         0
         0         0         0         0         0         0         0         0
         0         0         0         0         0         0         0         0
         0         0         0         0         0         0         0         0
         0         0         0         0         0         0         0         0
         0         0         0         0         0         0         0         0
         0         0         0         0         0         0         0         0
         0         0         0         0         0         0         0         0
         0         0         0         0         0         0         0         0
         0         0         0         0         0         0         0         0
         0         0         0         0         0         0         0         0
         0         0         0         0         0         0         0         0
         0         0         0         0         0         0         0         0
         0         0         0         0         0         0         0         0
         0         0         0         0         0         0         0         0
         0         0         0         0         0         0         0         0
         0         0         0         0         0         0         0         0
         0         0         0         0         0         0         0         0
         0         0         0         0         0         0         0         0
         0         0         0         0         0         0         0         0
         0         0         0         0         0         0         0         0
         0         0         0         0         0         0         0         0
         0         0         0         0         0         0         0         0
         0         0         0         0         0         0         0         0
         0         0         0         0         0         0         0         0
         0         0         0         0         0         0         0         0
         0         0         0         0         0         0         0         0
         0         0         0         0         0         0         0         0
         0         0         0         0         0         0         0         0
         0         0         0         0         0         0         0         0
         0         0         0         0         0         0         0         0
         0         0         0         0         0         0         0         0
         0         0         0         0         0         0         0         0
         0         0         0         0         0         0         0         0
         0         0         0         0         0         0         0         0
         0         0         0         0         0         0         0         0
         0         0         0         0         0         0         0         0
         0         0         0         0         0         0         0         0
         0         0         0         0         0         0         0         0
         0         0         0         0         0         0         0         0
         0         0         0         0         0         0         0         0
         0         0         0         0         0         0         0         0
         0         0         0         0         0         0         0         0
         0         0         0         0         0         0         0         0
         0         0         0         0         0         0         0         0
         0         0         0         0         0         0         0         0
         0         0         0         0         0         0         0         0
         0         0         0         0         0         0         0         0
         0         0         0         0         0         0         0         0
         0         0         0         0         0         0         0         0
         0         0         0         0         0         0         0         0
         0         0         0         0         0         0         0         0
         0         0         0         0         0         0         0         0
         0         0         0         0         0         0         0         0
         0         0         0         0         0         0         0         0
         0         0         0         0         0         0         0         0
         0         0         0         0         0         0         0         0
         0         0         0         0         0         0         0         0
         0         0         0         0         0         0         0         0
         0         0         0         0         0         0         0         0
         0         0         0         0         0         0         0         0
         0         0         0         0         0         0         0         0
         0         0         0         0         0         0         0         0
         0         0         0         0         0         0         0         0
         0         0         0         0         0         0         0         0
         0         0         0         0         0         0         0         0
         0         0         0         0         0         0         0         0
         0         0         0         0         0         0         0         0
         0         0         0         0         0         0         0         0
         0         0         0         0         0         0         0         0
         0         0         0         0         0         0         0         0
         0         0         0         0         0         0         0         0
         0         0         0         0         0         0         0         0
         0         0         0         0         0         0         0         0
         0         0         0         0         0         0         0         0
         0         0         0         0         0         0         0         0
         0         0         0         0         0         0         0         0
         0         0         0         0         0         0         0         0
         0         0         0         0         0         0         0         0
         0         0         0         0         0         0         0         0
         0         0         0         0         0         0         0         0
         0         0         0         0         0         0         0         0
         0         0         0         0         0         0         0         0
         0         0         0         0         0         0         0         0
         0         0         0         0         0         0         0         0
         0         0         0         0         0         0         0         0
         0         0         0         0         0         0         0         0
         0         0         0         0         0         0         0         0
         0         0         0         0         0         0         0         0
         0         0         0         0         0         0         0         0
         0         0         0         0         0         0         0         0
         0         0         0         0         0         0         0         0
         0         0         0         0         0         0         0         0
         0         0         0         0         0         0         0         0
         0         0         0         0         0         0         0         0
         0         0         0         0         0         0         0         0
         0         0         0         0         0         0         0         0
         0         0         0         0         0         0         0         0
         0         0         0         0         0         0         0         0
         0         0         0         0         0         0         0         0
         0         0         0         0         0         0         0         0
         0         0         0         0         0         0         0         0
         0         0         0         0         0         0         0         0
         0         0         0         0         0         0         0         0
         0         0         0         0         0         0         0         0
         0         0         0         0         0         0         0         0
         0         0         0         0         0         0         0         0
         0         0         0         0         0         0         0         0
         0         0         0         0         0         0         0         0
         0         0         0         0         0         0         0         0
         0         0         0         0         0         0         0         0
         0         0         0         0         0         0         0         0
         0         0         0         0         0         0         0         0
         0         0         0         0         0         0         0         0
         0         0         0         0         0         0         0         0
         0         0         0         0         0         0         0         0
         0         0         0         0         0         0         0         0
         0         0         0         0         0         0         0         0
         0         0         0         0         0         0         0         0
         0         0         0         0         0         0         0         0
         0         0         0         0         0         0         0         0
         0         0         0         0         0         0         0         0
         0         0         0         0         0         0         0         0
         0         0         0         0         0         0         0         0
         0         0         0         0         0         0         0         0
         0         0         0         0         0         0         0         0
         0         0         0         0         0         0         0         0
         0         0         0         0         0         0         0         0
         0         0         0         0         0         0         0         0
         0         0         0         0         0         0         0         0
         0         0         0         0         0         0         0         0
         0         0         0         0         0         0         0         0
         0         0         0         0         0         0         0         0
         0         0         0         0         0         0         0         0
         0         0         0         0         0         0         0         0
         0         0         0         0         0         0         0         0
         0         0         0         0         0         0         0         0
         0         0         0         0         0         0         0         0
         0         0         0         0         0         0         0         0
         0         0         0         0         0         0         0         0
         0         0         0         0         0         0         0         0
         0         0         0         0         0         0         0         0
         0         0         0         0         0         0         0         0
         0         0         0         0         0         0         0         0
         0         0         0         0         0         0         0         0
         0         0         0         0         0         0         0         0
         0         0         0         0         0         0         0         0
         0         0         0         0         0         0         0         0
         0         0         0         0         0         0         0         0
         0         0         0         0         0         0         0         0
         0         0         0         0         0         0         0         0
         0         0         0         0         0         0         0         0
         0         0         0         0         0         0         0         0
         0         0         0         0         0         0         0         0
         0         0         0         0         0         0         0         0
         0         0         0         0         0         0         0         0
         0         0         0         0         0         0         0         0
         0         0         0         0         0         0         0         0
         0         0         0         0         0         0         0         0
         0         0         0         0         0         0         0         0
         0         0         0         0         0         0         0         0
         0         0         0         0         0         0         0         0
         0         0         0         0         0         0         0         0
         0         0         0         0         0         0         0         0
         0         0         0         0         0         0         0         0
         0         0         0         0         0         0         0         0
         0         0         0         0         0         0         0         0
         0         0         0         0         0         0         0         0
         0         0         0         0         0         0         0         0
         0         0         0         0         0         0         0         0
         0         0         0         0         0         0         0         0
         0         0         0         0         0         0         0         0
         0         0         0         0         0         0         0         0
         0         0         0         0         0         0         0         0
         0         0         0         0         0         0         0         0
         0         0         0         0         0         0         0         0
         0         0         0         0         0         0         0         0
         0         0         0         0         0         0         0         0
         0         0         0         0         0         0         0         0
         0         0         0         0         0         0         0         0
         0         0         0         0         0         0         0         0
         0         0         0         0         0         0         0         0
         0         0         0         0         0         0         0         0
         0         0         0         0         0         0         0         0
         0         0         0         0         0         0         0         0
         0         0         0         0         0         0         0         0
         0         0         0         0         0         0         0         0
         0         0         0         0         0         0         0         0
         0         0         0         0         0         0         0         0
         0         0         0         0         0         0         0         0
         0         0         0         0         0         0         0         0
         0         0         0         0         0         0         0         0
         0         0         0         0         0         0         0         0
         0         0         0         0         0         0         0         0
         0         0         0         0         0         0         0         0
         0         0         0         0         0         0         0         0
         0         0         0         0         0         0         0         0
         0         0         0         0         0         0         0         0
         0         0         0         0         0         0         0         0
         0         0         0         0         0         0         0         0
         0         0         0         0         0         0         0         0
         0         0         0         0         0         0         0         0
         0         0         0         0         0         0         0         0
         0         0         0         0         0         0         0         0
         0         0         0         0         0         0         0         0
         0         0         0         0         0         0         0         0
         0         0         0         0         0         0         0         0
         0         0         0         0         0         0         0         0
         0         0         0         0         0         0         0         0
         0         0         0         0         0         0         0         0
         0         0         0         0         0         0         0         0
         0         0         0         0         0         0         0         0
         0         0         0         0         0         0         0         0
         0         0         0         0         0         0         0         0
         0         0         0         0         0         0         0         0
         0         0         0         0         0         0         0         0
         0         0         0         0         0         0         0         0
         0         0         0         0         0         0         0         0
         0         0         0         0         0         0         0         0
         0         0         0         0         0         0         0         0
         0         0         0         0         0         0         0         0
         0         0         0         0         0         0         0         0
         0         0         0         0         0         0         0         0
         0         0         0         0         0         0         0         0
         0         0         0         0         0         0         0         0
         0         0         0         0         0         0         0         0
         0         0         0         0         0         0         0         0
         0         0         0         0         0         0         0         0
         0         0         0         0         0         0         0         0
         0         0         0         0         0         0         0         0
         0         0         0         0         0         0         0         0
         0         0         0         0         0         0         0         0
         0         0         0         0         0         0         0         0
         0         0         0         0         0         0         0         0
         0         0         0         0         0         0         0         0
         0         0         0         0         0         0         0         0
         0         0         0         0         0         0         0         0
         0         0         0         0         0         0         0         0
         0         0         0         0         0         0         0         0
         0         0         0         0         0         0         0         0
         0         0         0         0         0         0         0         0
         0         0         0         0         0         0         0         0
         0         0         0         0         0         0         0         0
         0         0         0         0         0         0         0         0
         0         0         0         0         0         0         0         0
         0         0         0         0         0         0         0         0
         0         0         0         0         0         0         0         0
         0         0         0         0         0         0         0         0
         0         0         0         0         0         0         0         0
         0         0         0         0         0         0         0         0
         0         0         0         0         0         0         0         0
         0         0         0         0         0         0         0         0
         0         0         0         0         0         0         0         0
         0         0         0         0         0         0         0         0
         0         0         0         0         0         0         0         0
         0         0         0         0         0         0         0         0
         0         0         0         0         0         0         0         0
         0         0         0         0         0         0         0         0
         0         0         0         0         0         0         0         0
         0         0         0         0         0         0         0         0
         0         0         0         0         0         0         0         0
         0         0         0         0         0         0         0         0
         0         0         0         0         0         0         0         0
         0         0         0         0         0         0         0         0
         0         0         0         0         0         0         0         0
         0         0         0         0         0         0         0         0
         0         0         0         0         0         0         0         0
         0         0         0         0         0         0         0         0
         0         0         0         0         0         0         0         0
         0         0         0         0         0         0         0         0
         0         0         0         0         0         0         0         0
         0         0         0         0         0         0         0         0
         0         0         0         0         0         0         0         0
         0         0         0         0         0         0         0         0
         0         0         0         0         0         0         0         0
         0         0         0         0         0         0         0         0
         0         0         0         0         0         0         0         0
         0         0         0         0         0         0         0         0
         0         0         0         0         0         0         0         0
         0         0         0         0         0         0         0         0
         0         0         0         0         0         0         0         0
         0         0         0         0         0         0         0         0
         0         0         0         0         0         0         0         0
         0         0         0         0         0         0         0         0
         0         0         0         0         0         0         0         0
         0         0         0         0         0         0         0         0
         0         0         0         0         0         0         0         0
         0         0         0         0         0         0         0         0
         0         0         0         0         0         0         0         0
         0         0         0         0         0         0         0         0
         0         0         0         0         0         0         0         0
         0         0         0         0         0         0         0         0
         0         0         0         0         0         0         0         0
         0         0         0         0         0         0         0         0
         0         0         0         0         0         0         0         0
         0         0         0         0         0         0         0         0
         0         0         0         0         0         0         0         0
         0         0         0         0         0         0         0         0
         0         0         0         0         0         0         0         0
         0         0         0         0         0         0         0         0
         0         0         0         0         0         0         0         0
         0         0         0         0         0         0         0         0
         0         0         0         0         0         0         0         0
         0         0         0         0         0         0         0         0
         0         0         0         0         0         0         0         0
         0         0         0         0         0         0         0         0
         0         0         0         0         0         0         0         0
         0         0         0         0         0         0         0         0
         0         0         0         0         0         0         0         0
         0         0         0         0         0         0         0         0
         0         0         0         0         0         0         0         0
         0         0         0         0         0         0         0         0
         0         0         0         0         0         0         0         0
         0         0         0         0         0         0         0         0
         0         0         0         0         0         0         0         0
         0         0         0         0         0         0         0         0
         0         0         0         0         0         0         0         0
         0         0         0         0         0         0         0         0
         0         0         0         0         0         0         0         0
         0         0         0         0         0         0         0         0
         0         0         0         0         0         0         0         0
         0         0         0         0         0         0         0         0
         0         0         0         0         0         0         0         0
         0         0         0         0         0         0         0         0
         0         0         0         0         0         0         0         0
         0         0         0         0         0         0         0         0
         0         0         0         0         0         0         0         0
         0         0         0         0         0         0         0         0
         0         0         0         0         0         0         0         0
         0         0         0         0         0         0         0         0
         0         0         0         0         0         0         0         0
         0         0         0         0         0         0         0         0
         0         0         0         0         0         0         0         0
         0         0         0         0         0         0         0         0
         0         0         0         0         0         0         0         0
         0         0         0         0         0         0         0         0
         0         0         0         0         0         0         0         0
         0         0         0         0         0         0         0         0
         0         0         0         0         0         0         0         0
         0         0         0         0         0         0         0         0
         0         0         0         0         0         0         0         0
         0         0         0         0         0         0         0         0
         0         0         0         0         0         0         0         0
         0         0         0         0         0         0         0         0
         0         0         0         0         0         0         0         0
         0         0         0         0         0         0         0         0
         0         0         0         0         0         0         0         0
         0         0         0         0         0         0         0         0
         0         0         0         0         0         0         0         0
         0         0         0         0         0         0         0         0
         0         0         0         0         0         0         0         0
         0         0         0         0         0         0         0         0
         0         0         0         0         0         0         0         0
         0         0         0         0         0         0         0         0
         0         0         0         0         0         0         0         0
         0         0         0         0         0         0         0         0
         0         0         0         0         0         0         0         0
         0         0         0         0         0         0         0         0
         0         0         0         0         0         0         0         0
         0         0         0         0         0         0         0         0
         0         0         0         0         0         0         0         0
         0         0         0         0         0         0         0         0
         0         0         0         0         0         0         0         0
         0         0         0         0         0         0         0         0
         0         0         0         0         0         0         0         0
         0         0         0         0         0         0         0         0
         0         0         0         0         0         0         0         0
         0         0         0         0         0         0         0         0
         0         0         0         0         0         0         0         0
         0         0         0         0         0         0         0         0
         0         0         0         0         0         0         0         0
         0         0         0         0         0         0         0         0
         0         0         0         0         0         0         0         0
         0         0         0         0         0         0         0         0
         0         0         0         0         0         0         0         0
         0         0         0         0         0         0         0         0
         0         0         0         0         0         0         0         0
         0         0         0         0         0         0         0         0
         0         0         0         0         0         0         0         0
         0         0         0         0         0         0         0         0
         0         0         0         0         0         0         0         0
         0         0         0         0         0         0         0         0
         0         0         0         0         0         0         0         0
         0         0         0         0         0         0         0         0
         0         0         0         0         0         0         0         0
         0         0         0         0         0         0         0         0
         0         0         0         0         0         0         0         0
         0         0         0         0         0         0         0         0
         0         0         0         0         0         0         0         0
         0         0         0         0         0         0         0         0
         0         0         0         0         0         0         0         0
         0         0         0         0         0         0         0         0
         0         0         0         0         0         0         0         0
         0         0         0         0         0         0         0         0
         0         0         0         0         0         0         0         0
         0         0         0         0         0         0         0         0
         0         0         0         0         0         0         0         0
         0         0         0         0         0         0         0         0
         0         0         0         0         0         0         0         0
         0         0         0         0         0         0         0         0
         0         0         0         0         0         0         0         0
         0         0         0         0         0         0         0         0
         0         0         0         0         0         0         0         0
         0         0         0         0         0         0         0         0
         0         0         0         0         0         0         0         0
         0         0         0         0         0         0         0         0
         0         0         0         0         0         0         0         0
         0         0         0         0         0         0         0         0
         0         0         0         0         0         0         0         0
         0         0         0         0         0         0         0         0
         0         0         0         0         0         0         0         0
         0         0         0         0         0         0         0         0
         0         0         0         0         0         0         0         0
         0         0         0         0         0         0         0         0
         0         0         0         0         0         0         0         0
         0         0         0         0         0         0         0         0
         0         0         0         0         0         0         0         0
         0         0         0         0         0         0         0         0
         0         0         0         0         0         0         0         0
         0         0         0         0         0         0         0         0
         0         0         0         0         0         0         0         0
         0         0         0         0         0         0         0         0
         0         0         0         0         0         0         0         0
         0         0         0         0         0         0         0         0
         0         0         0         0         0         0         0         0
         0         0         0         0         0         0         0         0
         0         0         0         0         0         0         0         0
         0         0         0         0         0         0         0         0
         0         0         0         0         0         0         0         0
         0         0         0         0         0         0         0         0
         0         0         0         0         0         0         0         0
         0         0         0         0         0         0         0         0
         0         0         0         0         0         0         0         0
         0         0         0         0         0         0         0         0
         0         0         0         0         0         0         0         0
         0         0         0         0         0         0         0         0
         0         0         0         0         0         0         0         0
         0         0         0         0         0         0         0         0
         0         0         0         0         0         0         0         0
         0         0         0         0         0         0         0         0
         0         0         0         0         0         0         0         0
         0         0         0         0         0         0         0         0
         0         0         0         0         0         0         0         0
         0         0         0         0         0         0         0         0
         0         0         0         0         0         0         0         0
         0         0         0         0         0         0         0         0
         0         0         0         0         0         0         0         0
         0         0         0         0         0         0         0         0
         0         0         0         0         0         0         0         0
         0         0         0         0         0         0         0         0
         0         0         0         0         0         0         0         0
         0         0         0         0         0         0         0         0
         0         0         0         0         0         0         0         0
         0         0         0         0         0         0         0         0
         0         0         0         0         0         0         0         0
         0         0         0         0         0         0         0         0
         0         0         0         0         0         0         0         0
         0         0         0         0         0         0         0         0
         0         0         0         0         0         0         0         0
         0         0         0         0         0         0         0         0
         0         0         0         0         0         0         0         0
         0         0         0         0         0         0         0         0
         0         0         0         0         0         0         0         0
         0         0         0         0         0         0         0         0
         0         0         0         0         0         0         0         0
         0         0         0         0         0         0         0         0
         0         0         0         0         0         0         0         0
         0         0         0         0         0         0         0         0
         0         0         0         0         0         0         0         0
         0         0         0         0         0         0         0         0
         0         0         0         0         0         0         0         0
         0         0         0         0         0         0         0         0
         0         0         0         0         0         0         0         0
         0         0         0         0         0         0         0         0
         0         0         0         0         0         0         0         0
         0         0         0         0         0         0         0         0
         0         0         0         0         0         0         0         0
         0         0         0         0         0         0         0         0
         0         0         0         0         0         0         0         0
         0         0         0         0         0         0         0         0
         0         0         0         0         0         0         0         0
         0         0         0         0         0         0         0         0
         0         0         0         0         0         0         0         0
         0         0         0         0         0         0         0         0
         0         0         0         0         0         0         0         0
         0         0         0         0         0         0         0         0
         0         0         0         0         0         0         0         0
         0         0         0         0         0         0         0         0
         0         0         0         0         0         0         0         0
         0         0         0         0         0         0         0         0
         0         0         0         0         0         0         0         0
         0         0         0         0         0         0         0         0
         0         0         0         0         0         0         0         0
         0         0         0         0         0         0         0         0
         0         0         0         0         0         0         0         0
         0         0         0         0         0         0         0         0
         0         0         0         0         0         0         0         0
         0         0         0         0         0         0         0         0
         0         0         0         0         0         0         0         0
         0         0         0         0         0         0         0         0
         0         0         0         0         0         0         0         0
         0         0         0         0         0         0         0         0
         0         0         0         0         0         0         0         0
         0         0         0         0         0         0         0         0
         0         0         0         0         0         0         0         0
         0         0         0         0         0         0         0         0
         0         0         0         0         0         0         0         0
         0         0         0         0         0         0         0         0
         0         0         0         0         0         0         0         0
         0         0         0         0         0         0         0         0
         0         0         0         0         0         0         0         0
         0         0         0         0         0         0         0         0
         0         0         0         0         0         0         0         0
         0         0         0         0         0         0         0         0
         0         0         0         0         0         0         0         0
         0         0         0         0         0         0         0         0
         0         0         0         0         0         0         0         0
         0         0         0         0         0         0         0         0
         0         0         0         0         0         0         0         0
         0         0         0         0         0         0         0         0
         0         0         0         0         0         0         0         0
         0         0         0         0         0         0         0         0
         0         0         0         0         0         0         0         0
         0         0         0         0         0         0         0         0
         0         0         0         0         0         0         0         0
         0         0         0         0         0         0         0         0
         0         0         0         0         0         0         0         0
         0         0         0         0         0         0         0         0
         0         0         0         0         0         0         0         0
         0         0         0         0         0         0         0         0
         0         0         0         0         0         0         0         0
         0         0         0         0         0         0         0         0
         0         0         0         0         0         0         0         0
         0         0         0         0         0         0         0         0
         0         0         0         0         0         0         0         0
         0         0         0         0         0         0         0         0
         0         0         0         0         0         0         0         0
         0         0         0         0         0         0         0         0
         0         0         0         0         0         0         0         0
         0         0         0         0         0         0         0         0
         0         0         0         0         0         0         0         0
         0         0         0         0         0         0         0         0
         0         0         0         0         0         0         0         0
         0         0         0         0         0         0         0         0
         0         0         0         0         0         0         0         0
         0         0         0         0         0         0         0         0
         0         0         0         0         0         0         0         0
         0         0         0         0         0         0         0         0
         0         0         0         0         0         0         0         0
         0         0         0         0         0         0         0         0
         0         0         0         0         0         0         0         0
         0         0         0         0         0         0         0         0
         0         0         0         0         0         0         0         0
         0         0         0         0         0         0         0         0
         0         0         0         0         0         0         0         0
         0         0         0         0         0         0         0         0
         0         0         0         0         0         0         0         0
         0         0         0         0         0         0         0         0
         0         0         0         0         0         0         0         0
         0         0         0         0         0         0         0         0
         0         0         0         0         0         0         0         0
         0         0         0         0         0         0         0         0
         0         0         0         0         0         0         0         0
         0         0         0         0         0         0         0         0
         0         0         0         0         0         0         0         0
         0         0         0         0         0         0         0         0
         0         0         0         0         0         0         0         0
         0         0         0         0         0         0         0         0
         0         0         0         0         0         0         0         0
         0         0         0         0         0         0         0         0
         0         0         0         0         0         0         0         0
         0         0         0         0         0         0         0         0
         0         0         0         0         0         0         0         0
         0         0         0         0         0         0         0         0
         0         0         0         0         0         0         0         0
         0         0         0         0         0         0         0         0
         0         0         0         0         0         0         0         0
         0         0         0         0         0         0         0         0
         0         0         0         0         0         0         0         0
         0         0         0         0         0         0         0         0
         0         0         0         0         0         0         0         0
         0         0         0         0         0         0         0         0
         0         0         0         0         0         0         0         0
         0         0         0         0         0         0         0         0
         0         0         0         0         0         0         0         0
         0         0         0         0         0         0         0         0
         0         0         0         0         0         0         0         0
         0         0         0         0         0         0         0         0
         0         0         0         0         0         0         0         0
         0         0         0         0         0         0         0         0
         0         0         0         0         0         0         0         0
         0         0         0         0         0         0         0         0
         0         0         0         0         0         0         0         0
         0         0         0         0         0         0         0         0
         0         0         0         0         0         0         0         0
         0         0         0         0         0         0         0         0
         0         0         0         0         0         0         0         0
         0         0         0         0         0         0         0         0
         0         0         0         0         0         0         0         0
         0         0         0         0         0         0         0         0
         0         0         0         0         0         0         0         0
         0         0         0         0         0         0         0         0
         0         0         0         0         0         0         0         0
         0         0         0         0         0         0         0         0
         0         0         0         0         0         0         0         0
         0         0         0         0         0         0         0         0
         0         0         0         0         0         0         0         0
         0         0         0         0         0         0         0         0
         0         0         0         0         0         0         0         0
         0         0         0         0         0         0         0         0
         0         0         0         0         0         0         0         0
         0         0         0         0         0         0         0         0
         0         0         0         0         0         0         0         0
         0         0         0         0         0         0         0         0
         0         0         0         0         0         0         0         0
         0         0         0         0         0         0         0         0
         0         0         0         0         0         0         0         0
         0         0         0         0         0         0         0         0
         0         0         0         0         0         0         0         0
         0         0         0         0         0         0         0         0
         0         0         0         0         0         0         0         0
         0         0         0         0         0         0         0         0
         0         0         0         0         0         0         0         0
         0         0         0         0         0         0         0         0
         0         0         0         0         0         0         0         0
         0         0         0         0         0         0         0         0
         0         0         0         0         0         0         0         0
         0         0         0         0         0         0         0         0
         0         0         0         0         0         0         0         0
         0         0         0         0         0         0         0         0
         0         0         0         0         0         0         0         0
         0         0         0         0         0         0         0         0
         0         0         0         0         0         0         0         0
         0         0         0         0         0         0         0         0
         0         0         0         0         0         0         0         0
         0         0         0         0         0         0         0         0
         0         0         0         0         0         0         0         0
         0         0         0         0         0         0         0         0
         0         0         0         0         0         0         0         0
         0         0         0         0         0         0         0         0
         0         0         0         0         0         0         0         0
         0         0         0         0         0         0         0         0
         0         0         0         0         0         0         0         0
         0         0         0         0         0         0         0         0
         0         0         0         0         0         0         0         0
         0         0         0         0         0         0         0         0
         0         0         0         0         0         0         0         0
         0         0         0         0         0         0         0         0
         0         0         0         0         0         0         0         0
         0         0         0         0         0         0         0         0
         0         0         0         0         0         0         0         0
         0         0         0         0         0         0         0         0
         0         0         0         0         0         0         0         0
         0         0         0         0         0         0         0         0
         0         0         0         0         0         0         0         0
         0         0         0         0         0         0         0         0
         0         0         0         0         0         0         0         0
         0         0         0         0         0         0         0         0
         0         0         0         0         0         0         0         0
         0         0         0         0         0         0         0         0
         0         0         0         0         0         0         0         0
         0         0         0         0         0         0         0         0
         0         0         0         0         0         0         0         0
         0         0         0         0         0         0         0         0
         0         0         0         0         0         0         0         0
         0         0         0         0         0         0         0         0
         0         0         0         0         0         0         0         0
         0         0         0         0         0         0         0         0
         0         0         0         0         0         0         0         0
         0         0         0         0         0         0         0         0
         0         0         0         0         0         0         0         0
         0         0         0         0         0         0         0         0
         0         0         0         0         0         0         0         0
         0         0         0         0         0         0         0         0
         0         0         0         0         0         0         0         0
         0         0         0         0         0         0         0         0
         0         0         0         0         0         0         0         0
         0         0         0         0         0         0         0         0
         0         0         0         0         0         0         0         0
         0         0         0         0         0         0         0         0
         0         0         0         0         0         0         0         0
         0         0         0         0         0         0         0         0
         0         0         0         0         0         0         0         0
         0         0         0         0         0         0         0         0
         0         0         0         0         0         0         0         0
         0         0         0         0         0         0         0         0
         0         0         0         0         0         0         0         0
         0         0         0         0         0         0         0         0
         0         0         0         0         0         0         0         0
         0         0         0         0         0         0         0         0
         0         0         0         0         0         0         0         0
         0         0         0         0         0         0         0         0
         0         0         0         0         0         0         0         0
         0         0         0         0         0         0         0         0
         0         0         0         0         0         0         0         0
         0         0         0         0         0         0         0         0
         0         0         0         0         0         0         0         0
         0         0         0         0         0         0         0         0
         0         0         0         0         0         0         0         0
         0         0         0         0         0         0         0         0
         0         0         0         0         0         0         0         0
         0         0         0         0         0         0         0         0
         0         0         0         0         0         0         0         0
         0         0         0         0         0         0         0         0
         0         0         0         0         0         0         0         0
         0         0         0         0         0         0         0         0
         0         0         0         0         0         0         0         0
         0         0         0         0         0         0         0         0
         0         0         0         0         0         0         0         0
         0         0         0         0         0         0         0         0
         0         0         0         0         0         0         0         0
         0         0         0         0         0         0         0         0
         0         0         0         0         0         0         0         0
         0         0         0         0         0         0         0         0
         0         0         0         0         0         0         0         0
         0         0         0         0         0         0         0         0
         0         0         0         0         0         0         0         0
         0         0         0         0         0         0         0         0
         0         0         0         0         0         0         0         0
         0         0         0         0         0         0         0         0
         0         0         0         0         0         0         0         0
         0         0         0         0         0         0         0         0
         0         0         0         0         0         0         0         0
         0         0         0         0         0         0         0         0
         0         0         0         0         0         0         0         0
         0         0         0         0         0         0         0         0
         0         0         0         0         0         0         0         0
         0         0         0         0         0         0         0         0
         0         0         0         0         0         0         0         0
         0         0         0         0         0         0         0         0
         0         0         0         0         0         0         0         0
         0         0         0         0         0         0         0         0
         0         0         0         0         0         0         0         0
         0         0         0         0         0         0         0         0
         0         0         0         0         0         0         0         0
         0         0         0         0         0         0         0         0
         0         0         0         0         0         0         0         0
         0         0         0         0         0         0         0         0
         0         0         0         0         0         0         0         0
         0         0         0         0         0         0         0         0
         0         0         0         0         0         0         0         0
         0         0         0         0         0         0         0         0
         0         0         0         0         0         0         0         0
         0         0         0         0         0         0         0         0
         0         0         0         0         0         0         0         0
         0         0         0         0         0         0         0         0
         0         0         0         0         0         0         0         0
         0         0         0         0         0         0         0         0
         0         0         0         0         0         0         0         0
         0         0         0         0         0         0         0         0
         0         0         0         0         0         0         0         0
         0         0         0         0         0         0         0         0
         0         0         0         0         0         0         0         0
         0         0         0         0         0         0         0         0
         0         0         0         0         0         0         0         0
         0         0         0         0         0         0         0         0
         0         0         0         0         0         0         0         0
         0         0         0         0         0         0         0         0
         0         0         0         0         0         0         0         0
         0         0         0         0         0         0         0         0
         0         0         0         0         0         0         0         0
         0         0         0         0         0         0         0         0
         0         0         0         0         0         0         0         0
         0         0         0         0         0         0         0         0
         0         0         0         0         0         0         0         0
         0         0         0         0         0         0         0         0
         0         0         0         0         0         0         0         0
         0         0         0         0         0         0         0         0
         0         0         0         0         0         0         0         0
         0         0         0         0         0         0         0         0
         0         0         0         0         0         0         0         0
         0         0         0         0         0         0         0         0
         0         0         0         0         0         0         0         0
         0         0         0         0         0         0         0         0
         0         0         0         0         0         0         0         0
         0         0         0         0         0         0         0         0
         0         0         0         0         0         0         0         0
         0         0         0         0         0         0         0         0
         0         0         0         0         0         0         0         0
         0         0         0         0         0         0         0         0
         0         0         0         0         0         0         0         0
         0         0         0         0         0         0         0         0
         0         0         0         0         0         0         0         0
         0         0         0         0         0         0         0         0
         0         0         0         0         0         0         0         0
         0         0         0         0         0         0         0         0
         0         0         0         0         0         0         0         0
         0         0         0         0         0         0         0         0
         0         0         0         0         0         0         0         0
         0         0         0         0         0         0         0         0
         0         0         0         0         0         0         0         0
         0         0         0         0         0         0         0         0
         0         0         0         0         0         0         0         0
         0         0         0         0         0         0         0         0
         0         0         0         0         0         0         0         0
         0         0         0         0         0         0         0         0
         0         0         0         0         0         0         0         0
         0         0         0         0         0         0         0         0
         0         0         0         0         0         0         0         0
         0         0         0         0         0         0         0         0
         0         0         0         0         0         0         0         0
         0         0         0         0         0         0         0         0
         0         0         0         0         0         0         0         0
         0         0         0         0         0         0         0         0
         0         0         0         0         0         0         0         0
         0         0         0         0         0         0         0         0
         0         0         0         0         0         0         0         0
         0         0         0         0         0         0         0         0
         0         0         0         0         0         0         0         0
         0         0         0         0         0         0         0         0
         0         0         0         0         0         0         0         0
         0         0         0         0         0         0         0         0
         0         0         0         0         0         0         0         0
         0         0         0         0         0         0         0         0
         0         0         0         0         0         0         0         0
         0         0         0         0         0         0         0         0
         0         0         0         0         0         0         0         0
         0         0         0         0         0         0         0         0
         0         0         0         0         0         0         0         0
         0         0         0         0         0         0         0         0
         0         0         0         0         0         0         0         0
         0         0         0         0         0         0         0         0
         0         0         0         0         0         0         0         0
         0         0         0         0         0         0         0         0
         0         0         0         0         0         0         0         0
         0         0         0         0         0         0         0         0
         0         0         0         0         0         0         0         0
         0         0         0         0         0         0         0         0
         0         0         0         0         0         0         0         0
         0         0         0         0         0         0         0         0
         0         0         0         0         0         0         0         0
         0         0         0         0         0         0         0         0
         0         0         0         0         0         0         0         0
         0         0         0         0         0         0         0         0
         0         0         0         0         0         0         0         0
         0         0         0         0         0         0         0         0
         0         0         0         0         0         0         0         0
         0         0         0         0         0         0         0         0
         0         0         0         0         0         0         0         0
         0         0         0         0         0         0         0         0
         0         0         0         0         0         0         0         0
         0         0         0         0         0         0         0         0
         0         0         0         0         0         0         0         0
         0         0         0         0         0         0         0         0
         0         0         0         0         0         0         0         0
         0         0         0         0         0         0         0         0
         0         0         0         0         0         0         0         0
         0         0         0         0         0         0         0         0
         0         0         0         0         0         0         0         0
         0         0         0         0         0         0         0         0
         0         0         0         0         0         0         0         0
         0         0         0         0         0         0         0         0
         0         0         0         0         0         0         0         0
         0         0         0         0         0         0         0         0
         0         0         0         0         0         0         0         0
         0         0         0         0         0         0         0         0
         0         0         0         0         0         0         0         0
         0         0         0         0         0         0         0         0
         0         0         0         0         0         0         0         0
         0         0         0         0         0         0         0         0
         0         0         0         0         0         0         0         0
         0         0         0         0         0         0         0         0
         0         0         0         0         0         0         0         0
         0         0         0         0         0         0         0         0
         0         0         0         0         0         0         0         0
         0         0         0         0         0         0         0         0
         0         0         0         0         0         0         0         0
         0         0         0         0         0         0         0         0
         0         0         0         0         0         0         0         0
         0         0         0         0         0         0         0         0
         0         0         0         0         0         0         0         0
         0         0         0         0         0         0         0         0
         0         0         0         0         0         0         0         0
         0         0         0         0         0         0         0         0
         0         0         0         0         0         0         0         0
         0         0         0         0         0         0         0         0
         0         0         0         0         0         0         0         0
         0         0         0         0         0         0         0         0
         0         0         0         0         0         0         0         0
         0         0         0         0         0         0         0         0
         0         0         0         0         0         0         0         0
         0         0         0         0         0         0         0         0
         0         0         0         0         0         0         0         0
         0         0         0         0         0         0         0         0
         0         0         0         0         0         0         0         0
         0         0         0         0         0         0         0         0
         0         0         0         0         0         0         0         0
         0         0         0         0         0         0         0         0
         0         0         0         0         0         0         0         0
         0         0         0         0         0         0         0         0
         0         0         0         0         0         0         0         0
         0         0         0         0         0         0         0         0
         0         0         0         0         0         0         0         0
         0         0         0         0         0         0         0         0
         0         0         0         0         0         0         0         0
         0         0         0         0         0         0         0         0
         0         0         0         0         0         0         0         0
         0         0         0         0         0         0         0         0
         0         0         0         0         0         0         0         0
         0         0         0         0         0         0         0         0
         0         0         0         0         0         0         0         0
         0         0         0         0         0         0         0         0
         0         0         0         0         0         0         0         0
         0         0         0         0         0         0         0         0
         0         0         0         0         0         0         0         0
         0         0         0         0         0         0         0         0
         0         0         0         0         0         0         0         0
         0         0         0         0         0         0         0         0
         0         0         0         0         0         0         0         0
         0         0         0         0         0         0         0         0
         0         0         0         0         0         0         0         0
         0         0         0         0         0         0         0         0
         0         0         0         0         0         0         0         0
         0         0         0         0         0         0         0         0
         0         0         0         0         0         0         0         0
         0         0         0         0         0         0         0         0
         0         0         0         0         0         0         0         0
         0         0         0         0         0         0         0         0
         0         0         0         0         0         0         0         0
         0         0         0         0         0         0         0         0
         0         0         0         0         0         0         0         0
         0         0         0         0         0         0         0         0
         0         0         0         0         0         0         0         0
         0         0         0         0         0         0         0         0
         0         0         0         0         0         0         0         0
         0         0         0         0         0         0         0         0
         0         0         0         0         0         0         0         0
         0         0         0         0         0         0         0         0
         0         0         0         0         0         0         0         0
         0         0         0         0         0         0         0         0
         0         0         0         0         0         0         0         0
         0         0         0         0         0         0         0         0
         0         0         0         0         0         0         0         0
         0         0         0         0         0         0         0         0
         0         0         0         0         0         0         0         0
         0         0         0         0         0         0         0         0
         0         0         0         0         0         0         0         0
         0         0         0         0         0         0         0         0
         0         0         0         0         0         0         0         0
         0         0         0         0         0         0         0         0
         0         0         0         0         0         0         0         0
         0         0         0         0         0         0         0         0
         0         0         0         0         0         0         0         0
         0         0         0         0         0         0         0         0
         0         0         0         0         0         0         0         0
         0         0         0         0         0         0         0         0
         0         0         0         0         0         0         0         0
         0         0         0         0         0         0         0         0
         0         0         0         0         0         0         0         0
         0         0         0         0         0         0         0         0
         0         0         0         0         0         0         0         0
         0         0         0         0         0         0         0         0
         0         0         0         0         0         0         0         0
         0         0         0         0         0         0         0         0
         0         0         0         0         0         0         0         0
         0         0         0         0         0         0         0         0
         0         0         0         0         0         0         0         0
         0         0         0         0         0         0         0         0
         0         0         0         0         0         0         0         0
         0         0         0         0         0         0         0         0
         0         0         0         0         0         0         0         0
         0         0         0         0         0         0         0         0
         0         0         0         0         0         0         0         0
         0         0         0         0         0         0         0         0
         0         0         0         0         0         0         0         0
         0         0         0         0         0         0         0         0
         0         0         0         0         0         0         0         0
         0         0         0         0         0         0         0         0
         0         0         0         0         0         0         0         0
         0         0         0         0         0         0         0         0
         0         0         0         0         0         0         0         0
         0         0         0         0         0         0         0         0
         0         0         0         0         0         0         0         0
         0         0         0         0         0         0         0         0
         0         0         0         0         0         0         0         0
         0         0         0         0         0         0         0         0
         0         0         0         0         0         0         0         0
         0         0         0         0         0         0         0         0
         0         0         0         0         0         0         0         0
         0         0         0         0         0         0         0         0
         0         0         0         0         0         0         0         0
         0         0         0         0         0         0         0         0
         0         0         0         0         0         0         0         0
         0         0         0         0         0         0         0         0
         0         0         0         0         0         0         0         0
         0         0         0         0         0         0         0         0
         0         0         0         0         0         0         0         0
         0         0         0         0         0         0         0         0
         0         0         0         0         0         0         0         0
         0         0         0         0         0         0         0         0
         0         0         0         0         0         0         0         0
         0         0         0         0         0         0         0         0
         0         0         0         0         0         0         0         0
         0         0         0         0         0         0         0         0
         0         0         0         0         0         0         0         0
         0         0         0         0         0         0         0         0
         0         0         0         0         0         0         0         0
         0         0         0         0         0         0         0         0
         0         0         0         0         0         0         0         0
         0         0         0         0         0         0         0         0
         0         0         0         0         0         0         0         0
         0         0         0         0         0         0         0         0
         0         0         0         0         0         0         0         0
         0         0         0         0         0         0         0         0
         0         0         0         0         0         0         0         0
         0         0         0         0         0         0         0         0
         0         0         0         0         0         0         0         0
         0         0         0         0         0         0         0         0
         0         0         0         0         0         0         0         0
         0         0         0         0         0         0         0         0
         0         0         0         0         0         0         0         0
         0         0         0         0         0         0         0         0
         0         0         0         0         0         0         0         0
         0         0         0         0         0         0         0         0
         0         0         0         0         0         0         0         0
         0         0         0         0         0         0         0         0
         0         0         0         0         0         0         0         0
         0         0         0         0         0         0         0         0
         0         0         0         0         0         0         0         0
         0         0         0         0         0         0         0         0
         0         0         0         0         0         0         0         0
         0         0         0         0         0         0         0         0
         0         0         0         0         0         0         0         0
         0         0         0         0         0         0         0         0
         0         0         0         0         0         0         0         0
         0         0         0         0         0         0         0         0
         0         0         0         0         0         0         0         0
         0         0         0         0         0         0         0         0
         0         0         0         0         0         0         0         0
         0         0         0         0         0         0         0         0
         0         0         0         0         0         0         0         0
         0         0         0         0         0         0         0         0
         0         0         0         0         0         0         0         0
         0         0         0         0         0         0         0         0
         0         0         0         0         0         0         0         0
         0         0         0         0         0         0         0         0
         0         0         0         0         0         0         0         0
         0         0         0         0         0         0         0         0
         0         0         0         0         0         0         0         0
         0         0         0         0         0         0         0         0
         0         0         0         0         0         0         0         0
         0         0         0         0         0         0         0         0
         0         0         0         0         0         0         0         0
         0         0         0         0         0         0         0         0
         0         0         0         0         0         0         0         0
         0         0         0         0         0         0         0         0
         0         0         0         0         0         0         0         0
         0         0         0         0         0         0         0         0
         0         0         0         0         0         0         0         0
         0         0         0         0         0         0         0         0
         0         0         0         0         0         0         0         0
         0         0         0         0         0         0         0         0
         0         0         0         0         0         0         0         0
         0         0         0         0         0         0         0         0
         0         0         0         0         0         0         0         0
         0         0         0         0         0         0         0         0
         0         0         0         0         0         0         0         0
         0         0         0         0         0         0         0         0
         0         0         0         0         0         0         0         0
         0         0         0         0         0         0         0         0
         0         0         0         0         0         0         0         0
         0         0         0         0         0         0         0         0
         0         0         0         0         0         0         0         0
         0         0         0         0         0         0         0         0
         0         0         0         0         0         0         0         0
         0         0         0         0         0         0         0         0
         0         0         0         0         0         0         0         0
         0         0         0         0         0         0         0         0
         0         0         0         0         0         0         0         0
         0         0         0         0         0         0         0         0
         0         0         0         0         0         0         0         0
         0         0         0         0         0         0         0         0
         0         0         0         0         0         0         0         0
         0         0         0         0         0         0         0         0
         0         0         0         0         0         0         0         0
         0         0         0         0         0         0         0         0
         0         0         0         0         0         0         0         0
         0         0         0         0         0         0         0         0
         0         0         0         0         0         0         0         0
         0         0         0         0         0         0         0         0
         0         0         0         0         0         0         0         0
         0         0         0         0         0         0         0         0
         0         0         0         0         0         0         0         0
         0         0         0         0         0         0         0         0
         0         0         0         0         0         0         0         0
         0         0         0         0         0         0         0         0
         0         0         0         0         0         0         0         0
         0         0         0         0         0         0         0         0
         0         0         0         0         0         0         0         0
         0         0         0         0         0         0         0         0
         0         0         0         0         0         0         0         0
         0         0         0         0         0         0         0         0
         0         0         0         0         0         0         0         0
         0         0         0         0         0         0         0         0
         0         0         0         0         0         0         0         0
         0         0         0         0         0         0         0         0
         0         0         0         0         0         0         0         0
         0         0         0         0         0         0         0         0
         0         0         0         0         0         0         0         0
         0         0         0         0         0         0         0         0
         0         0         0         0         0         0         0         0
         0         0         0         0         0         0         0         0
         0         0         0         0         0         0         0         0
         0         0         0         0         0         0         0         0
         0         0         0         0         0         0         0         0
         0         0         0         0         0         0         0         0
         0         0         0         0         0         0         0         0
         0         0         0         0         0         0         0         0
         0         0         0         0         0         0         0         0
         0         0         0         0         0         0         0         0
         0         0         0         0         0         0         0         0
         0         0         0         0         0         0         0         0
         0         0         0         0         0         0         0         0
         0         0         0         0         0         0         0         0
         0         0         0         0         0         0         0         0
         0         0         0         0         0         0         0         0
         0         0         0         0         0         0         0         0
         0         0         0         0         0         0         0         0
         0         0         0         0         0         0         0         0
         0         0         0         0         0         0         0         0
         0         0         0         0         0         0         0         0
         0         0         0         0         0         0         0         0
         0         0         0         0         0         0         0         0
         0         0         0         0         0         0         0         0
         0         0         0         0         0         0         0         0
         0         0         0         0         0         0         0         0
         0         0         0         0         0         0         0         0
         0         0         0         0         0         0         0         0
         0         0         0         0         0         0         0         0
         0         0         0         0         0         0         0         0
         0         0         0         0         0         0         0         0
         0         0         0         0         0         0         0         0
         0         0         0         0         0         0         0         0
         0         0         0         0         0         0         0         0
         0         0         0         0         0         0         0         0
         0         0         0         0         0         0         0         0
         0         0         0         0         0         0         0         0
         0         0         0         0         0         0         0         0
         0         0         0         0         0         0         0         0
         0         0         0         0         0         0         0         0
         0         0         0         0         0         0         0         0
         0         0         0         0         0         0         0         0
         0         0         0         0         0         0         0         0
         0         0         0         0         0         0         0         0
         0         0         0         0         0         0         0         0
         0         0         0         0         0         0         0         0
         0         0         0         0         0         0         0         0
         0         0         0         0         0         0         0         0
         0         0         0         0         0         0         0         0
         0         0         0         0         0         0         0         0
         0         0         0         0         0         0         0         0
         0         0         0         0         0         0         0         0
         0         0         0         0         0         0         0         0
         0         0         0         0         0         0         0         0
         0         0         0         0         0         0         0         0
         0         0         0         0         0         0         0         0
         0         0         0         0         0         0         0         0
         0         0         0         0         0         0         0         0
         0         0         0         0         0         0         0         0
         0         0         0         0         0         0         0         0
         0         0         0         0         0         0         0         0
         0         0         0         0         0         0         0         0
         0         0         0         0         0         0         0         0
         0         0         0         0         0         0         0         0
         0         0         0         0         0         0         0         0
         0         0         0         0         0         0         0         0
         0         0         0         0         0         0         0         0
         0         0         0         0         0         0         0         0
         0         0         0         0         0         0         0         0
         0         0         0         0         0         0         0         0
         0         0         0         0         0         0         0         0
         0         0         0         0         0         0         0         0
         0         0         0         0         0         0         0         0
         0         0         0         0         0         0         0         0
         0         0         0         0         0         0         0         0
         0         0         0         0         0         0         0         0
         0         0         0         0         0         0         0         0
         0         0         0         0         0         0         0         0
         0         0         0         0         0         0         0         0
         0         0         0         0         0         0         0         0
         0         0         0         0         0         0         0         0
         0         0         0         0         0         0         0         0
         0         0         0         0         0         0         0         0
         0         0         0         0         0         0         0         0
         0         0         0         0         0         0         0         0
         0         0         0         0         0         0         0         0
         0         0         0         0         0         0         0         0
         0         0         0         0         0         0         0         0
         0         0         0         0         0         0         0         0
         0         0         0         0         0         0         0         0
         0         0         0         0         0         0         0         0
         0         0         0         0         0         0         0         0
         0         0         0         0         0         0         0         0
         0         0         0         0         0         0         0         0
         0         0         0         0         0         0         0         0
         0         0         0         0         0         0         0         0
         0         0         0         0         0         0         0         0
         0         0         0         0         0         0         0         0
         0         0         0         0         0         0         0         0
         0         0         0         0         0         0         0         0
         0         0         0         0         0         0         0         0
         0         0         0         0         0         0         0         0
         0         0         0         0         0         0         0         0
         0         0         0         0         0         0         0         0
         0         0         0         0         0         0         0         0
         0         0         0         0         0         0         0         0
         0         0         0         0         0         0         0         0
         0         0         0         0         0         0         0         0
         0         0         0         0         0         0         0         0
         0         0         0         0         0         0         0         0
         0         0         0         0         0         0         0         0
         0         0         0         0         0         0         0         0
         0         0         0         0         0         0         0         0
         0         0         0         0         0         0         0         0
         0         0         0         0         0         0         0         0
         0         0         0         0         0         0         0         0
         0         0         0         0         0         0         0         0
         0         0         0         0         0         0         0         0
         0         0         0         0         0         0         0         0
         0         0         0         0         0         0         0         0
         0         0         0         0         0         0         0         0
         0         0         0         0         0         0         0         0
         0         0         0         0         0         0         0         0
         0         0         0         0         0         0         0         0
         0         0         0         0         0         0         0         0
         0         0         0         0         0         0         0         0
         0         0         0         0         0         0         0         0
         0         0         0         0         0         0         0         0
         0         0         0         0         0         0         0         0
         0         0         0         0         0         0         0         0
         0         0         0         0         0         0         0         0
         0         0         0         0         0         0         0         0
         0         0         0         0         0         0         0         0
         0         0         0         0         0         0         0         0
         0         0         0         0         0         0         0         0
         0         0         0         0         0         0         0         0
         0         0         0         0         0         0         0         0
         0         0         0         0         0         0         0         0
         0         0         0         0         0         0         0         0
         0         0         0         0         0         0         0         0
         0         0         0         0         0         0         0         0
         0         0         0         0         0         0         0         0
         0         0         0         0         0         0         0         0
         0         0         0         0         0         0         0         0
         0         0         0         0         0         0         0         0
         0         0         0         0         0         0         0         0
         0         0         0         0         0         0         0         0
         0         0         0         0         0         0         0         0
         0         0         0         0         0         0         0         0
         0         0         0         0         0         0         0         0
         0         0         0         0         0         0         0         0
         0         0         0         0         0         0         0         0
         0         0         0         0         0         0         0         0
         0         0         0         0         0         0         0         0
         0         0         0         0         0         0         0         0
         0         0         0         0         0         0         0         0
         0         0         0         0         0         0         0         0
         0         0         0         0         0         0         0         0
         0         0         0         0         0         0         0         0
         0         0         0         0         0         0         0         0
         0         0         0         0         0         0         0         0
         0         0         0         0         0         0         0         0
         0         0         0         0         0         0         0         0
         0         0         0         0         0         0         0         0
         0         0         0         0         0         0         0         0
         0         0         0         0         0         0         0         0
         0         0         0         0         0         0         0         0
         0         0         0         0         0         0         0         0
         0         0         0         0         0         0         0         0
         0         0         0         0         0         0         0         0
         0         0         0         0         0         0         0         0
         0         0         0         0         0         0         0         0
         0         0         0         0         0         0         0         0
         0         0         0         0         0         0         0         0
         0         0         0         0         0         0         0         0
         0         0         0         0         0         0         0         0
         0         0         0         0         0         0         0         0
         0         0         0         0         0         0         0         0
         0         0         0         0         0         0         0         0
         0         0         0         0         0         0         0         0
         0         0         0         0         0         0         0         0
         0         0         0         0         0         0         0         0
         0         0         0         0         0         0         0         0
         0         0         0         0         0         0         0         0
         0         0         0         0         0         0         0         0
         0         0         0         0         0         0         0         0
         0         0         0         0         0         0         0         0
         0         0         0         0         0         0         0         0
         0         0         0         0         0         0         0         0
         0         0         0         0         0         0         0         0
         0         0         0         0         0         0         0         0
         0         0         0         0         0         0         0         0
         0         0         0         0         0         0         0         0
         0         0         0         0         0         0         0         0
         0         0         0         0         0         0         0         0
         0         0         0         0         0         0         0         0
         0         0         0         0         0         0         0         0
         0         0         0         0         0         0         0         0
         0         0         0         0         0         0         0         0
         0         0         0         0         0         0         0         0
         0         0         0         0         0         0         0         0
         0         0         0         0         0         0         0         0
         0         0         0         0         0         0         0         0
         0         0         0         0         0         0         0         0
         0         0         0         0         0         0         0         0
         0         0         0         0         0         0         0         0
         0         0         0         0         0         0         0         0
         0         0         0         0         0         0         0         0
         0         0         0         0         0         0         0         0
         0         0         0         0         0         0         0         0
         0         0         0         0         0         0         0         0
         0         0         0         0         0         0         0         0
         0         0         0         0         0         0         0         0
         0         0         0         0         0         0         0         0
         0         0         0         0         0         0         0         0
         0         0         0         0         0         0         0         0
         0         0         0         0         0         0         0         0
         0         0         0         0         0         0         0         0
         0         0         0         0         0         0         0         0
         0         0         0         0         0         0         0         0
         0         0         0         0         0         0         0         0
         0         0         0         0         0         0         0         0
         0         0         0         0         0         0         0         0
         0         0         0         0         0         0         0         0
         0         0         0         0         0         0         0         0
         0         0         0         0         0         0         0         0
         0         0         0         0         0         0         0         0
         0         0         0         0         0         0         0         0
         0         0         0         0         0         0         0         0
         0         0         0         0         0         0         0         0
         0         0         0         0         0         0         0         0
         0         0         0         0         0         0         0         0
         0         0         0         0         0         0         0         0
         0         0         0         0         0         0         0         0
         0         0         0         0         0         0         0         0
         0         0         0         0         0         0         0         0
         0         0         0         0         0         0         0         0
         0         0         0         0         0         0         0         0
         0         0         0         0         0         0         0         0
         0         0         0         0         0         0         0         0
         0         0         0         0         0         0         0         0
         0         0         0         0         0         0         0         0
         0         0         0         0         0         0         0         0
         0         0         0         0         0         0         0         0
         0         0         0         0         0         0         0         0
         0         0         0         0         0         0         0         0
         0         0         0         0         0         0         0         0
         0         0         0         0         0         0         0         0
         0         0         0         0         0         0         0         0
         0         0         0         0         0         0         0         0
         0         0         0         0         0         0         0         0
         0         0         0         0         0         0         0         0
         0         0         0         0         0         0         0         0
         0         0         0         0         0         0         0         0
         0         0         0         0         0         0         0         0
         0         0         0         0         0         0         0         0
         0         0         0         0         0         0         0         0
         0         0         0         0         0         0         0         0
         0         0         0         0         0         0         0         0
         0         0         0         0         0         0         0         0
         0         0         0         0         0         0         0         0
         0         0         0         0         0         0         0         0
         0         0         0         0         0         0         0         0
         0         0         0         0         0         0         0         0
         0         0         0         0         0         0         0         0
         0         0         0         0         0         0         0         0
         0         0         0         0         0         0         0         0
         0         0         0         0         0         0         0         0
         0         0         0         0         0         0         0         0
         0         0         0         0         0         0         0         0
         0         0         0         0         0         0         0         0
         0         0         0         0         0         0         0         0
         0         0         0         0         0         0         0         0
         0         0         0         0         0         0         0         0
         0         0         0         0         0         0         0         0
         0         0         0         0         0         0         0         0
         0         0         0         0         0         0         0         0
         0         0         0         0         0         0         0         0
         0         0         0         0         0         0         0         0
         0         0         0         0         0         0         0         0
         0         0         0         0         0         0         0         0
         0         0         0         0         0         0         0         0
         0         0         0         0         0         0         0         0
         0         0         0         0         0         0         0         0
         0         0         0         0         0         0         0         0
         0         0         0         0         0         0         0         0
         0         0         0         0         0         0         0         0
         0         0         0         0         0         0         0         0
         0         0         0         0         0         0         0         0
         0         0         0         0         0         0         0         0
         0         0         0         0         0         0         0         0
         0         0         0         0         0         0         0         0
         0         0         0         0         0         0         0         0
         0         0         0         0         0         0         0         0
         0         0         0         0         0         0         0         0
         0         0         0         0         0         0         0         0
         0         0         0         0         0         0         0         0
         0         0         0         0         0         0         0         0
         0         0         0         0         0         0         0         0
         0         0         0         0         0         0         0         0
         0         0         0         0         0         0         0         0
         0         0         0         0         0         0         0         0
         0         0         0         0         0         0         0         0
         0         0         0         0         0         0         0         0
         0         0         0         0         0         0         0         0
         0         0         0         0         0         0         0         0
         0         0         0         0         0         0         0         0
         0         0         0         0         0         0         0         0
         0         0         0         0         0         0         0         0
         0         0         0         0         0         0         0         0
         0         0         0         0         0         0         0         0
         0         0         0         0         0         0         0         0
         0         0         0         0         0         0         0         0
         0         0         0         0         0         0         0         0
         0         0         0         0         0         0         0         0
         0         0         0         0         0         0         0         0
         0         0         0         0         0         0         0         0
         0         0         0         0         0         0         0         0
         0         0         0         0         0         0         0         0
         0         0         0         0         0         0         0         0
         0         0         0         0         0         0         0         0
         0         0         0         0         0         0         0         0
         0         0         0         0         0         0         0         0
         0         0         0         0         0         0         0         0
         0         0         0         0         0         0         0         0
         0         0         0         0         0         0         0         0
         0         0         0         0         0         0         0         0
         0         0         0         0         0         0         0         0
         0         0         0         0         0         0         0         0
         0         0         0         0         0         0         0         0
         0         0         0         0         0         0         0         0
         0         0         0         0         0         0         0         0
         0         0         0         0         0         0         0         0
         0         0         0         0         0         0         0         0
         0         0         0         0         0         0         0         0
         0         0         0         0         0         0         0         0
         0         0         0         0         0         0         0         0
         0         0         0         0         0         0         0         0
         0         0         0         0         0         0         0         0
         0         0         0         0         0         0         0         0
         0         0         0         0         0         0         0         0
         0         0         0         0         0         0         0         0
         0         0         0         0         0         0         0         0
         0         0         0         0         0         0         0         0
         0         0         0         0         0         0         0         0
         0         0         0         0         0         0         0         0
         0         0         0         0         0         0         0         0
         0         0         0         0         0         0         0         0
         0         0         0         0         0         0         0         0
         0         0         0         0         0         0         0         0
         0         0         0         0         0         0         0         0
         0         0         0         0         0         0         0         0
         0         0         0         0         0         0         0         0
         0         0         0         0         0         0         0         0
         0         0         0         0         0         0         0         0
         0         0         0         0         0         0         0         0
         0         0         0         0         0         0         0         0
         0         0         0         0         0         0         0         0
         0         0         0         0         0         0         0         0
         0         0         0         0         0         0         0         0
         0         0         0         0         0         0         0         0
         0         0         0         0         0         0         0         0
         0         0         0         0         0         0         0         0
         0         0         0         0         0         0         0         0
         0         0         0         0         0         0         0         0
         0         0         0         0         0         0         0         0
         0         0         0         0         0         0         0         0
         0         0         0         0         0         0         0         0
         0         0         0         0         0         0         0         0
         0         0         0         0         0         0         0         0
         0         0         0         0         0         0         0         0
         0         0         0         0         0         0         0         0
         0         0         0         0         0         0         0         0
         0         0         0         0         0         0         0         0
         0         0         0         0         0         0         0         0
         0         0         0         0         0         0         0         0
         0         0         0         0         0         0         0         0
         0         0         0         0         0         0         0         0
         0         0         0         0         0         0         0         0
         0         0         0         0         0         0         0         0
         0         0         0         0         0         0         0         0
         0         0         0         0         0         0         0         0
         0         0         0         0         0         0         0         0
         0         0         0         0         0         0         0         0
         0         0         0         0         0         0         0         0
         0         0         0         0         0         0         0         0
         0         0         0         0         0         0         0         0
         0         0         0         0         0         0         0         0
         0         0         0         0         0         0         0         0
         0         0         0         0         0         0         0         0
         0         0         0         0         0         0         0         0
         0         0         0         0         0         0         0         0
         0         0         0         0         0         0         0         0
         0         0         0         0         0         0         0         0
         0         0         0         0         0         0         0         0
         0         0         0         0         0         0         0         0
         0         0         0         0         0         0         0         0
         0         0         0         0         0         0         0         0
         0         0         0         0         0         0         0         0
         0         0         0         0         0         0         0         0
         0         0         0         0         0         0         0         0
         0         0         0         0         0         0         0         0
         0         0         0         0         0         0         0         0
         0         0         0         0         0         0         0         0
         0         0         0         0         0         0         0         0
         0         0         0         0         0         0         0         0
         0         0         0         0         0         0         0         0
         0         0         0         0         0         0         0         0
         0         0         0         0         0         0         0         0
         0         0         0         0         0         0         0         0
         0         0         0         0         0         0         0         0
         0         0         0         0         0         0         0         0
         0         0         0         0         0         0         0         0
         0         0         0         0         0         0         0         0
         0         0         0         0         0         0         0         0
         0         0         0         0         0         0         0         0
         0         0         0         0         0         0         0         0
         0         0         0         0         0         0         0         0
         0         0         0         0         0         0         0         0
         0         0         0         0         0         0         0         0
         0         0         0         0         0         0         0         0
         0         0         0         0         0         0         0         0
         0         0         0         0         0         0         0         0
         0         0         0         0         0         0         0         0
         0         0         0         0         0         0         0         0
         0         0         0         0         0         0         0         0
         0         0         0         0         0         0         0         0
         0         0         0         0         0         0         0         0
         0         0         0         0         0         0         0         0
         0         0         0         0         0         0         0         0
         0         0         0         0         0         0         0         0
         0         0         0         0         0         0         0         0
         0         0         0         0         0         0         0         0
         0         0         0         0         0         0         0         0
         0         0         0         0         0         0         0         0
         0         0         0         0         0         0         0         0
         0         0         0         0         0         0         0         0
         0         0         0         0         0         0         0         0
         0         0         0         0         0         0         0         0
         0         0         0         0         0         0         0         0
         0         0         0         0         0         0         0         0
         0         0         0         0         0         0         0         0
         0         0         0         0         0         0         0         0
         0         0         0         0         0         0         0         0
         0         0         0         0         0         0         0         0
         0         0         0         0         0         0         0         0
         0         0         0         0         0         0         0         0
         0         0         0         0         0         0         0         0
         0         0         0         0         0         0         0         0
         0         0         0         0         0         0         0         0
         0         0         0         0         0         0         0         0
         0         0         0         0         0         0         0         0
         0         0         0         0         0         0         0         0
         0         0         0         0         0         0         0         0
         0         0         0         0         0         0         0         0
         0         0         0         0         0         0         0         0
         0         0         0         0         0         0         0         0
         0         0         0         0         0         0         0         0
         0         0         0         0         0         0         0         0
         0         0         0         0         0         0         0         0
         0         0         0         0         0         0         0         0
         0         0         0         0         0         0         0         0
         0         0         0         0         0         0         0         0
         0         0         0         0         0         0         0         0
         0         0         0         0         0         0         0         0
         0         0         0         0         0         0         0         0
         0         0         0         0         0         0         0         0
         0         0         0         0         0         0         0         0
         0         0         0         0         0         0         0         0
         0         0         0         0         0         0         0         0
         0         0         0         0         0         0         0         0
         0         0         0         0         0         0         0         0
         0         0         0         0         0         0         0         0
         0         0         0         0         0         0         0         0
         0         0         0         0         0         0         0         0
         0         0         0         0         0         0         0         0
         0         0         0         0         0         0         0         0
         0         0         0         0         0         0         0         0
         0         0         0         0         0         0         0         0
         0         0         0         0         0         0         0         0
         0         0         0         0         0         0         0         0
         0         0         0         0         0         0         0         0
         0         0         0         0         0         0         0         0
         0         0         0         0         0         0         0         0
         0         0         0         0         0         0         0         0
         0         0         0         0         0         0         0         0
         0         0         0         0         0         0         0         0
         0         0         0         0         0         0         0         0
         0         0         0         0         0         0         0         0
         0         0         0         0         0         0         0         0
         0         0         0         0         0         0         0         0
         0         0         0         0         0         0         0         0
         0         0         0         0         0         0         0         0
         0         0         0         0         0         0         0         0
         0         0         0         0         0         0         0         0
         0         0         0         0         0         0         0         0
         0         0         0         0         0         0         0         0
         0         0         0         0         0         0         0         0
         0         0         0         0         0         0         0         0
         0         0         0         0         0         0         0         0
         0         0         0         0         0         0         0         0
         0         0         0         0         0         0         0         0
         0         0         0         0         0         0         0         0
         0         0         0         0         0         0         0         0
         0         0         0         0         0         0         0         0
         0         0         0         0         0         0         0         0
         0         0         0         0         0         0         0         0
         0         0         0         0         0         0         0         0
         0         0         0         0         0         0         0         0
         0         0         0         0         0         0         0         0
         0         0         0         0         0         0         0         0
         0         0         0         0         0         0         0         0
         0         0         0         0         0         0         0         0
         0         0         0         0         0         0         0         0
         0         0         0         0         0         0         0         0
         0         0         0         0         0         0         0         0
         0         0         0         0         0         0         0         0
         0         0         0         0         0         0         0         0
         0         0         0         0         0         0         0         0
         0         0         0         0         0         0         0         0
         0         0         0         0         0         0         0         0
         0         0         0         0         0         0         0         0
         0         0         0         0         0         0         0         0
         0         0         0         0         0         0         0         0
         0         0         0         0         0         0         0         0
         0         0         0         0         0         0         0         0
         0         0         0         0         0         0         0         0
         0         0         0         0         0         0         0         0
         0         0         0         0         0         0         0         0
         0         0         0         0         0         0         0         0
         0         0         0         0         0         0         0         0
         0         0         0         0         0         0         0         0
         0         0         0         0         0         0         0         0
         0         0         0         0         0         0         0         0
         0         0         0         0         0         0         0         0
         0         0         0         0         0         0         0         0
         0         0         0         0         0         0         0         0
         0         0         0         0         0         0         0         0
         0         0         0         0         0         0         0         0
         0         0         0         0         0         0         0         0
         0         0         0         0         0         0         0         0
         0         0         0         0         0         0         0         0
         0         0         0         0         0         0         0         0
         0         0         0         0         0         0         0         0
         0         0         0         0         0         0         0         0
         0         0         0         0         0         0         0         0
         0         0         0         0         0         0         0         0
         0         0         0         0         0         0         0         0
         0         0         0         0         0         0         0         0
         0         0         0         0         0         0         0         0
         0         0         0         0         0         0         0         0
         0         0         0         0         0         0         0         0
         0         0         0         0         0         0         0         0
         0         0         0         0         0         0         0         0
         0         0         0         0         0         0         0         0
         0         0         0         0         0         0         0         0
         0         0         0         0         0         0         0         0
         0         0         0         0         0         0         0         0
         0         0         0         0         0         0         0         0
         0         0         0         0         0         0         0         0
         0         0         0         0         0         0         0         0
         0         0         0         0         0         0         0         0
         0         0         0         0         0         0         0         0
         0         0         0         0         0         0         0         0
         0         0         0         0         0         0         0         0
         0         0         0         0         0         0         0         0
         0         0         0         0         0         0         0         0
         0         0         0         0         0         0         0         0
         0         0         0         0         0         0         0         0
         0         0         0         0         0         0         0         0
         0         0         0         0         0         0         0         0
         0         0         0         0         0         0         0         0
         0         0         0         0         0         0         0         0
         0         0         0         0         0         0         0         0
         0         0         0         0         0         0         0         0
         0         0         0         0         0         0         0         0
         0         0         0         0         0         0         0         0
         0         0         0         0         0         0         0         0
         0         0         0         0         0         0         0         0
         0         0         0         0         0         0         0         0
         0         0         0         0         0         0         0         0
         0         0         0         0         0         0         0         0
         0         0         0         0         0         0         0         0
         0         0         0         0         0         0         0         0
         0         0         0         0         0         0         0         0
         0         0         0         0         0         0         0         0
         0         0         0         0         0         0         0         0
         0         0         0         0         0         0         0         0
         0         0         0         0         0         0         0         0
         0         0         0         0         0         0         0         0
         0         0         0         0         0         0         0         0
         0         0         0         0         0         0         0         0
         0         0         0         0         0         0         0         0
         0         0         0         0         0         0         0         0
         0         0         0         0         0         0         0         0
         0         0         0         0         0         0         0         0
         0         0         0         0         0         0         0         0
         0         0         0         0         0         0         0         0
         0         0         0         0         0         0         0         0
         0         0         0         0         0         0         0         0
         0         0         0         0         0         0         0         0
         0         0         0         0         0         0         0         0
         0         0         0         0         0         0         0         0
         0         0         0         0         0         0         0         0
         0         0         0         0         0         0         0         0
         0         0         0         0         0         0         0         0
         0         0         0         0         0         0         0         0
         0         0         0         0         0         0         0         0
         0         0         0         0         0         0         0         0
         0         0         0         0         0         0         0         0
         0         0         0         0         0         0         0         0
         0         0         0         0         0         0         0         0
         0         0         0         0         0         0         0         0
         0         0         0         0         0         0         0         0
         0         0         0         0         0         0         0         0
         0         0         0         0         0         0         0         0
         0         0         0         0         0         0         0         0
         0         0         0         0         0         0         0         0
         0         0         0         0         0         0         0         0
         0         0         0         0         0         0         0         0
         0         0         0         0         0         0         0         0
         0         0         0         0         0         0         0         0
         0         0         0         0         0         0         0         0
         0         0         0         0         0         0         0         0
         0         0         0         0         0         0         0         0
         0         0         0         0         0         0         0         0
         0         0         0         0         0         0         0         0
         0         0         0         0         0         0         0         0
         0         0         0         0         0         0         0         0
         0         0         0         0         0         0         0         0
         0         0         0         0         0         0         0         0
         0         0         0         0         0         0         0         0
         0         0         0         0         0         0         0         0
         0         0         0         0         0         0         0         0
         0         0         0         0         0         0         0         0
         0         0         0         0         0         0         0         0
         0         0         0         0         0         0         0         0
         0         0         0         0         0         0         0         0
         0         0         0         0         0         0         0         0
         0         0         0         0         0         0         0         0
         0         0         0         0         0         0         0         0
         0         0         0         0         0         0         0         0
         0         0         0         0         0         0         0         0
         0         0         0         0         0         0         0         0
         0         0         0         0         0         0         0         0
         0         0         0         0         0         0         0         0
         0         0         0         0         0         0         0         0
         0         0         0         0         0         0         0         0
         0         0         0         0         0         0         0         0
         0         0         0         0         0         0         0         0
         0         0         0         0         0         0         0         0
         0         0         0         0         0         0         0         0
         0         0         0         0         0         0         0         0
         0         0         0         0         0         0         0         0
         0         0         0         0         0         0         0         0
         0         0         0         0         0         0         0         0
         0         0         0         0         0         0         0         0
         0         0         0         0         0         0         0         0
         0         0         0         0         0         0         0         0
         0         0         0         0         0         0         0         0
         0         0         0         0         0         0         0         0
         0         0         0         0         0         0         0         0
         0         0         0         0         0         0         0         0
         0         0         0         0         0         0         0         0
         0         0         0         0         0         0         0         0
         0         0         0         0         0         0         0         0
         0         0         0         0         0         0         0         0
         0         0         0         0         0         0         0         0
         0         0         0         0         0         0         0         0
         0         0         0         0         0         0         0         0
         0         0         0         0         0         0         0         0
         0         0         0         0         0         0         0         0
         0         0         0         0         0         0         0         0
         0         0         0         0         0         0         0         0
         0         0         0         0         0         0         0         0
         0         0         0         0         0         0         0         0
         0         0         0         0         0         0         0         0
         0         0         0         0         0         0         0         0
         0         0         0         0         0         0         0         0
         0         0         0         0         0         0         0         0
         0         0         0         0         0         0         0         0
         0         0         0         0         0         0         0         0
         0         0         0         0         0         0         0         0
         0         0         0         0         0         0         0         0
         0         0         0         0         0         0         0         0
         0         0         0         0         0         0         0         0
         0         0         0         0         0         0         0         0
         0         0         0         0         0         0         0         0
         0         0         0         0         0         0         0         0
         0         0         0         0         0         0         0         0
         0         0         0         0         0         0         0         0
         0         0         0         0         0         0         0         0
         0         0         0         0         0         0         0         0
         0         0         0         0         0         0         0         0
         0         0         0         0         0         0         0         0
         0         0         0         0         0         0         0         0
         0         0         0         0         0         0         0         0
         0         0         0         0         0         0         0         0
         0         0         0         0         0         0         0         0
         0         0         0         0         0         0         0         0
         0         0         0         0         0         0         0         0
         0         0         0         0         0         0         0         0
         0         0         0         0         0         0         0         0
         0         0         0         0         0         0         0         0
         0         0         0         0         0         0         0         0
         0         0         0         0         0         0         0         0
         0         0         0         0         0         0         0         0
         0         0         0         0         0         0         0         0
         0         0         0         0         0         0         0         0
         0         0         0         0         0         0         0         0
         0         0         0         0         0         0         0         0
         0         0         0         0         0         0         0         0
         0         0         0         0         0         0         0         0
         0         0         0         0         0         0         0         0
         0         0         0         0         0         0         0         0
         0         0         0         0         0         0         0         0
         0         0         0         0         0         0         0         0
         0         0         0         0         0         0         0         0
         0         0         0         0         0         0         0         0
         0         0         0         0         0         0         0         0
         0         0         0         0         0         0         0         0
         0         0         0         0         0         0         0         0
         0         0         0         0         0         0         0         0
         0         0         0         0         0         0         0         0
         0         0         0         0         0         0         0         0
         0         0         0         0         0         0         0         0
         0         0         0         0         0         0         0         0
         0         0         0         0         0         0         0         0
         0         0         0         0         0         0         0         0
         0         0         0         0         0         0         0         0
         0         0         0         0         0         0         0         0
         0         0         0         0         0         0         0         0
         0         0         0         0         0         0         0         0
         0         0         0         0         0         0         0         0
         0         0         0         0         0         0         0         0
         0         0         0         0         0         0         0         0
         0         0         0         0         0         0         0         0
         0         0         0         0         0         0         0         0
         0         0         0         0         0         0         0         0
         0         0         0         0         0         0         0         0
         0         0         0         0         0         0         0         0
         0         0         0         0         0         0         0         0
         0         0         0         0         0         0         0         0
         0         0         0         0         0         0         0         0
         0         0         0         0         0         0         0         0
         0         0         0         0         0         0         0         0
         0         0         0         0         0         0         0         0
         0         0         0         0         0         0         0         0
         0         0         0         0         0         0         0         0
         0         0         0         0         0         0         0         0
         0         0         0         0         0         0         0         0
         0         0         0         0         0         0         0         0
         0         0         0         0         0         0         0         0
         0         0         0         0         0         0         0         0
         0         0         0         0         0         0         0         0
         0         0         0         0         0         0         0         0
         0         0         0         0         0         0         0         0
         0         0         0         0         0         0         0         0
         0         0         0         0         0         0         0         0
         0         0         0         0         0         0         0         0
         0         0         0         0         0         0         0         0
         0         0         0         0         0         0         0         0
         0         0         0         0         0         0         0         0
         0         0         0         0         0         0         0         0
         0         0         0         0         0         0         0         0
         0         0         0         0         0         0         0         0
         0         0         0         0         0         0         0         0
         0         0         0         0         0         0         0         0
         0         0         0         0         0         0         0         0
         0         0         0         0         0         0         0         0
         0         0         0         0         0         0         0         0
         0         0         0         0         0         0         0         0
         0         0         0         0         0         0         0         0
         0         0         0         0         0         0         0         0
         0         0         0         0         0         0         0         0
         0         0         0         0         0         0         0         0
         0         0         0         0         0         0         0         0
         0         0         0         0         0         0         0         0
         0         0         0         0         0         0         0         0
         0         0         0         0         0         0         0         0
         0         0         0         0         0         0         0         0
         0         0         0         0         0         0         0         0
         0         0         0         0         0         0         0         0
         0         0         0         0         0         0         0         0
         0         0         0         0         0         0         0         0
         0         0         0         0         0         0         0         0
         0         0         0         0         0         0         0         0
         0         0         0         0         0         0         0         0
         0         0         0         0         0         0         0         0
         0         0         0         0         0         0         0         0
         0         0         0         0         0         0         0         0
         0         0         0         0         0         0         0         0
         0         0         0         0         0         0         0         0
         0         0         0         0         0         0         0         0
         0         0         0         0         0         0         0         0
         0         0         0         0         0         0         0         0
         0         0         0         0         0         0         0         0
         0         0         0         0         0         0         0         0
         0         0         0         0         0         0         0         0
         0         0         0         0         0         0         0         0
         0         0         0         0         0         0         0         0
         0         0         0         0         0         0         0         0
         0         0         0         0         0         0         0         0
         0         0         0         0         0         0         0         0
         0         0         0         0         0         0         0         0
         0         0         0         0         0         0         0         0
         0         0         0         0         0         0         0         0
         0         0         0         0         0         0         0         0
         0         0         0         0         0         0         0         0
         0         0         0         0         0         0         0         0
         0         0         0         0         0         0         0         0
         0         0         0         0         0         0         0         0
         0         0         0         0         0         0         0         0
         0         0         0         0         0         0         0         0
         0         0         0         0         0         0         0         0
         0         0         0         0         0         0         0         0
         0         0         0         0         0         0         0         0
         0         0         0         0         0         0         0         0
         0         0         0         0         0         0         0         0
         0         0         0         0         0         0         0         0
         0         0         0         0         0         0         0         0
         0         0         0         0         0         0         0         0
         0         0         0         0         0         0         0         0
         0         0         0         0         0         0         0         0
         0         0         0         0         0         0         0         0
         0         0         0         0         0         0         0         0
         0         0         0         0         0         0         0         0
         0         0         0         0         0         0         0         0
         0         0         0         0         0         0         0         0
         0         0         0         0         0         0         0         0
         0         0         0         0         0         0         0         0
         0         0         0         0         0         0         0         0
         0         0         0         0         0         0         0         0
         0         0         0         0         0         0         0         0
         0         0         0         0         0         0         0         0
         0         0         0         0         0         0         0         0
         0         0         0         0         0         0         0         0
         0         0         0         0         0         0         0         0
         0         0         0         0         0         0         0         0
         0         0         0         0         0         0         0         0
         0         0         0         0         0         0         0         0
         0         0         0         0         0         0         0         0
         0         0         0         0         0         0         0         0
         0         0         0         0         0         0         0         0
         0         0         0         0         0         0         0         0
         0         0         0         0         0         0         0         0
         0         0         0         0         0         0         0         0
         0         0         0         0         0         0         0         0
         0         0         0         0         0         0         0         0
         0         0         0         0         0         0         0         0
         0         0         0         0         0         0         0         0
         0         0         0         0         0         0         0         0
         0         0         0         0         0         0         0         0
         0         0         0         0         0         0         0         0
         0         0         0         0         0         0         0         0
         0         0         0         0         0         0         0         0
         0         0         0         0         0         0         0         0
         0         0         0         0         0         0         0         0
         0         0         0         0         0         0         0         0
         0         0         0         0         0         0         0         0
         0         0         0         0         0         0         0         0
         0         0         0         0         0         0         0         0
         0         0         0         0         0         0         0         0
         0         0         0         0         0         0         0         0
         0         0         0         0         0         0         0         0
         0         0         0         0         0         0         0         0
         0         0         0         0         0         0         0         0
         0         0         0         0         0         0         0         0
         0         0         0         0         0         0         0         0
         0         0         0         0         0         0         0         0
         0         0         0         0         0         0         0         0
         0         0         0         0         0         0         0         0
         0         0         0         0         0         0         0         0
         0         0         0         0         0         0         0         0
         0         0         0         0         0         0         0         0
         0         0         0         0         0         0         0         0
         0         0         0         0         0         0         0         0
         0         0         0         0         0         0         0         0
         0         0         0         0         0         0         0         0
         0         0         0         0         0         0         0         0
         0         0         0         0         0         0         0         0
         0         0         0         0         0         0         0         0
         0         0         0         0         0         0         0         0
         0         0         0         0         0         0         0         0
         0         0         0         0         0         0         0         0
         0         0         0         0         0         0         0         0
         0         0         0         0         0         0         0         0
         0         0         0         0         0         0         0         0
         0         0         0         0         0         0         0         0
         0         0         0         0         0         0         0         0
         0         0         0         0         0         0         0         0
         0         0         0         0         0         0         0         0
         0         0         0         0         0         0         0         0
         0         0         0         0         0         0         0         0
         0         0         0         0         0         0         0         0
         0         0         0         0         0         0         0         0
         0         0         0         0         0         0         0         0
         0         0         0         0         0         0         0         0
         0         0         0         0         0         0         0         0
         0         0         0         0         0         0         0         0
         0         0         0         0         0         0         0         0
         0         0         0         0         0         0         0         0
         0         0         0         0         0         0         0         0
         0         0         0         0         0         0         0         0
         0         0         0         0         0         0         0         0
         0         0         0         0         0         0         0         0
         0         0         0         0         0         0         0         0
         0         0         0         0         0         0         0         0
         0         0         0         0         0         0         0         0
         0         0         0         0         0         0         0         0
         0         0         0         0         0         0         0         0
         0         0         0         0         0         0         0         0
         0         0         0         0         0         0         0         0
         0         0         0         0         0         0         0         0
         0         0         0         0         0         0         0         0
         0         0         0         0         0         0         0         0
         0         0         0         0         0         0         0         0
         0         0         0         0         0         0         0         0
         0         0         0         0         0         0         0         0
         0         0         0         0         0         0         0         0
         0         0         0         0         0         0         0         0
         0         0         0         0         0         0         0         0
         0         0         0         0         0         0         0         0
         0         0         0         0         0         0         0         0
         0         0         0         0         0         0         0         0
         0         0         0         0         0         0         0         0
         0         0         0         0         0         0         0         0
         0         0         0         0         0         0         0         0
         0         0         0         0         0         0         0         0
         0         0         0         0         0         0         0         0
         0         0         0         0         0         0         0         0
         0         0         0         0         0         0         0         0
         0         0         0         0         0         0         0         0
         0         0         0         0         0         0         0         0
         0         0         0         0         0         0         0         0
         0         0         0         0         0         0         0         0
         0         0         0         0         0         0         0         0
         0         0         0         0         0         0         0         0
         0         0         0         0         0         0         0         0
         0         0         0         0         0         0         0         0
         0         0         0         0         0         0         0         0
         0         0         0         0         0         0         0         0
         0         0         0         0         0         0         0         0
         0         0         0         0         0         0         0         0
         0         0         0         0         0         0         0         0
         0         0         0         0         0         0         0         0
         0         0         0         0         0         0         0         0
         0         0         0         0         0         0         0         0
         0         0         0         0         0         0         0         0
         0         0         0         0         0         0         0         0
         0         0         0         0         0         0         0         0
         0         0         0         0         0         0         0         0
         0         0         0         0         0         0         0         0
         0         0         0         0         0         0         0         0
         0         0         0         0         0         0         0         0
         0         0         0         0         0         0         0         0
         0         0         0         0         0         0         0         0
         0         0         0         0         0         0         0         0
         0         0         0         0         0         0         0         0
         0         0         0         0         0         0         0         0
         0         0         0         0         0         0         0         0
         0         0         0         0         0         0         0         0
         0         0         0         0         0         0         0         0
         0         0         0         0         0         0         0         0
         0         0         0         0         0         0         0         0
         0         0         0         0         0         0         0         0
         0         0         0         0         0         0         0         0
         0         0         0         0         0         0         0         0
         0         0         0         0         0         0         0         0
         0         0         0         0         0         0         0         0
         0         0         0         0         0         0         0         0
         0         0         0         0         0         0         0         0
         0         0         0         0         0         0         0         0
         0         0         0         0         0         0         0         0
         0         0         0         0         0         0         0         0
         0         0         0         0         0         0         0         0
         0         0         0         0         0         0         0         0
         0         0         0         0         0         0         0         0
         0         0         0         0         0         0         0         0
         0         0         0         0         0         0         0         0
         0         0         0         0         0         0         0         0
         0         0         0         0         0         0         0         0
         0         0         0         0         0         0         0         0
         0         0         0         0         0         0         0         0
         0         0         0         0         0         0         0         0
         0         0         0         0         0         0         0         0
         0         0         0         0         0         0         0         0
         0         0         0         0         0         0         0         0
         0         0         0         0         0         0         0         0
         0         0         0         0         0         0         0         0
         0         0         0         0         0         0         0         0
         0         0         0         0         0         0         0         0
         0         0         0         0         0         0         0         0
         0         0         0         0         0         0         0         0
         0         0         0         0         0         0         0         0
         0         0         0         0         0         0         0         0
         0         0         0         0         0         0         0         0
         0         0         0         0         0         0         0         0
         0         0         0         0         0         0         0         0
         0         0         0         0         0         0         0         0
         0         0         0         0         0         0         0         0
         0         0         0         0         0         0         0         0
         0         0         0         0         0         0         0         0
         0         0         0         0         0         0         0         0
         0         0         0         0         0         0         0         0
         0         0         0         0         0         0         0         0
         0         0         0         0         0         0         0         0
         0         0         0         0         0         0         0         0
         0         0         0         0         0         0         0         0
         0         0         0         0         0         0         0         0
         0         0         0         0         0         0         0         0
         0         0         0         0         0         0         0         0
         0         0         0         0         0         0         0         0
         0         0         0         0         0         0         0         0
         0         0         0         0         0         0         0         0
         0         0         0         0         0         0         0         0
         0         0         0         0         0         0         0         0
         0         0         0         0         0         0         0         0
         0         0         0         0         0         0         0         0
         0         0         0         0         0         0         0         0
         0         0         0         0         0         0         0         0
         0         0         0         0         0         0         0         0
         0         0         0         0         0         0         0         0
         0         0         0         0         0         0         0         0
         0         0         0         0         0         0         0         0
         0         0         0         0         0         0         0         0
         0         0         0         0         0         0         0         0
         0         0         0         0         0         0         0         0
         0         0         0         0         0         0         0         0
         0         0         0         0         0         0         0         0
         0         0         0         0         0         0         0         0
         0         0         0         0         0         0         0         0
         0         0         0         0         0         0         0         0
         0         0         0         0         0         0         0         0
         0         0         0         0         0         0         0         0
         0         0         0         0         0         0         0         0
         0         0         0         0         0         0         0         0
         0         0         0         0         0         0         0         0
         0         0         0         0         0         0         0         0
         0         0         0         0         0         0         0         0
         0         0         0         0         0         0         0         0
         0         0         0         0         0         0         0         0
         0         0         0         0         0         0         0         0
         0         0         0         0         0         0         0         0
         0         0         0         0         0         0         0         0
         0         0         0         0         0         0         0         0
         0         0         0         0         0         0         0         0
         0         0         0         0         0         0         0         0
         0         0         0         0         0         0         0         0
         0         0         0         0         0         0         0         0
         0         0         0         0         0         0         0         0
         0         0         0         0         0         0         0         0
         0         0         0         0         0         0         0         0
         0         0         0         0         0         0         0         0
         0         0         0         0         0         0         0         0
         0         0         0         0         0         0         0         0
         0         0         0         0         0         0         0         0
         0         0         0         0         0         0         0         0
         0         0         0         0         0         0         0         0
         0         0         0         0         0         0         0         0
         0         0         0         0         0         0         0         0
         0         0         0         0         0         0         0         0
         0         0         0         0         0         0         0         0
         0         0         0         0         0         0         0         0
         0         0         0         0         0         0         0         0
         0         0         0         0         0         0         0         0
         0         0         0         0         0         0         0         0
         0         0         0         0         0         0         0         0
         0         0         0         0         0         0         0         0
         0         0         0         0         0         0         0         0
         0         0         0         0         0         0         0         0
         0         0         0         0         0         0         0         0
         0         0         0         0         0         0         0         0
         0         0         0         0         0         0         0         0
         0         0         0         0         0         0         0         0
         0         0         0         0         0         0         0         0
         0         0         0         0         0         0         0         0
         0         0         0         0         0         0         0         0
         0         0         0         0         0         0         0         0
         0         0         0         0         0         0         0         0
         0         0         0         0         0         0         0         0
         0         0         0         0         0         0         0         0
         0         0         0         0         0         0         0         0
         0         0         0         0         0         0         0         0
         0         0         0         0         0         0         0         0
         0         0         0         0         0         0         0         0
         0         0         0         0         0         0         0         0
         0         0         0         0         0         0         0         0
         0         0         0         0         0         0         0         0
         0         0         0         0         0         0         0         0
         0         0         0         0         0         0         0         0
         0         0         0         0         0         0         0         0
         0         0         0         0         0         0         0         0
         0         0         0         0         0         0         0         0
         0         0         0         0         0         0         0         0
         0         0         0         0         0         0         0         0
         0         0         0         0         0         0         0         0
         0         0         0         0         0         0         0         0
         0         0         0         0         0         0         0         0
         0         0         0         0         0         0         0         0
         0         0         0         0         0         0         0         0
         0         0         0         0         0         0         0         0
         0         0         0         0         0         0         0         0
         0         0         0         0         0         0         0         0
         0         0         0         0         0         0         0         0
         0         0         0         0         0         0         0         0
         0         0         0         0         0         0         0         0
         0         0         0         0         0         0         0         0
         0         0         0         0         0         0         0         0
         0         0         0         0         0         0         0         0
         0         0         0         0         0         0         0         0
         0         0         0         0         0         0         0         0
         0         0         0         0         0         0         0         0
         0         0         0         0         0         0         0         0
         0         0         0         0         0         0         0         0
         0         0         0         0         0         0         0         0
         0         0         0         0         0         0         0         0
         0         0         0         0         0         0         0         0
         0         0         0         0         0         0         0         0
         0         0         0         0         0         0         0         0
         0         0         0         0         0         0         0         0
         0         0         0         0         0         0         0         0
         0         0         0         0         0         0         0         0
         0         0         0         0         0         0         0         0
         0         0         0         0         0         0         0         0
         0         0         0         0         0         0         0         0
         0         0         0         0         0         0         0         0
         0         0         0         0         0         0         0         0
         0         0         0         0         0         0         0         0
         0         0         0         0         0         0         0         0
         0         0         0         0         0         0         0         0
         0         0         0         0         0         0         0         0
         0         0         0         0         0         0         0         0
         0         0         0         0         0         0         0         0
         0         0         0         0         0         0         0         0
         0         0         0         0         0         0         0         0
         0         0         0         0         0         0         0         0
         0         0         0         0         0         0         0         0
         0         0         0         0         0         0         0         0
         0         0         0         0         0         0         0         0
         0         0         0         0         0         0         0         0
         0         0         0         0         0         0         0         0
     28638     28637     28639         0         1
     28641     28640     28642         0         1
     28644     28643     28645         0         1
     28647     28646     28648         0         1
     28650     28649     28651         0         1
     28653     28652     28654         0         1
     28656     28655     28657         0         1
     28659     28658     28660         0         1
     28662     28661     28663         0         1
     28665     28664     28666         0         1
     28668     28667     28669         0         1
     28671     28670     28672         0         1
     28674     28673     28675         0         1
     28677     28676     28678         0         1
     28680     28679     28681         0         1
     28683     28682     28684         0         1
     28686     28685     28687         0         1
     28689     28688     28690         0         1
     28692     28691     28693         0         1
     28695     28694     28696         0         1
     28698     28697     28699         0         1
     28701     28700     28702         0         1
     28704     28703     28705         0         1
     28707     28706     28708         0         1
     28710     28709     28711         0         1
     28713     28712     28714         0         1
     28716     28715     28717         0         1
     28719     28718     28720         0         1
     28722     28721     28723         0         1
     28725     28724     28726         0         1
     28728     28727     28729         0         1
     28731     28730     28732         0         1
     28734     28733     28735         0         1
     28737     28736     28738         0         1
     28740     28739     28741         0         1
     28743     28742     28744         0         1
     28746     28745     28747         0         1
     28749     28748     28750         0         1
     28752     28751     28753         0         1
     28755     28754     28756         0         1
     28758     28757     28759         0         1
     28761     28760     28762         0         1
     28764     28763     28765         0         1
     28767     28766     28768         0         1
     28770     28769     28771         0         1
     28773     28772     28774         0         1
     28776     28775     28777         0         1
     28779     28778     28780         0         1
     28782     28781     28783         0         1
     28785     28784     28786         0         1
     28788     28787     28789         0         1
     28791     28790     28792         0         1
     28794     28793     28795         0         1
     28797     28796     28798         0         1
     28800     28799     28801         0         1
     28803     28802     28804         0         1
     28806     28805     28807         0         1
     28809     28808     28810         0         1
     28812     28811     28813         0         1
     28815     28814     28816         0         1
     28818     28817     28819         0         1
     28821     28820     28822         0         1
     28824     28823     28825         0         1
     28827     28826     28828         0         1
     28830     28829     28831         0         1
     28833     28832     28834         0         1
     28836     28835     28837         0         1
     28839     28838     28840         0         1
     28842     28841     28843         0         1
     28845     28844     28846         0         1
     28848     28847     28849         0         1
     28851     28850     28852         0         1
     28854     28853     28855         0         1
     28857     28856     28858         0         1
     28860     28859     28861         0         1
     28863     28862     28864         0         1
     28866     28865     28867         0         1
     28869     28868     28870         0         1
     28872     28871     28873         0         1
     28875     28874     28876         0         1
     28878     28877     28879         0         1
     28881     28880     28882         0         1
     28884     28883     28885         0         1
     28887     28886     28888         0         1
     28890     28889     28891         0         1
     28893     28892     28894         0         1
     28896     28895     28897         0         1
     28899     28898     28900         0         1
     28902     28901     28903         0         1
     28905     28904     28906         0         1
     28908     28907     28909         0         1
     28911     28910     28912         0         1
     28914     28913     28915         0         1
     28917     28916     28918         0         1
     28920     28919     28921         0         1
     28923     28922     28924         0         1
     28926     28925     28927         0         1
     28929     28928     28930         0         1
     28932     28931     28933         0         1
     28935     28934     28936         0         1
     28938     28937     28939         0         1
     28941     28940     28942         0         1
     28944     28943     28945         0         1
     28947     28946     28948         0         1
     28950     28949     28951         0         1
     28953     28952     28954         0         1
     28956     28955     28957         0         1
     28959     28958     28960         0         1
     28962     28961     28963         0         1
     28965     28964     28966         0         1
     28968     28967     28969         0         1
     28971     28970     28972         0         1
     28974     28973     28975         0         1
     28977     28976     28978         0         1
     28980     28979     28981         0         1
     28983     28982     28984         0         1
     28986     28985     28987         0         1
     28989     28988     28990         0         1
     28992     28991     28993         0         1
     28995     28994     28996         0         1
     28998     28997     28999         0         1
     29001     29000     29002         0         1
     29004     29003     29005         0         1
     29007     29006     29008         0         1
     29010     29009     29011         0         1
     29013     29012     29014         0         1
     29016     29015     29017         0         1
     29019     29018     29020         0         1
     29022     29021     29023         0         1
     29025     29024     29026         0         1
     29028     29027     29029         0         1
     29031     29030     29032         0         1
     29034     29033     29035         0         1
     29037     29036     29038         0         1
     29040     29039     29041         0         1
     29043     29042     29044         0         1
     29046     29045     29047         0         1
     29049     29048     29050         0         1
     29052     29051     29053         0         1
     29055     29054     29056         0         1
     29058     29057     29059         0         1
     29061     29060     29062         0         1
     29064     29063     29065         0         1
     29067     29066     29068         0         1
     29070     29069     29071         0         1
     29073     29072     29074         0         1
     29076     29075     29077         0         1
     29079     29078     29080         0         1
     29082     29081     29083         0         1
     29085     29084     29086         0         1
     29088     29087     29089         0         1
     29091     29090     29092         0         1
     29094     29093     29095         0         1
     29097     29096     29098         0         1
     29100     29099     29101         0         1
     29103     29102     29104         0         1
     29106     29105     29107         0         1
     29109     29108     29110         0         1
     29112     29111     29113         0         1
     29115     29114     29116         0         1
     29118     29117     29119         0         1
     29121     29120     29122         0         1
     29124     29123     29125         0         1
     29127     29126     29128         0         1
     29130     29129     29131         0         1
     29133     29132     29134         0         1
     29136     29135     29137         0         1
     29139     29138     29140         0         1
     29142     29141     29143         0         1
     29145     29144     29146         0         1
     29148     29147     29149         0         1
     29151     29150     29152         0         1
     29154     29153     29155         0         1
     29157     29156     29158         0         1
     29160     29159     29161         0         1
     29163     29162     29164         0         1
     29166     29165     29167         0         1
     29169     29168     29170         0         1
     29172     29171     29173         0         1
     29175     29174     29176         0         1
     29178     29177     29179         0         1
     29181     29180     29182         0         1
     29184     29183     29185         0         1
     29187     29186     29188         0         1
     29190     29189     29191         0         1
     29193     29192     29194         0         1
     29196     29195     29197         0         1
     29199     29198     29200         0         1
     29202     29201     29203         0         1
     29205     29204     29206         0         1
     29208     29207     29209         0         1
     29211     29210     29212         0         1
     29214     29213     29215         0         1
     29217     29216     29218         0         1
     29220     29219     29221         0         1
     29223     29222     29224         0         1
     29226     29225     29227         0         1
     29229     29228     29230         0         1
     29232     29231     29233         0         1
     29235     29234     29236         0         1
     29238     29237     29239         0         1
     29241     29240     29242         0         1
     29244     29243     29245         0         1
     29247     29246     29248         0         1
     29250     29249     29251         0         1
     29253     29252     29254         0         1
     29256     29255     29257         0         1
     29259     29258     29260         0         1
     29262     29261     29263         0         1
     29265     29264     29266         0         1
     29268     29267     29269         0         1
     29271     29270     29272         0         1
     29274     29273     29275         0         1
     29277     29276     29278         0         1
     29280     29279     29281         0         1
     29283     29282     29284         0         1
     29286     29285     29287         0         1
     29289     29288     29290         0         1
     29292     29291     29293         0         1
     29295     29294     29296         0         1
     29298     29297     29299         0         1
     29301     29300     29302         0         1
     29304     29303     29305         0         1
     29307     29306     29308         0         1
     29310     29309     29311         0         1
     29313     29312     29314         0         1
     29316     29315     29317         0         1
     29319     29318     29320         0         1
     29322     29321     29323         0         1
     29325     29324     29326         0         1
     29328     29327     29329         0         1
     29331     29330     29332         0         1
     29334     29333     29335         0         1
     29337     29336     29338         0         1
     29340     29339     29341         0         1
     29343     29342     29344         0         1
     29346     29345     29347         0         1
     29349     29348     29350         0         1
     29352     29351     29353         0         1
     29355     29354     29356         0         1
     29358     29357     29359         0         1
     29361     29360     29362         0         1
     29364     29363     29365         0         1
     29367     29366     29368         0         1
     29370     29369     29371         0         1
     29373     29372     29374         0         1
     29376     29375     29377         0         1
     29379     29378     29380         0         1
     29382     29381     29383         0         1
     29385     29384     29386         0         1
     29388     29387     29389         0         1
     29391     29390     29392         0         1
     29394     29393     29395         0         1
     29397     29396     29398         0         1
     29400     29399     29401         0         1
     29403     29402     29404         0         1
     29406     29405     29407         0         1
     29409     29408     29410         0         1
     29412     29411     29413         0         1
     29415     29414     29416         0         1
     29418     29417     29419         0         1
     29421     29420     29422         0         1
     29424     29423     29425         0         1
     29427     29426     29428         0         1
     29430     29429     29431         0         1
     29433     29432     29434         0         1
     29436     29435     29437         0         1
     29439     29438     29440         0         1
     29442     29441     29443         0         1
     29445     29444     29446         0         1
     29448     29447     29449         0         1
     29451     29450     29452         0         1
     29454     29453     29455         0         1
     29457     29456     29458         0         1
     29460     29459     29461         0         1
     29463     29462     29464         0         1
     29466     29465     29467         0         1
     29469     29468     29470         0         1
     29472     29471     29473         0         1
     29475     29474     29476         0         1
     29478     29477     29479         0         1
     29481     29480     29482         0         1
     29484     29483     29485         0         1
     29487     29486     29488         0         1
     29490     29489     29491         0         1
     29493     29492     29494         0         1
     29496     29495     29497         0         1
     29499     29498     29500         0         1
     29502     29501     29503         0         1
     29505     29504     29506         0         1
     29508     29507     29509         0         1
     29511     29510     29512         0         1
     29514     29513     29515         0         1
     29517     29516     29518         0         1
     29520     29519     29521         0         1
     29523     29522     29524         0         1
     29526     29525     29527         0         1
     29529     29528     29530         0         1
     29532     29531     29533         0         1
     29535     29534     29536         0         1
     29538     29537     29539         0         1
     29541     29540     29542         0         1
     29544     29543     29545         0         1
     29547     29546     29548         0         1
     29550     29549     29551         0         1
     29553     29552     29554         0         1
     29556     29555     29557         0         1
     29559     29558     29560         0         1
     29562     29561     29563         0         1
     29565     29564     29566         0         1
     29568     29567     29569         0         1
     29571     29570     29572         0         1
     29574     29573     29575         0         1
     29577     29576     29578         0         1
     29580     29579     29581         0         1
     29583     29582     29584         0         1
     29586     29585     29587         0         1
     29589     29588     29590         0         1
     29592     29591     29593         0         1
     29595     29594     29596         0         1
     29598     29597     29599         0         1
     29601     29600     29602         0         1
     29604     29603     29605         0         1
     29607     29606     29608         0         1
     29610     29609     29611         0         1
     29613     29612     29614         0         1
     29616     29615     29617         0         1
     29619     29618     29620         0         1
     29622     29621     29623         0         1
     29625     29624     29626         0         1
     29628     29627     29629         0         1
     29631     29630     29632         0         1
     29634     29633     29635         0         1
     29637     29636     29638         0         1
     29640     29639     29641         0         1
     29643     29642     29644         0         1
     29646     29645     29647         0         1
     29649     29648     29650         0         1
     29652     29651     29653         0         1
     29655     29654     29656         0         1
     29658     29657     29659         0         1
     29661     29660     29662         0         1
     29664     29663     29665         0         1
     29667     29666     29668         0         1
     29670     29669     29671         0         1
     29673     29672     29674         0         1
     29676     29675     29677         0         1
     29679     29678     29680         0         1
     29682     29681     29683         0         1
     29685     29684     29686         0         1
     29688     29687     29689         0         1
     29691     29690     29692         0         1
     29694     29693     29695         0         1
     29697     29696     29698         0         1
     29700     29699     29701         0         1
     29703     29702     29704         0         1
     29706     29705     29707         0         1
     29709     29708     29710         0         1
     29712     29711     29713         0         1
     29715     29714     29716         0         1
     29718     29717     29719         0         1
     29721     29720     29722         0         1
     29724     29723     29725         0         1
     29727     29726     29728         0         1
     29730     29729     29731         0         1
     29733     29732     29734         0         1
     29736     29735     29737         0         1
     29739     29738     29740         0         1
     29742     29741     29743         0         1
     29745     29744     29746         0         1
     29748     29747     29749         0         1
     29751     29750     29752         0         1
     29754     29753     29755         0         1
     29757     29756     29758         0         1
     29760     29759     29761         0         1
     29763     29762     29764         0         1
     29766     29765     29767         0         1
     29769     29768     29770         0         1
     29772     29771     29773         0         1
     29775     29774     29776         0         1
     29778     29777     29779         0         1
     29781     29780     29782         0         1
     29784     29783     29785         0         1
     29787     29786     29788         0         1
     29790     29789     29791         0         1
     29793     29792     29794         0         1
     29796     29795     29797         0         1
     29799     29798     29800         0         1
     29802     29801     29803         0         1
     29805     29804     29806         0         1
     29808     29807     29809         0         1
     29811     29810     29812         0         1
     29814     29813     29815         0         1
     29817     29816     29818         0         1
     29820     29819     29821         0         1
     29823     29822     29824         0         1
     29826     29825     29827         0         1
     29829     29828     29830         0         1
     29832     29831     29833         0         1
     29835     29834     29836         0         1
     29838     29837     29839         0         1
     29841     29840     29842         0         1
     29844     29843     29845         0         1
     29847     29846     29848         0         1
     29850     29849     29851         0         1
     29853     29852     29854         0         1
     29856     29855     29857         0         1
     29859     29858     29860         0         1
     29862     29861     29863         0         1
     29865     29864     29866         0         1
     29868     29867     29869         0         1
     29871     29870     29872         0         1
     29874     29873     29875         0         1
     29877     29876     29878         0         1
     29880     29879     29881         0         1
     29883     29882     29884         0         1
     29886     29885     29887         0         1
     29889     29888     29890         0         1
     29892     29891     29893         0         1
     29895     29894     29896         0         1
     29898     29897     29899         0         1
     29901     29900     29902         0         1
     29904     29903     29905         0         1
     29907     29906     29908         0         1
     29910     29909     29911         0         1
     29913     29912     29914         0         1
     29916     29915     29917         0         1
     29919     29918     29920         0         1
     29922     29921     29923         0         1
     29925     29924     29926         0         1
     29928     29927     29929         0         1
     29931     29930     29932         0         1
     29934     29933     29935         0         1
     29937     29936     29938         0         1
     29940     29939     29941         0         1
     29943     29942     29944         0         1
     29946     29945     29947         0         1
     29949     29948     29950         0         1
     29952     29951     29953         0         1
     29955     29954     29956         0         1
     29958     29957     29959         0         1
     29961     29960     29962         0         1
     29964     29963     29965         0         1
     29967     29966     29968         0         1
     29970     29969     29971         0         1
     29973     29972     29974         0         1
     29976     29975     29977         0         1
     29979     29978     29980         0         1
     29982     29981     29983         0         1
     29985     29984     29986         0         1
     29988     29987     29989         0         1
     29991     29990     29992         0         1
     29994     29993     29995         0         1
     29997     29996     29998         0         1
     30000     29999     30001         0         1
     30003     30002     30004         0         1
     30006     30005     30007         0         1
     30009     30008     30010         0         1
     30012     30011     30013         0         1
     30015     30014     30016         0         1
     30018     30017     30019         0         1
     30021     30020     30022         0         1
     30024     30023     30025         0         1
     30027     30026     30028         0         1
     30030     30029     30031         0         1
     30033     30032     30034         0         1
     30036     30035     30037         0         1
     30039     30038     30040         0         1
     30042     30041     30043         0         1
     30045     30044     30046         0         1
     30048     30047     30049         0         1
     30051     30050     30052         0         1
     30054     30053     30055         0         1
     30057     30056     30058         0         1
     30060     30059     30061         0         1
     30063     30062     30064         0         1
     30066     30065     30067         0         1
     30069     30068     30070         0         1
     30072     30071     30073         0         1
     30075     30074     30076         0         1
     30078     30077     30079         0         1
     30081     30080     30082         0         1
     30084     30083     30085         0         1
     30087     30086     30088         0         1
     30090     30089     30091         0         1
     30093     30092     30094         0         1
     30096     30095     30097         0         1
     30099     30098     30100         0         1
     30102     30101     30103         0         1
     30105     30104     30106         0         1
     30108     30107     30109         0         1
     30111     30110     30112         0         1
     30114     30113     30115         0         1
     30117     30116     30118         0         1
     30120     30119     30121         0         1
     30123     30122     30124         0         1
     30126     30125     30127         0         1
     30129     30128     30130         0         1
     30132     30131     30133         0         1
     30135     30134     30136         0         1
     30138     30137     30139         0         1
     30141     30140     30142         0         1
     30144     30143     30145         0         1
     30147     30146     30148         0         1
     30150     30149     30151         0         1
     30153     30152     30154         0         1
     30156     30155     30157         0         1
     30159     30158     30160         0         1
     30162     30161     30163         0         1
     30165     30164     30166         0         1
     30168     30167     30169         0         1
     30171     30170     30172         0         1
     30174     30173     30175         0         1
     30177     30176     30178         0         1
     30180     30179     30181         0         1
     30183     30182     30184         0         1
     30186     30185     30187         0         1
     30189     30188     30190         0         1
     30192     30191     30193         0         1
     30195     30194     30196         0         1
     30198     30197     30199         0         1
     30201     30200     30202         0         1
     30204     30203     30205         0         1
     30207     30206     30208         0         1
     30210     30209     30211         0         1
     30213     30212     30214         0         1
     30216     30215     30217         0         1
     30219     30218     30220         0         1
     30222     30221     30223         0         1
     30225     30224     30226         0         1
     30228     30227     30229         0         1
     30231     30230     30232         0         1
     30234     30233     30235         0         1
     30237     30236     30238         0         1
     30240     30239     30241         0         1
     30243     30242     30244         0         1
     30246     30245     30247         0         1
     30249     30248     30250         0         1
     30252     30251     30253         0         1
     30255     30254     30256         0         1
     30258     30257     30259         0         1
     30261     30260     30262         0         1
     30264     30263     30265         0         1
     30267     30266     30268         0         1
     30270     30269     30271         0         1
     30273     30272     30274         0         1
     30276     30275     30277         0         1
     30279     30278     30280         0         1
     30282     30281     30283         0         1
     30285     30284     30286         0         1
     30288     30287     30289         0         1
     30291     30290     30292         0         1
     30294     30293     30295         0         1
     30297     30296     30298         0         1
     30300     30299     30301         0         1
     30303     30302     30304         0         1
     30306     30305     30307         0         1
     30309     30308     30310         0         1
     30312     30311     30313         0         1
     30315     30314     30316         0         1
     30318     30317     30319         0         1
     30321     30320     30322         0         1
     30324     30323     30325         0         1
     30327     30326     30328         0         1
     30330     30329     30331         0         1
     30333     30332     30334         0         1
     30336     30335     30337         0         1
     30339     30338     30340         0         1
     30342     30341     30343         0         1
     30345     30344     30346         0         1
     30348     30347     30349         0         1
     30351     30350     30352         0         1
     30354     30353     30355         0         1
     30357     30356     30358         0         1
     30360     30359     30361         0         1
     30363     30362     30364         0         1
     30366     30365     30367         0         1
     30369     30368     30370         0         1
     30372     30371     30373         0         1
     30375     30374     30376         0         1
     30378     30377     30379         0         1
     30381     30380     30382         0         1
     30384     30383     30385         0         1
     30387     30386     30388         0         1
     30390     30389     30391         0         1
     30393     30392     30394         0         1
     30396     30395     30397         0         1
     30399     30398     30400         0         1
     30402     30401     30403         0         1
     30405     30404     30406         0         1
     30408     30407     30409         0         1
     30411     30410     30412         0         1
     30414     30413     30415         0         1
     30417     30416     30418         0         1
     30420     30419     30421         0         1
     30423     30422     30424         0         1
     30426     30425     30427         0         1
     30429     30428     30430         0         1
     30432     30431     30433         0         1
     30435     30434     30436         0         1
     30438     30437     30439         0         1
     30441     30440     30442         0         1
     30444     30443     30445         0         1
     30447     30446     30448         0         1
     30450     30449     30451         0         1
     30453     30452     30454         0         1
     30456     30455     30457         0         1
     30459     30458     30460         0         1
     30462     30461     30463         0         1
     30465     30464     30466         0         1
     30468     30467     30469         0         1
     30471     30470     30472         0         1
     30474     30473     30475         0         1
     30477     30476     30478         0         1
     30480     30479     30481         0         1
     30483     30482     30484         0         1
     30486     30485     30487         0         1
     30489     30488     30490         0         1
     30492     30491     30493         0         1
     30495     30494     30496         0         1
     30498     30497     30499         0         1
     30501     30500     30502         0         1
     30504     30503     30505         0         1
     30507     30506     30508         0         1
     30510     30509     30511         0         1
     30513     30512     30514         0         1
     30516     30515     30517         0         1
     30519     30518     30520         0         1
     30522     30521     30523         0         1
     30525     30524     30526         0         1
     30528     30527     30529         0         1
     30531     30530     30532         0         1
     30534     30533     30535         0         1
     30537     30536     30538         0         1
     30540     30539     30541         0         1
     30543     30542     30544         0         1
     30546     30545     30547         0         1
     30549     30548     30550         0         1
     30552     30551     30553         0         1
     30555     30554     30556         0         1
     30558     30557     30559         0         1
     30561     30560     30562         0         1
     30564     30563     30565         0         1
     30567     30566     30568         0         1
     30570     30569     30571         0         1
     30573     30572     30574         0         1
     30576     30575     30577         0         1
     30579     30578     30580         0         1
     30582     30581     30583         0         1
     30585     30584     30586         0         1
     30588     30587     30589         0         1
     30591     30590     30592         0         1
     30594     30593     30595         0         1
     30597     30596     30598         0         1
     30600     30599     30601         0         1
     30603     30602     30604         0         1
     30606     30605     30607         0         1
     30609     30608     30610         0         1
     30612     30611     30613         0         1
     30615     30614     30616         0         1
     30618     30617     30619         0         1
     30621     30620     30622         0         1
     30624     30623     30625         0         1
     30627     30626     30628         0         1
     30630     30629     30631         0         1
     30633     30632     30634         0         1
     30636     30635     30637         0         1
     30639     30638     30640         0         1
     30642     30641     30643         0         1
     30645     30644     30646         0         1
     30648     30647     30649         0         1
     30651     30650     30652         0         1
     30654     30653     30655         0         1
     30657     30656     30658         0         1
     30660     30659     30661         0         1
     30663     30662     30664         0         1
     30666     30665     30667         0         1
     30669     30668     30670         0         1
     30672     30671     30673         0         1
     30675     30674     30676         0         1
     30678     30677     30679         0         1
     30681     30680     30682         0         1
     30684     30683     30685         0         1
     30687     30686     30688         0         1
     30690     30689     30691         0         1
     30693     30692     30694         0         1
     30696     30695     30697         0         1
     30699     30698     30700         0         1
     30702     30701     30703         0         1
     30705     30704     30706         0         1
     30708     30707     30709         0         1
     30711     30710     30712         0         1
     30714     30713     30715         0         1
     30717     30716     30718         0         1
     30720     30719     30721         0         1
     30723     30722     30724         0         1
     30726     30725     30727         0         1
     30729     30728     30730         0         1
     30732     30731     30733         0         1
     30735     30734     30736         0         1
     30738     30737     30739         0         1
     30741     30740     30742         0         1
     30744     30743     30745         0         1
     30747     30746     30748         0         1
     30750     30749     30751         0         1
     30753     30752     30754         0         1
     30756     30755     30757         0         1
     30759     30758     30760         0         1
     30762     30761     30763         0         1
     30765     30764     30766         0         1
     30768     30767     30769         0         1
     30771     30770     30772         0         1
     30774     30773     30775         0         1
     30777     30776     30778         0         1
     30780     30779     30781         0         1
     30783     30782     30784         0         1
     30786     30785     30787         0         1
     30789     30788     30790         0         1
     30792     30791     30793         0         1
     30795     30794     30796         0         1
     30798     30797     30799         0         1
     30801     30800     30802         0         1
     30804     30803     30805         0         1
     30807     30806     30808         0         1
     30810     30809     30811         0         1
     30813     30812     30814         0         1
     30816     30815     30817         0         1
     30819     30818     30820         0         1
     30822     30821     30823         0         1
     30825     30824     30826         0         1
     30828     30827     30829         0         1
     30831     30830     30832         0         1
     30834     30833     30835         0         1
     30837     30836     30838         0         1
     30840     30839     30841         0         1
     30843     30842     30844         0         1
     30846     30845     30847         0         1
     30849     30848     30850         0         1
     30852     30851     30853         0         1
     30855     30854     30856         0         1
     30858     30857     30859         0         1
     30861     30860     30862         0         1
     30864     30863     30865         0         1
     30867     30866     30868         0         1
     30870     30869     30871         0         1
     30873     30872     30874         0         1
     30876     30875     30877         0         1
     30879     30878     30880         0         1
     30882     30881     30883         0         1
     30885     30884     30886         0         1
     30888     30887     30889         0         1
     30891     30890     30892         0         1
     30894     30893     30895         0         1
     30897     30896     30898         0         1
     30900     30899     30901         0         1
     30903     30902     30904         0         1
     30906     30905     30907         0         1
     30909     30908     30910         0         1
     30912     30911     30913         0         1
     30915     30914     30916         0         1
     30918     30917     30919         0         1
     30921     30920     30922         0         1
     30924     30923     30925         0         1
     30927     30926     30928         0         1
     30930     30929     30931         0         1
     30933     30932     30934         0         1
     30936     30935     30937         0         1
     30939     30938     30940         0         1
     30942     30941     30943         0         1
     30945     30944     30946         0         1
     30948     30947     30949         0         1
     30951     30950     30952         0         1
     30954     30953     30955         0         1
     30957     30956     30958         0         1
     30960     30959     30961         0         1
     30963     30962     30964         0         1
     30966     30965     30967         0         1
     30969     30968     30970         0         1
     30972     30971     30973         0         1
     30975     30974     30976         0         1
     30978     30977     30979         0         1
     30981     30980     30982         0         1
     30984     30983     30985         0         1
     30987     30986     30988         0         1
     30990     30989     30991         0         1
     30993     30992     30994         0         1
     30996     30995     30997         0         1
     30999     30998     31000         0         1
     31002     31001     31003         0         1
     31005     31004     31006         0         1
     31008     31007     31009         0         1
     31011     31010     31012         0         1
     31014     31013     31015         0         1
     31017     31016     31018         0         1
     31020     31019     31021         0         1
     31023     31022     31024         0         1
     31026     31025     31027         0         1
     31029     31028     31030         0         1
     31032     31031     31033         0         1
     31035     31034     31036         0         1
     31038     31037     31039         0         1
     31041     31040     31042         0         1
     31044     31043     31045         0         1
     31047     31046     31048         0         1
     31050     31049     31051         0         1
     31053     31052     31054         0         1
     31056     31055     31057         0         1
     31059     31058     31060         0         1
     31062     31061     31063         0         1
     31065     31064     31066         0         1
     31068     31067     31069         0         1
     31071     31070     31072         0         1
     31074     31073     31075         0         1
     31077     31076     31078         0         1
     31080     31079     31081         0         1
     31083     31082     31084         0         1
     31086     31085     31087         0         1
     31089     31088     31090         0         1
     31092     31091     31093         0         1
     31095     31094     31096         0         1
     31098     31097     31099         0         1
     31101     31100     31102         0         1
     31104     31103     31105         0         1
     31107     31106     31108         0         1
     31110     31109     31111         0         1
     31113     31112     31114         0         1
     31116     31115     31117         0         1
     31119     31118     31120         0         1
     31122     31121     31123         0         1
     31125     31124     31126         0         1
     31128     31127     31129         0         1
     31131     31130     31132         0         1
     31134     31133     31135         0         1
     31137     31136     31138         0         1
     31140     31139     31141         0         1
     31143     31142     31144         0         1
     31146     31145     31147         0         1
     31149     31148     31150         0         1
     31152     31151     31153         0         1
     31155     31154     31156         0         1
     31158     31157     31159         0         1
     31161     31160     31162         0         1
     31164     31163     31165         0         1
     31167     31166     31168         0         1
     31170     31169     31171         0         1
     31173     31172     31174         0         1
     31176     31175     31177         0         1
     31179     31178     31180         0         1
     31182     31181     31183         0         1
     31185     31184     31186         0         1
     31188     31187     31189         0         1
     31191     31190     31192         0         1
     31194     31193     31195         0         1
     31197     31196     31198         0         1
     31200     31199     31201         0         1
     31203     31202     31204         0         1
     31206     31205     31207         0         1
     31209     31208     31210         0         1
     31212     31211     31213         0         1
     31215     31214     31216         0         1
     31218     31217     31219         0         1
     31221     31220     31222         0         1
     31224     31223     31225         0         1
     31227     31226     31228         0         1
     31230     31229     31231         0         1
     31233     31232     31234         0         1
     31236     31235     31237         0         1
     31239     31238     31240         0         1
     31242     31241     31243         0         1
     31245     31244     31246         0         1
     31248     31247     31249         0         1
     31251     31250     31252         0         1
     31254     31253     31255         0         1
     31257     31256     31258         0         1
     31260     31259     31261         0         1
     31263     31262     31264         0         1
     31266     31265     31267         0         1
     31269     31268     31270         0         1
     31272     31271     31273         0         1
     31275     31274     31276         0         1
     31278     31277     31279         0         1
     31281     31280     31282         0         1
     31284     31283     31285         0         1
     31287     31286     31288         0         1
     31290     31289     31291         0         1
     31293     31292     31294         0         1
     31296     31295     31297         0         1
     31299     31298     31300         0         1
     31302     31301     31303         0         1
     31305     31304     31306         0         1
     31308     31307     31309         0         1
     31311     31310     31312         0         1
     31314     31313     31315         0         1
     31317     31316     31318         0         1
     31320     31319     31321         0         1
     31323     31322     31324         0         1
     31326     31325     31327         0         1
     31329     31328     31330         0         1
     31332     31331     31333         0         1
     31335     31334     31336         0         1
     31338     31337     31339         0         1
     31341     31340     31342         0         1
     31344     31343     31345         0         1
     31347     31346     31348         0         1
     31350     31349     31351         0         1
     31353     31352     31354         0         1
     31356     31355     31357         0         1
     31359     31358     31360         0         1
     31362     31361     31363         0         1
     31365     31364     31366         0         1
     31368     31367     31369         0         1
     31371     31370     31372         0         1
     31374     31373     31375         0         1
     31377     31376     31378         0         1
     31380     31379     31381         0         1
     31383     31382     31384         0         1
     31386     31385     31387         0         1
     31389     31388     31390         0         1
     31392     31391     31393         0         1
     31395     31394     31396         0         1
     31398     31397     31399         0         1
     31401     31400     31402         0         1
     31404     31403     31405         0         1
     31407     31406     31408         0         1
     31410     31409     31411         0         1
     31413     31412     31414         0         1
     31416     31415     31417         0         1
     31419     31418     31420         0         1
     31422     31421     31423         0         1
     31425     31424     31426         0         1
     31428     31427     31429         0         1
     31431     31430     31432         0         1
     31434     31433     31435         0         1
     31437     31436     31438         0         1
     31440     31439     31441         0         1
     31443     31442     31444         0         1
     31446     31445     31447         0         1
     31449     31448     31450         0         1
     31452     31451     31453         0         1
     31455     31454     31456         0         1
     31458     31457     31459         0         1
     31461     31460     31462         0         1
     31464     31463     31465         0         1
     31467     31466     31468         0         1
     31470     31469     31471         0         1
     31473     31472     31474         0         1
     31476     31475     31477         0         1
     31479     31478     31480         0         1
     31482     31481     31483         0         1
     31485     31484     31486         0         1
     31488     31487     31489         0         1
     31491     31490     31492         0         1
     31494     31493     31495         0         1
     31497     31496     31498         0         1
     31500     31499     31501         0         1
     31503     31502     31504         0         1
     31506     31505     31507         0         1
     31509     31508     31510         0         1
     31512     31511     31513         0         1
     31515     31514     31516         0         1
     31518     31517     31519         0         1
     31521     31520     31522         0         1
     31524     31523     31525         0         1
     31527     31526     31528         0         1
     31530     31529     31531         0         1
     31533     31532     31534         0         1
     31536     31535     31537         0         1
     31539     31538     31540         0         1
     31542     31541     31543         0         1
     31545     31544     31546         0         1
     31548     31547     31549         0         1
     31551     31550     31552         0         1
     31554     31553     31555         0         1
     31557     31556     31558         0         1
     31560     31559     31561         0         1
     31563     31562     31564         0         1
     31566     31565     31567         0         1
     31569     31568     31570         0         1
     31572     31571     31573         0         1
     31575     31574     31576         0         1
     31578     31577     31579         0         1
     31581     31580     31582         0         1
     31584     31583     31585         0         1
     31587     31586     31588         0         1
     31590     31589     31591         0         1
     31593     31592     31594         0         1
     31596     31595     31597         0         1
     31599     31598     31600         0         1
     31602     31601     31603         0         1
     31605     31604     31606         0         1
     31608     31607     31609         0         1
     31611     31610     31612         0         1
     31614     31613     31615         0         1
     31617     31616     31618         0         1
     31620     31619     31621         0         1
     31623     31622     31624         0         1
     31626     31625     31627         0         1
     31629     31628     31630         0         1
     31632     31631     31633         0         1
     31635     31634     31636         0         1
     31638     31637     31639         0         1
     31641     31640     31642         0         1
     31644     31643     31645         0         1
     31647     31646     31648         0         1
     31650     31649     31651         0         1
     31653     31652     31654         0         1
     31656     31655     31657         0         1
     31659     31658     31660         0         1
     31662     31661     31663         0         1
     31665     31664     31666         0         1
     31668     31667     31669         0         1
     31671     31670     31672         0         1
     31674     31673     31675         0         1
     31677     31676     31678         0         1
     31680     31679     31681         0         1
     31683     31682     31684         0         1
     31686     31685     31687         0         1
     31689     31688     31690         0         1
     31692     31691     31693         0         1
     31695     31694     31696         0         1
     31698     31697     31699         0         1
     31701     31700     31702         0         1
     31704     31703     31705         0         1
     31707     31706     31708         0         1
     31710     31709     31711         0         1
     31713     31712     31714         0         1
     31716     31715     31717         0         1
     31719     31718     31720         0         1
     31722     31721     31723         0         1
     31725     31724     31726         0         1
     31728     31727     31729         0         1
     31731     31730     31732         0         1
     31734     31733     31735         0         1
     31737     31736     31738         0         1
     31740     31739     31741         0         1
     31743     31742     31744         0         1
     31746     31745     31747         0         1
     31749     31748     31750         0         1
     31752     31751     31753         0         1
     31755     31754     31756         0         1
     31758     31757     31759         0         1
     31761     31760     31762         0         1
     31764     31763     31765         0         1
     31767     31766     31768         0         1
     31770     31769     31771         0         1
     31773     31772     31774         0         1
     31776     31775     31777         0         1
     31779     31778     31780         0         1
     31782     31781     31783         0         1
     31785     31784     31786         0         1
     31788     31787     31789         0         1
     31791     31790     31792         0         1
     31794     31793     31795         0         1
     31797     31796     31798         0         1
     31800     31799     31801         0         1
     31803     31802     31804         0         1
     31806     31805     31807         0         1
     31809     31808     31810         0         1
     31812     31811     31813         0         1
     31815     31814     31816         0         1
     31818     31817     31819         0         1
     31821     31820     31822         0         1
     31824     31823     31825         0         1
     31827     31826     31828         0         1
     31830     31829     31831         0         1
     31833     31832     31834         0         1
     31836     31835     31837         0         1
     31839     31838     31840         0         1
     31842     31841     31843         0         1
     31845     31844     31846         0         1
     31848     31847     31849         0         1
     31851     31850     31852         0         1
     31854     31853     31855         0         1
     31857     31856     31858         0         1
     31860     31859     31861         0         1
     31863     31862     31864         0         1
     31866     31865     31867         0         1
     31869     31868     31870         0         1
     31872     31871     31873         0         1
     31875     31874     31876         0         1
     31878     31877     31879         0         1
     31881     31880     31882         0         1
     31884     31883     31885         0         1
     31887     31886     31888         0         1
     31890     31889     31891         0         1
     31893     31892     31894         0         1
     31896     31895     31897         0         1
     31899     31898     31900         0         1
     31902     31901     31903         0         1
     31905     31904     31906         0         1
     31908     31907     31909         0         1
     31911     31910     31912         0         1
     31914     31913     31915         0         1
     31917     31916     31918         0         1
     31920     31919     31921         0         1
     31923     31922     31924         0         1
     31926     31925     31927         0         1
     31929     31928     31930         0         1
     31932     31931     31933         0         1
     31935     31934     31936         0         1
     31938     31937     31939         0         1
     31941     31940     31942         0         1
     31944     31943     31945         0         1
     31947     31946     31948         0         1
     31950     31949     31951         0         1
     31953     31952     31954         0         1
     31956     31955     31957         0         1
     31959     31958     31960         0         1
     31962     31961     31963         0         1
     31965     31964     31966         0         1
     31968     31967     31969         0         1
     31971     31970     31972         0         1
     31974     31973     31975         0         1
     31977     31976     31978         0         1
     31980     31979     31981         0         1
     31983     31982     31984         0         1
     31986     31985     31987         0         1
     31989     31988     31990         0         1
     31992     31991     31993         0         1
     31995     31994     31996         0         1
     31998     31997     31999         0         1
     32001     32000     32002         0         1
     32004     32003     32005         0         1
     32007     32006     32008         0         1
     32010     32009     32011         0         1
     32013     32012     32014         0         1
     32016     32015     32017         0         1
     32019     32018     32020         0         1
     32022     32021     32023         0         1
     32025     32024     32026         0         1
     32028     32027     32029         0         1
     32031     32030     32032         0         1
     32034     32033     32035         0         1
     32037     32036     32038         0         1
     32040     32039     32041         0         1
     32043     32042     32044         0         1
     32046     32045     32047         0         1
     32049     32048     32050         0         1
     32052     32051     32053         0         1
     32055     32054     32056         0         1
     32058     32057     32059         0         1
     32061     32060     32062         0         1
     32064     32063     32065         0         1
     32067     32066     32068         0         1
     32070     32069     32071         0         1
     32073     32072     32074         0         1
     32076     32075     32077         0         1
     32079     32078     32080         0         1
     32082     32081     32083         0         1
     32085     32084     32086         0         1
     32088     32087     32089         0         1
     32091     32090     32092         0         1
     32094     32093     32095         0         1
     32097     32096     32098         0         1
     32100     32099     32101         0         1
     32103     32102     32104         0         1
     32106     32105     32107         0         1
     32109     32108     32110         0         1
     32112     32111     32113         0         1
     32115     32114     32116         0         1
     32118     32117     32119         0         1
     32121     32120     32122         0         1
     32124     32123     32125         0         1
     32127     32126     32128         0         1
     32130     32129     32131         0         1
     32133     32132     32134         0         1
     32136     32135     32137         0         1
     32139     32138     32140         0         1
     32142     32141     32143         0         1
     32145     32144     32146         0         1
     32148     32147     32149         0         1
     32151     32150     32152         0         1
     32154     32153     32155         0         1
     32157     32156     32158         0         1
     32160     32159     32161         0         1
     32163     32162     32164         0         1
     32166     32165     32167         0         1
     32169     32168     32170         0         1
     32172     32171     32173         0         1
     32175     32174     32176         0         1
     32178     32177     32179         0         1
     32181     32180     32182         0         1
     32184     32183     32185         0         1
     32187     32186     32188         0         1
     32190     32189     32191         0         1
     32193     32192     32194         0         1
     32196     32195     32197         0         1
     32199     32198     32200         0         1
     32202     32201     32203         0         1
     32205     32204     32206         0         1
     32208     32207     32209         0         1
     32211     32210     32212         0         1
     32214     32213     32215         0         1
     32217     32216     32218         0         1
     32220     32219     32221         0         1
     32223     32222     32224         0         1
     32226     32225     32227         0         1
     32229     32228     32230         0         1
     32232     32231     32233         0         1
     32235     32234     32236         0         1
     32238     32237     32239         0         1
     32241     32240     32242         0         1
     32244     32243     32245         0         1
     32247     32246     32248         0         1
     32250     32249     32251         0         1
     32253     32252     32254         0         1
     32256     32255     32257         0         1
     32259     32258     32260         0         1
     32262     32261     32263         0         1
     32265     32264     32266         0         1
     32268     32267     32269         0         1
     32271     32270     32272         0         1
     32274     32273     32275         0         1
     32277     32276     32278         0         1
     32280     32279     32281         0         1
     32283     32282     32284         0         1
     32286     32285     32287         0         1
     32289     32288     32290         0         1
     32292     32291     32293         0         1
     32295     32294     32296         0         1
     32298     32297     32299         0         1
     32301     32300     32302         0         1
     32304     32303     32305         0         1
     32307     32306     32308         0         1
     32310     32309     32311         0         1
     32313     32312     32314         0         1
     32316     32315     32317         0         1
     32319     32318     32320         0         1
     32322     32321     32323         0         1
     32325     32324     32326         0         1
     32328     32327     32329         0         1
     32331     32330     32332         0         1
     32334     32333     32335         0         1
     32337     32336     32338         0         1
     32340     32339     32341         0         1
     32343     32342     32344         0         1
     32346     32345     32347         0         1
     32349     32348     32350         0         1
     32352     32351     32353         0         1
     32355     32354     32356         0         1
     32358     32357     32359         0         1
     32361     32360     32362         0         1
     32364     32363     32365         0         1
     32367     32366     32368         0         1
     32370     32369     32371         0         1
     32373     32372     32374         0         1
     32376     32375     32377         0         1
     32379     32378     32380         0         1
     32382     32381     32383         0         1
     32385     32384     32386         0         1
     32388     32387     32389         0         1
     32391     32390     32392         0         1
     32394     32393     32395         0         1
     32397     32396     32398         0         1
     32400     32399     32401         0         1
     32403     32402     32404         0         1
     32406     32405     32407         0         1
     32409     32408     32410         0         1
     32412     32411     32413         0         1
     32415     32414     32416         0         1
     32418     32417     32419         0         1
     32421     32420     32422         0         1
     32424     32423     32425         0         1
     32427     32426     32428         0         1
     32430     32429     32431         0         1
     32433     32432     32434         0         1
     32436     32435     32437         0         1
     32439     32438     32440         0         1
     32442     32441     32443         0         1
     32445     32444     32446         0         1
     32448     32447     32449         0         1
     32451     32450     32452         0         1
     32454     32453     32455         0         1
     32457     32456     32458         0         1
     32460     32459     32461         0         1
     32463     32462     32464         0         1
     32466     32465     32467         0         1
     32469     32468     32470         0         1
     32472     32471     32473         0         1
     32475     32474     32476         0         1
     32478     32477     32479         0         1
     32481     32480     32482         0         1
     32484     32483     32485         0         1
     32487     32486     32488         0         1
     32490     32489     32491         0         1
     32493     32492     32494         0         1
     32496     32495     32497         0         1
     32499     32498     32500         0         1
     32502     32501     32503         0         1
     32505     32504     32506         0         1
     32508     32507     32509         0         1
     32511     32510     32512         0         1
     32514     32513     32515         0         1
     32517     32516     32518         0         1
     32520     32519     32521         0         1
     32523     32522     32524         0         1
     32526     32525     32527         0         1
     32529     32528     32530         0         1
     32532     32531     32533         0         1
     32535     32534     32536         0         1
     32538     32537     32539         0         1
     32541     32540     32542         0         1
     32544     32543     32545         0         1
     32547     32546     32548         0         1
     32550     32549     32551         0         1
     32553     32552     32554         0         1
     32556     32555     32557         0         1
     32559     32558     32560         0         1
     32562     32561     32563         0         1
     32565     32564     32566         0         1
     32568     32567     32569         0         1
     32571     32570     32572         0         1
     32574     32573     32575         0         1
     32577     32576     32578         0         1
     32580     32579     32581         0         1
     32583     32582     32584         0         1
     32586     32585     32587         0         1
     32589     32588     32590         0         1
     32592     32591     32593         0         1
     32595     32594     32596         0         1
     32598     32597     32599         0         1
     32601     32600     32602         0         1
     32604     32603     32605         0         1
     32607     32606     32608         0         1
     32610     32609     32611         0         1
     32613     32612     32614         0         1
     32616     32615     32617         0         1
     32619     32618     32620         0         1
     32622     32621     32623         0         1
     32625     32624     32626         0         1
     32628     32627     32629         0         1
     32631     32630     32632         0         1
     32634     32633     32635         0         1
     32637     32636     32638         0         1
     32640     32639     32641         0         1
     32643     32642     32644         0         1
     32646     32645     32647         0         1
     32649     32648     32650         0         1
     32652     32651     32653         0         1
     32655     32654     32656         0         1
     32658     32657     32659         0         1
     32661     32660     32662         0         1
     32664     32663     32665         0         1
     32667     32666     32668         0         1
     32670     32669     32671         0         1
     32673     32672     32674         0         1
     32676     32675     32677         0         1
     32679     32678     32680         0         1
     32682     32681     32683         0         1
     32685     32684     32686         0         1
     32688     32687     32689         0         1
     32691     32690     32692         0         1
     32694     32693     32695         0         1
     32697     32696     32698         0         1
     32700     32699     32701         0         1
     32703     32702     32704         0         1
     32706     32705     32707         0         1
     32709     32708     32710         0         1
     32712     32711     32713         0         1
     32715     32714     32716         0         1
     32718     32717     32719         0         1
     32721     32720     32722         0         1
     32724     32723     32725         0         1
     32727     32726     32728         0         1
     32730     32729     32731         0         1
     32733     32732     32734         0         1
     32736     32735     32737         0         1
     32739     32738     32740         0         1
     32742     32741     32743         0         1
     32745     32744     32746         0         1
     32748     32747     32749         0         1
     32751     32750     32752         0         1
     32754     32753     32755         0         1
     32757     32756     32758         0         1
     32760     32759     32761         0         1
     32763     32762     32764         0         1
     32766     32765     32767         0         1
     32769     32768     32770         0         1
     32772     32771     32773         0         1
     32775     32774     32776         0         1
     32778     32777     32779         0         1
     32781     32780     32782         0         1
     32784     32783     32785         0         1
     32787     32786     32788         0         1
     32790     32789     32791         0         1
     32793     32792     32794         0         1
     32796     32795     32797         0         1
     32799     32798     32800         0         1
     32802     32801     32803         0         1
     32805     32804     32806         0         1
     32808     32807     32809         0         1
     32811     32810     32812         0         1
     32814     32813     32815         0         1
     32817     32816     32818         0         1
     32820     32819     32821         0         1
     32823     32822     32824         0         1
     32826     32825     32827         0         1
     32829     32828     32830         0         1
     32832     32831     32833         0         1
     32835     32834     32836         0         1
     32838     32837     32839         0         1
     32841     32840     32842         0         1
     32844     32843     32845         0         1
     32847     32846     32848         0         1
     32850     32849     32851         0         1
     32853     32852     32854         0         1
     32856     32855     32857         0         1
     32859     32858     32860         0         1
     32862     32861     32863         0         1
     32865     32864     32866         0         1
     32868     32867     32869         0         1
     32871     32870     32872         0         1
     32874     32873     32875         0         1
     32877     32876     32878         0         1
     32880     32879     32881         0         1
     32883     32882     32884         0         1
     32886     32885     32887         0         1
     32889     32888     32890         0         1
     32892     32891     32893         0         1
     32895     32894     32896         0         1
     32898     32897     32899         0         1
     32901     32900     32902         0         1
     32904     32903     32905         0         1
     32907     32906     32908         0         1
     32910     32909     32911         0         1
     32913     32912     32914         0         1
     32916     32915     32917         0         1
     32919     32918     32920         0         1
     32922     32921     32923         0         1
     32925     32924     32926         0         1
     32928     32927     32929         0         1
     32931     32930     32932         0         1
     32934     32933     32935         0         1
     32937     32936     32938         0         1
     32940     32939     32941         0         1
     32943     32942     32944         0         1
     32946     32945     32947         0         1
     32949     32948     32950         0         1
     32952     32951     32953         0         1
     32955     32954     32956         0         1
     32958     32957     32959         0         1
     32961     32960     32962         0         1
     32964     32963     32965         0         1
     32967     32966     32968         0         1
     32970     32969     32971         0         1
     32973     32972     32974         0         1
     32976     32975     32977         0         1
     32979     32978     32980         0         1
     32982     32981     32983         0         1
     32985     32984     32986         0         1
     32988     32987     32989         0         1
     32991     32990     32992         0         1
     32994     32993     32995         0         1
     32997     32996     32998         0         1
     33000     32999     33001         0         1
     33003     33002     33004         0         1
     33006     33005     33007         0         1
     33009     33008     33010         0         1
     33012     33011     33013         0         1
     33015     33014     33016         0         1
     33018     33017     33019         0         1
     33021     33020     33022         0         1
     33024     33023     33025         0         1
     33027     33026     33028         0         1
     33030     33029     33031         0         1
     33033     33032     33034         0         1
     33036     33035     33037         0         1
     33039     33038     33040         0         1
     33042     33041     33043         0         1
     33045     33044     33046         0         1
     33048     33047     33049         0         1
     33051     33050     33052         0         1
     33054     33053     33055         0         1
     33057     33056     33058         0         1
     33060     33059     33061         0         1
     33063     33062     33064         0         1
     33066     33065     33067         0         1
     33069     33068     33070         0         1
     33072     33071     33073         0         1
     33075     33074     33076         0         1
     33078     33077     33079         0         1
     33081     33080     33082         0         1
     33084     33083     33085         0         1
     33087     33086     33088         0         1
     33090     33089     33091         0         1
     33093     33092     33094         0         1
     33096     33095     33097         0         1
     33099     33098     33100         0         1
     33102     33101     33103         0         1
     33105     33104     33106         0         1
     33108     33107     33109         0         1
     33111     33110     33112         0         1
     33114     33113     33115         0         1
     33117     33116     33118         0         1
     33120     33119     33121         0         1
     33123     33122     33124         0         1
     33126     33125     33127         0         1
     33129     33128     33130         0         1
     33132     33131     33133         0         1
     33135     33134     33136         0         1
     33138     33137     33139         0         1
     33141     33140     33142         0         1
     33144     33143     33145         0         1
     33147     33146     33148         0         1
     33150     33149     33151         0         1
     33153     33152     33154         0         1
     33156     33155     33157         0         1
     33159     33158     33160         0         1
     33162     33161     33163         0         1
     33165     33164     33166         0         1
     33168     33167     33169         0         1
     33171     33170     33172         0         1
     33174     33173     33175         0         1
     33177     33176     33178         0         1
     33180     33179     33181         0         1
     33183     33182     33184         0         1
     33186     33185     33187         0         1
     33189     33188     33190         0         1
     33192     33191     33193         0         1
     33195     33194     33196         0         1
     33198     33197     33199         0         1
     33201     33200     33202         0         1
     33204     33203     33205         0         1
     33207     33206     33208         0         1
     33210     33209     33211         0         1
     33213     33212     33214         0         1
     33216     33215     33217         0         1
     33219     33218     33220         0         1
     33222     33221     33223         0         1
     33225     33224     33226         0         1
     33228     33227     33229         0         1
     33231     33230     33232         0         1
     33234     33233     33235         0         1
     33237     33236     33238         0         1
     33240     33239     33241         0         1
     33243     33242     33244         0         1
     33246     33245     33247         0         1
     33249     33248     33250         0         1
     33252     33251     33253         0         1
     33255     33254     33256         0         1
     33258     33257     33259         0         1
     33261     33260     33262         0         1
     33264     33263     33265         0         1
     33267     33266     33268         0         1
     33270     33269     33271         0         1
     33273     33272     33274         0         1
     33276     33275     33277         0         1
     33279     33278     33280         0         1
     33282     33281     33283         0         1
     33285     33284     33286         0         1
     33288     33287     33289         0         1
     33291     33290     33292         0         1
     33294     33293     33295         0         1
     33297     33296     33298         0         1
     33300     33299     33301         0         1
     33303     33302     33304         0         1
     33306     33305     33307         0         1
     33309     33308     33310         0         1
     33312     33311     33313         0         1
     33315     33314     33316         0         1
     33318     33317     33319         0         1
     33321     33320     33322         0         1
     33324     33323     33325         0         1
     33327     33326     33328         0         1
     33330     33329     33331         0         1
     33333     33332     33334         0         1
     33336     33335     33337         0         1
     33339     33338     33340         0         1
     33342     33341     33343         0         1
     33345     33344     33346         0         1
     33348     33347     33349         0         1
     33351     33350     33352         0         1
     33354     33353     33355         0         1
     33357     33356     33358         0         1
     33360     33359     33361         0         1
     33363     33362     33364         0         1
     33366     33365     33367         0         1
     33369     33368     33370         0         1
     33372     33371     33373         0         1
     33375     33374     33376         0         1
     33378     33377     33379         0         1
     33381     33380     33382         0         1
     33384     33383     33385         0         1
     33387     33386     33388         0         1
     33390     33389     33391         0         1
     33393     33392     33394         0         1
     33396     33395     33397         0         1
     33399     33398     33400         0         1
     33402     33401     33403         0         1
     33405     33404     33406         0         1
     33408     33407     33409         0         1
     33411     33410     33412         0         1
     33414     33413     33415         0         1
     33417     33416     33418         0         1
     33420     33419     33421         0         1
     33423     33422     33424         0         1
     33426     33425     33427         0         1
     33429     33428     33430         0         1
     33432     33431     33433         0         1
     33435     33434     33436         0         1
     33438     33437     33439         0         1
     33441     33440     33442         0         1
     33444     33443     33445         0         1
     33447     33446     33448         0         1
     33450     33449     33451         0         1
     33453     33452     33454         0         1
     33456     33455     33457         0         1
     33459     33458     33460         0         1
     33462     33461     33463         0         1
     33465     33464     33466         0         1
     33468     33467     33469         0         1
     33471     33470     33472         0         1
     33474     33473     33475         0         1
     33477     33476     33478         0         1
     33480     33479     33481         0         1
     33483     33482     33484         0         1
     33486     33485     33487         0         1
     33489     33488     33490         0         1
     33492     33491     33493         0         1
     33495     33494     33496         0         1
     33498     33497     33499         0         1
     33501     33500     33502         0         1
     33504     33503     33505         0         1
     33507     33506     33508         0         1
     33510     33509     33511         0         1
     33513     33512     33514         0         1
     33516     33515     33517         0         1
     33519     33518     33520         0         1
     33522     33521     33523         0         1
     33525     33524     33526         0         1
     33528     33527     33529         0         1
     33531     33530     33532         0         1
     33534     33533     33535         0         1
     33537     33536     33538         0         1
     33540     33539     33541         0         1
     33543     33542     33544         0         1
     33546     33545     33547         0         1
     33549     33548     33550         0         1
     33552     33551     33553         0         1
     33555     33554     33556         0         1
     33558     33557     33559         0         1
     33561     33560     33562         0         1
     33564     33563     33565         0         1
     33567     33566     33568         0         1
     33570     33569     33571         0         1
     33573     33572     33574         0         1
     33576     33575     33577         0         1
     33579     33578     33580         0         1
     33582     33581     33583         0         1
     33585     33584     33586         0         1
     33588     33587     33589         0         1
     33591     33590     33592         0         1
     33594     33593     33595         0         1
     33597     33596     33598         0         1
     33600     33599     33601         0         1
     33603     33602     33604         0         1
     33606     33605     33607         0         1
     33609     33608     33610         0         1
     33612     33611     33613         0         1
     33615     33614     33616         0         1
     33618     33617     33619         0         1
     33621     33620     33622         0         1
     33624     33623     33625         0         1
     33627     33626     33628         0         1
     33630     33629     33631         0         1
     33633     33632     33634         0         1
     33636     33635     33637         0         1
     33639     33638     33640         0         1
     33642     33641     33643         0         1
     33645     33644     33646         0         1
     33648     33647     33649         0         1
     33651     33650     33652         0         1
     33654     33653     33655         0         1
     33657     33656     33658         0         1
     33660     33659     33661         0         1
     33663     33662     33664         0         1
     33666     33665     33667         0         1
     33669     33668     33670         0         1
     33672     33671     33673         0         1
     33675     33674     33676         0         1
     33678     33677     33679         0         1
     33681     33680     33682         0         1
     33684     33683     33685         0         1
     33687     33686     33688         0         1
     33690     33689     33691         0         1
     33693     33692     33694         0         1
     33696     33695     33697         0         1
     33699     33698     33700         0         1
     33702     33701     33703         0         1
     33705     33704     33706         0         1
     33708     33707     33709         0         1
     33711     33710     33712         0         1
     33714     33713     33715         0         1
     33717     33716     33718         0         1
     33720     33719     33721         0         1
     33723     33722     33724         0         1
     33726     33725     33727         0         1
     33729     33728     33730         0         1
     33732     33731     33733         0         1
     33735     33734     33736         0         1
     33738     33737     33739         0         1
     33741     33740     33742         0         1
     33744     33743     33745         0         1
     33747     33746     33748         0         1
     33750     33749     33751         0         1
     33753     33752     33754         0         1
     33756     33755     33757         0         1
     33759     33758     33760         0         1
     33762     33761     33763         0         1
     33765     33764     33766         0         1
     33768     33767     33769         0         1
     33771     33770     33772         0         1
     33774     33773     33775         0         1
     33777     33776     33778         0         1
     33780     33779     33781         0         1
     33783     33782     33784         0         1
     33786     33785     33787         0         1
     33789     33788     33790         0         1
     33792     33791     33793         0         1
     33795     33794     33796         0         1
     33798     33797     33799         0         1
     33801     33800     33802         0         1
     33804     33803     33805         0         1
     33807     33806     33808         0         1
     33810     33809     33811         0         1
     33813     33812     33814         0         1
     33816     33815     33817         0         1
     33819     33818     33820         0         1
     33822     33821     33823         0         1
     33825     33824     33826         0         1
     33828     33827     33829         0         1
     33831     33830     33832         0         1
     33834     33833     33835         0         1
     33837     33836     33838         0         1
     33840     33839     33841         0         1
     33843     33842     33844         0         1
     33846     33845     33847         0         1
     33849     33848     33850         0         1
     33852     33851     33853         0         1
     33855     33854     33856         0         1
     33858     33857     33859         0         1
     33861     33860     33862         0         1
     33864     33863     33865         0         1
     33867     33866     33868         0         1
     33870     33869     33871         0         1
     33873     33872     33874         0         1
     33876     33875     33877         0         1
     33879     33878     33880         0         1
     33882     33881     33883         0         1
     33885     33884     33886         0         1
     33888     33887     33889         0         1
     33891     33890     33892         0         1
     33894     33893     33895         0         1
     33897     33896     33898         0         1
     33900     33899     33901         0         1
     33903     33902     33904         0         1
     33906     33905     33907         0         1
     33909     33908     33910         0         1
     33912     33911     33913         0         1
     33915     33914     33916         0         1
     33918     33917     33919         0         1
     33921     33920     33922         0         1
     33924     33923     33925         0         1
     33927     33926     33928         0         1
     33930     33929     33931         0         1
     33933     33932     33934         0         1
     33936     33935     33937         0         1
     33939     33938     33940         0         1
     33942     33941     33943         0         1
     33945     33944     33946         0         1
     33948     33947     33949         0         1
     33951     33950     33952         0         1
     33954     33953     33955         0         1
     33957     33956     33958         0         1
     33960     33959     33961         0         1
     33963     33962     33964         0         1
     33966     33965     33967         0         1
     33969     33968     33970         0         1
     33972     33971     33973         0         1
     33975     33974     33976         0         1
     33978     33977     33979         0         1
     33981     33980     33982         0         1
     33984     33983     33985         0         1
     33987     33986     33988         0         1
     33990     33989     33991         0         1
     33993     33992     33994         0         1
     33996     33995     33997         0         1
     33999     33998     34000         0         1
     34002     34001     34003         0         1
     34005     34004     34006         0         1
     34008     34007     34009         0         1
     34011     34010     34012         0         1
     34014     34013     34015         0         1
     34017     34016     34018         0         1
     34020     34019     34021         0         1
     34023     34022     34024         0         1
     34026     34025     34027         0         1
     34029     34028     34030         0         1
     34032     34031     34033         0         1
     34035     34034     34036         0         1
     34038     34037     34039         0         1
     34041     34040     34042         0         1
     34044     34043     34045         0         1
     34047     34046     34048         0         1
     34050     34049     34051         0         1
     34053     34052     34054         0         1
     34056     34055     34057         0         1
     34059     34058     34060         0         1
     34062     34061     34063         0         1
     34065     34064     34066         0         1
     34068     34067     34069         0         1
     34071     34070     34072         0         1
     34074     34073     34075         0         1
     34077     34076     34078         0         1
     34080     34079     34081         0         1
     34083     34082     34084         0         1
     34086     34085     34087         0         1
     34089     34088     34090         0         1
     34092     34091     34093         0         1
     34095     34094     34096         0         1
     34098     34097     34099         0         1
     34101     34100     34102         0         1
     34104     34103     34105         0         1
     34107     34106     34108         0         1
     34110     34109     34111         0         1
     34113     34112     34114         0         1
     34116     34115     34117         0         1
     34119     34118     34120         0         1
     34122     34121     34123         0         1
     34125     34124     34126         0         1
     34128     34127     34129         0         1
     34131     34130     34132         0         1
     34134     34133     34135         0         1
     34137     34136     34138         0         1
     34140     34139     34141         0         1
     34143     34142     34144         0         1
     34146     34145     34147         0         1
     34149     34148     34150         0         1
     34152     34151     34153         0         1
     34155     34154     34156         0         1
     34158     34157     34159         0         1
     34161     34160     34162         0         1
     34164     34163     34165         0         1
     34167     34166     34168         0         1
     34170     34169     34171         0         1
     34173     34172     34174         0         1
     34176     34175     34177         0         1
     34179     34178     34180         0         1
     34182     34181     34183         0         1
     34185     34184     34186         0         1
     34188     34187     34189         0         1
     34191     34190     34192         0         1
     34194     34193     34195         0         1
     34197     34196     34198         0         1
     34200     34199     34201         0         1
     34203     34202     34204         0         1
     34206     34205     34207         0         1
     34209     34208     34210         0         1
     34212     34211     34213         0         1
     34215     34214     34216         0         1
     34218     34217     34219         0         1
     34221     34220     34222         0         1
     34224     34223     34225         0         1
     34227     34226     34228         0         1
     34230     34229     34231         0         1
     34233     34232     34234         0         1
     34236     34235     34237         0         1
     34239     34238     34240         0         1
     34242     34241     34243         0         1
     34245     34244     34246         0         1
     34248     34247     34249         0         1
     34251     34250     34252         0         1
     34254     34253     34255         0         1
     34257     34256     34258         0         1
     34260     34259     34261         0         1
     34263     34262     34264         0         1
     34266     34265     34267         0         1
     34269     34268     34270         0         1
     34272     34271     34273         0         1
     34275     34274     34276         0         1
     34278     34277     34279         0         1
     34281     34280     34282         0         1
     34284     34283     34285         0         1
     34287     34286     34288         0         1
     34290     34289     34291         0         1
     34293     34292     34294         0         1
     34296     34295     34297         0         1
     34299     34298     34300         0         1
     34302     34301     34303         0         1
     34305     34304     34306         0         1
     34308     34307     34309         0         1
     34311     34310     34312         0         1
     34314     34313     34315         0         1
     34317     34316     34318         0         1
     34320     34319     34321         0         1
     34323     34322     34324         0         1
     34326     34325     34327         0         1
     34329     34328     34330         0         1
     34332     34331     34333         0         1
     34335     34334     34336         0         1
     34338     34337     34339         0         1
     34341     34340     34342         0         1
     34344     34343     34345         0         1
     34347     34346     34348         0         1
     34350     34349     34351         0         1
     34353     34352     34354         0         1
     34356     34355     34357         0         1
     34359     34358     34360         0         1
     34362     34361     34363         0         1
     34365     34364     34366         0         1
     34368     34367     34369         0         1
     34371     34370     34372         0         1
     34374     34373     34375         0         1
     34377     34376     34378         0         1
     34380     34379     34381         0         1
     34383     34382     34384         0         1
     34386     34385     34387         0         1
     34389     34388     34390         0         1
     34392     34391     34393         0         1
     34395     34394     34396         0         1
     34398     34397     34399         0         1
     34401     34400     34402         0         1
     34404     34403     34405         0         1
     34407     34406     34408         0         1
     34410     34409     34411         0         1
     34413     34412     34414         0         1
     34416     34415     34417         0         1
     34419     34418     34420         0         1
     34422     34421     34423         0         1
     34425     34424     34426         0         1
     34428     34427     34429         0         1
     34431     34430     34432         0         1
     34434     34433     34435         0         1
     34437     34436     34438         0         1
     34440     34439     34441         0         1
     34443     34442     34444         0         1
     34446     34445     34447         0         1
     34449     34448     34450         0         1
     34452     34451     34453         0         1
     34455     34454     34456         0         1
     34458     34457     34459         0         1
     34461     34460     34462         0         1
     34464     34463     34465         0         1
     34467     34466     34468         0         1
     34470     34469     34471         0         1
     34473     34472     34474         0         1
     34476     34475     34477         0         1
     34479     34478     34480         0         1
     34482     34481     34483         0         1
     34485     34484     34486         0         1
     34488     34487     34489         0         1
     34491     34490     34492         0         1
     34494     34493     34495         0         1
     34497     34496     34498         0         1
     34500     34499     34501         0         1
     34503     34502     34504         0         1
     34506     34505     34507         0         1
     34509     34508     34510         0         1
     34512     34511     34513         0         1
     34515     34514     34516         0         1
     34518     34517     34519         0         1
     34521     34520     34522         0         1
     34524     34523     34525         0         1
     34527     34526     34528         0         1
     34530     34529     34531         0         1
     34533     34532     34534         0         1
     34536     34535     34537         0         1
     34539     34538     34540         0         1
     34542     34541     34543         0         1
     34545     34544     34546         0         1
     34548     34547     34549         0         1
     34551     34550     34552         0         1
     34554     34553     34555         0         1
     34557     34556     34558         0         1
     34560     34559     34561         0         1
     34563     34562     34564         0         1
     34566     34565     34567         0         1
     34569     34568     34570         0         1
     34572     34571     34573         0         1
     34575     34574     34576         0         1
     34578     34577     34579         0         1
     34581     34580     34582         0         1
     34584     34583     34585         0         1
     34587     34586     34588         0         1
     34590     34589     34591         0         1
     34593     34592     34594         0         1
     34596     34595     34597         0         1
     34599     34598     34600         0         1
     34602     34601     34603         0         1
     34605     34604     34606         0         1
     34608     34607     34609         0         1
     34611     34610     34612         0         1
     34614     34613     34615         0         1
     34617     34616     34618         0         1
     34620     34619     34621         0         1
     34623     34622     34624         0         1
     34626     34625     34627         0         1
     34629     34628     34630         0         1
     34632     34631     34633         0         1
     34635     34634     34636         0         1
     34638     34637     34639         0         1
     34641     34640     34642         0         1
     34644     34643     34645         0         1
     34647     34646     34648         0         1
     34650     34649     34651         0         1
     34653     34652     34654         0         1
     34656     34655     34657         0         1
     34659     34658     34660         0         1
     34662     34661     34663         0         1
     34665     34664     34666         0         1
     34668     34667     34669         0         1
     34671     34670     34672         0         1
     34674     34673     34675         0         1
     34677     34676     34678         0         1
     34680     34679     34681         0         1
     34683     34682     34684         0         1
     34686     34685     34687         0         1
     34689     34688     34690         0         1
     34692     34691     34693         0         1
     34695     34694     34696         0         1
     34698     34697     34699         0         1
     34701     34700     34702         0         1
     34704     34703     34705         0         1
     34707     34706     34708         0         1
     34710     34709     34711         0         1
     34713     34712     34714         0         1
     34716     34715     34717         0         1
     34719     34718     34720         0         1
     34722     34721     34723         0         1
     34725     34724     34726         0         1
     34728     34727     34729         0         1
     34731     34730     34732         0         1
     34734     34733     34735         0         1
     34737     34736     34738         0         1
     34740     34739     34741         0         1
     34743     34742     34744         0         1
     34746     34745     34747         0         1
     34749     34748     34750         0         1
     34752     34751     34753         0         1
     34755     34754     34756         0         1
     34758     34757     34759         0         1
     34761     34760     34762         0         1
     34764     34763     34765         0         1
     34767     34766     34768         0         1
     34770     34769     34771         0         1
     34773     34772     34774         0         1
     34776     34775     34777         0         1
     34779     34778     34780         0         1
     34782     34781     34783         0         1
     34785     34784     34786         0         1
     34788     34787     34789         0         1
     34791     34790     34792         0         1
     34794     34793     34795         0         1
     34797     34796     34798         0         1
     34800     34799     34801         0         1
     34803     34802     34804         0         1
     34806     34805     34807         0         1
     34809     34808     34810         0         1
     34812     34811     34813         0         1
     34815     34814     34816         0         1
     34818     34817     34819         0         1
     34821     34820     34822         0         1
     34824     34823     34825         0         1
     34827     34826     34828         0         1
     34830     34829     34831         0         1
     34833     34832     34834         0         1
     34836     34835     34837         0         1
     34839     34838     34840         0         1
     34842     34841     34843         0         1
     34845     34844     34846         0         1
     34848     34847     34849         0         1
     34851     34850     34852         0         1
     34854     34853     34855         0         1
     34857     34856     34858         0         1
     34860     34859     34861         0         1
     34863     34862     34864         0         1
     34866     34865     34867         0         1
     34869     34868     34870         0         1
     34872     34871     34873         0         1
     34875     34874     34876         0         1
     34878     34877     34879         0         1
     34881     34880     34882         0         1
     34884     34883     34885         0         1
     34887     34886     34888         0         1
     34890     34889     34891         0         1
     34893     34892     34894         0         1
     34896     34895     34897         0         1
     34899     34898     34900         0         1
     34902     34901     34903         0         1
     34905     34904     34906         0         1
     34908     34907     34909         0         1
     34911     34910     34912         0         1
     34914     34913     34915         0         1
     34917     34916     34918         0         1
     34920     34919     34921         0         1
     34923     34922     34924         0         1
     34926     34925     34927         0         1
     34929     34928     34930         0         1
     34932     34931     34933         0         1
     34935     34934     34936         0         1
     34938     34937     34939         0         1
     34941     34940     34942         0         1
     34944     34943     34945         0         1
     34947     34946     34948         0         1
     34950     34949     34951         0         1
     34953     34952     34954         0         1
     34956     34955     34957         0         1
     34959     34958     34960         0         1
     34962     34961     34963         0         1
     34965     34964     34966         0         1
     34968     34967     34969         0         1
     34971     34970     34972         0         1
     34974     34973     34975         0         1
     34977     34976     34978         0         1
     34980     34979     34981         0         1
     34983     34982     34984         0         1
     34986     34985     34987         0         1
     34989     34988     34990         0         1
     34992     34991     34993         0         1
     34995     34994     34996         0         1
     34998     34997     34999         0         1
     35001     35000     35002         0         1
     35004     35003     35005         0         1
     35007     35006     35008         0         1
     35010     35009     35011         0         1
     35013     35012     35014         0         1
     35016     35015     35017         0         1
     35019     35018     35020         0         1
     35022     35021     35023         0         1
     35025     35024     35026         0         1
     35028     35027     35029         0         1
     35031     35030     35032         0         1
     35034     35033     35035         0         1
     35037     35036     35038         0         1
     35040     35039     35041         0         1
     35043     35042     35044         0         1
     35046     35045     35047         0         1
     35049     35048     35050         0         1
     35052     35051     35053         0         1
     35055     35054     35056         0         1
     35058     35057     35059         0         1
     35061     35060     35062         0         1
     35064     35063     35065         0         1
     35067     35066     35068         0         1
     35070     35069     35071         0         1
     35073     35072     35074         0         1
     35076     35075     35077         0         1
     35079     35078     35080         0         1
     35082     35081     35083         0         1
     35085     35084     35086         0         1
     35088     35087     35089         0         1
     35091     35090     35092         0         1
     35094     35093     35095         0         1
     35097     35096     35098         0         1
     35100     35099     35101         0         1
     35103     35102     35104         0         1
     35106     35105     35107         0         1
     35109     35108     35110         0         1
     35112     35111     35113         0         1
     35115     35114     35116         0         1
     35118     35117     35119         0         1
     35121     35120     35122         0         1
     35124     35123     35125         0         1
     35127     35126     35128         0         1
     35130     35129     35131         0         1
     35133     35132     35134         0         1
     35136     35135     35137         0         1
     35139     35138     35140         0         1
     35142     35141     35143         0         1
     35145     35144     35146         0         1
     35148     35147     35149         0         1
     35151     35150     35152         0         1
     35154     35153     35155         0         1
     35157     35156     35158         0         1
     35160     35159     35161         0         1
     35163     35162     35164         0         1
     35166     35165     35167         0         1
     35169     35168     35170         0         1
     35172     35171     35173         0         1
     35175     35174     35176         0         1
     35178     35177     35179         0         1
     35181     35180     35182         0         1
     35184     35183     35185         0         1
     35187     35186     35188         0         1
     35190     35189     35191         0         1
     35193     35192     35194         0         1
     35196     35195     35197         0         1
     35199     35198     35200         0         1
     35202     35201     35203         0         1
     35205     35204     35206         0         1
     35208     35207     35209         0         1
     35211     35210     35212         0         1
     35214     35213     35215         0         1
     35217     35216     35218         0         1
     35220     35219     35221         0         1
     35223     35222     35224         0         1
     35226     35225     35227         0         1
     35229     35228     35230         0         1
     35232     35231     35233         0         1
     35235     35234     35236         0         1
     35238     35237     35239         0         1
     35241     35240     35242         0         1
     35244     35243     35245         0         1
     35247     35246     35248         0         1
     35250     35249     35251         0         1
     35253     35252     35254         0         1
     35256     35255     35257         0         1
     35259     35258     35260         0         1
     35262     35261     35263         0         1
     35265     35264     35266         0         1
     35268     35267     35269         0         1
     35271     35270     35272         0         1
     35274     35273     35275         0         1
     35277     35276     35278         0         1
     35280     35279     35281         0         1
     35283     35282     35284         0         1
     35286     35285     35287         0         1
     35289     35288     35290         0         1
     35292     35291     35293         0         1
     35295     35294     35296         0         1
     35298     35297     35299         0         1
     35301     35300     35302         0         1
     35304     35303     35305         0         1
     35307     35306     35308         0         1
     35310     35309     35311         0         1
     35313     35312     35314         0         1
     35316     35315     35317         0         1
     35319     35318     35320         0         1
     35322     35321     35323         0         1
     35325     35324     35326         0         1
     35328     35327     35329         0         1
     35331     35330     35332         0         1
     35334     35333     35335         0         1
     35337     35336     35338         0         1
     35340     35339     35341         0         1
     35343     35342     35344         0         1
     35346     35345     35347         0         1
     35349     35348     35350         0         1
     35352     35351     35353         0         1
     35355     35354     35356         0         1
     35358     35357     35359         0         1
     35361     35360     35362         0         1
     35364     35363     35365         0         1
     35367     35366     35368         0         1
     35370     35369     35371         0         1
     35373     35372     35374         0         1
     35376     35375     35377         0         1
     35379     35378     35380         0         1
     35382     35381     35383         0         1
     35385     35384     35386         0         1
     35388     35387     35389         0         1
     35391     35390     35392         0         1
     35394     35393     35395         0         1
     35397     35396     35398         0         1
     35400     35399     35401         0         1
     35403     35402     35404         0         1
     35406     35405     35407         0         1
     35409     35408     35410         0         1
     35412     35411     35413         0         1
     35415     35414     35416         0         1
     35418     35417     35419         0         1
     35421     35420     35422         0         1
     35424     35423     35425         0         1
     35427     35426     35428         0         1
     35430     35429     35431         0         1
     35433     35432     35434         0         1
     35436     35435     35437         0         1
     35439     35438     35440         0         1
     35442     35441     35443         0         1
     35445     35444     35446         0         1
     35448     35447     35449         0         1
     35451     35450     35452         0         1
     35454     35453     35455         0         1
     35457     35456     35458         0         1
     35460     35459     35461         0         1
     35463     35462     35464         0         1
     35466     35465     35467         0         1
     35469     35468     35470         0         1
     35472     35471     35473         0         1
     35475     35474     35476         0         1
     35478     35477     35479         0         1
     35481     35480     35482         0         1
     35484     35483     35485         0         1
     35487     35486     35488         0         1
     35490     35489     35491         0         1
     35493     35492     35494         0         1
     35496     35495     35497         0         1
     35499     35498     35500         0         1
     35502     35501     35503         0         1
     35505     35504     35506         0         1
     35508     35507     35509         0         1
     35511     35510     35512         0         1
     35514     35513     35515         0         1
     35517     35516     35518         0         1
     35520     35519     35521         0         1
     35523     35522     35524         0         1
     35526     35525     35527         0         1
     35529     35528     35530         0         1
     35532     35531     35533         0         1
     35535     35534     35536         0         1
     35538     35537     35539         0         1
     35541     35540     35542         0         1
     35544     35543     35545         0         1
     35547     35546     35548         0         1
     35550     35549     35551         0         1
     35553     35552     35554         0         1
     35556     35555     35557         0         1
     35559     35558     35560         0         1
     35562     35561     35563         0         1
     35565     35564     35566         0         1
     35568     35567     35569         0         1
     35571     35570     35572         0         1
     35574     35573     35575         0         1
     35577     35576     35578         0         1
     35580     35579     35581         0         1
     35583     35582     35584         0         1
     35586     35585     35587         0         1
     35589     35588     35590         0         1
     35592     35591     35593         0         1
     35595     35594     35596         0         1
     35598     35597     35599         0         1
     35601     35600     35602         0         1
     35604     35603     35605         0         1
     35607     35606     35608         0         1
     35610     35609     35611         0         1
     35613     35612     35614         0         1
     35616     35615     35617         0         1
     35619     35618     35620         0         1
     35622     35621     35623         0         1
     35625     35624     35626         0         1
     35628     35627     35629         0         1
     35631     35630     35632         0         1
     35634     35633     35635         0         1
     35637     35636     35638         0         1
     35640     35639     35641         0         1
     35643     35642     35644         0         1
     35646     35645     35647         0         1
     35649     35648     35650         0         1
     35652     35651     35653         0         1
     35655     35654     35656         0         1
     35658     35657     35659         0         1
     35661     35660     35662         0         1
     35664     35663     35665         0         1
     35667     35666     35668         0         1
     35670     35669     35671         0         1
     35673     35672     35674         0         1
     35676     35675     35677         0         1
     35679     35678     35680         0         1
     35682     35681     35683         0         1
     35685     35684     35686         0         1
     35688     35687     35689         0         1
     35691     35690     35692         0         1
     35694     35693     35695         0         1
     35697     35696     35698         0         1
     35700     35699     35701         0         1
     35703     35702     35704         0         1
     35706     35705     35707         0         1
     35709     35708     35710         0         1
     35712     35711     35713         0         1
     35715     35714     35716         0         1
     35718     35717     35719         0         1
     35721     35720     35722         0         1
     35724     35723     35725         0         1
     35727     35726     35728         0         1
     35730     35729     35731         0         1
     35733     35732     35734         0         1
     35736     35735     35737         0         1
     35739     35738     35740         0         1
     35742     35741     35743         0         1
     35745     35744     35746         0         1
     35748     35747     35749         0         1
     35751     35750     35752         0         1
     35754     35753     35755         0         1
     35757     35756     35758         0         1
     35760     35759     35761         0         1
     35763     35762     35764         0         1
     35766     35765     35767         0         1
     35769     35768     35770         0         1
     35772     35771     35773         0         1
     35775     35774     35776         0         1
     35778     35777     35779         0         1
     35781     35780     35782         0         1
     35784     35783     35785         0         1
     35787     35786     35788         0         1
     35790     35789     35791         0         1
     35793     35792     35794         0         1
     35796     35795     35797         0         1
     35799     35798     35800         0         1
     35802     35801     35803         0         1
     35805     35804     35806         0         1
     35808     35807     35809         0         1
     35811     35810     35812         0         1
     35814     35813     35815         0         1
     35817     35816     35818         0         1
     35820     35819     35821         0         1
     35823     35822     35824         0         1
     35826     35825     35827         0         1
     35829     35828     35830         0         1
     35832     35831     35833         0         1
     35835     35834     35836         0         1
     35838     35837     35839         0         1
     35841     35840     35842         0         1
     35844     35843     35845         0         1
     35847     35846     35848         0         1
     35850     35849     35851         0         1
     35853     35852     35854         0         1
     35856     35855     35857         0         1
     35859     35858     35860         0         1
     35862     35861     35863         0         1
     35865     35864     35866         0         1
     35868     35867     35869         0         1
     35871     35870     35872         0         1
     35874     35873     35875         0         1
     35877     35876     35878         0         1
     35880     35879     35881         0         1
     35883     35882     35884         0         1
     35886     35885     35887         0         1
     35889     35888     35890         0         1
     35892     35891     35893         0         1
     35895     35894     35896         0         1
     35898     35897     35899         0         1
     35901     35900     35902         0         1
     35904     35903     35905         0         1
     35907     35906     35908         0         1
     35910     35909     35911         0         1
     35913     35912     35914         0         1
     35916     35915     35917         0         1
     35919     35918     35920         0         1
     35922     35921     35923         0         1
     35925     35924     35926         0         1
     35928     35927     35929         0         1
     35931     35930     35932         0         1
     35934     35933     35935         0         1
     35937     35936     35938         0         1
     35940     35939     35941         0         1
     35943     35942     35944         0         1
     35946     35945     35947         0         1
     35949     35948     35950         0         1
     35952     35951     35953         0         1
     35955     35954     35956         0         1
     35958     35957     35959         0         1
     35961     35960     35962         0         1
     35964     35963     35965         0         1
     35967     35966     35968         0         1
     35970     35969     35971         0         1
     35973     35972     35974         0         1
     35976     35975     35977         0         1
     35979     35978     35980         0         1
     35982     35981     35983         0         1
     35985     35984     35986         0         1
     35988     35987     35989         0         1
     35991     35990     35992         0         1
     35994     35993     35995         0         1
     35997     35996     35998         0         1
     36000     35999     36001         0         1
     36003     36002     36004         0         1
     36006     36005     36007         0         1
     36009     36008     36010         0         1
     36012     36011     36013         0         1
     36015     36014     36016         0         1
     36018     36017     36019         0         1
     36021     36020     36022         0         1
     36024     36023     36025         0         1
     36027     36026     36028         0         1
     36030     36029     36031         0         1
     36033     36032     36034         0         1
     36036     36035     36037         0         1
     36039     36038     36040         0         1
     36042     36041     36043         0         1
     36045     36044     36046         0         1
     36048     36047     36049         0         1
     36051     36050     36052         0         1
     36054     36053     36055         0         1
     36057     36056     36058         0         1
     36060     36059     36061         0         1
     36063     36062     36064         0         1
     36066     36065     36067         0         1
     36069     36068     36070         0         1
     36072     36071     36073         0         1
     36075     36074     36076         0         1
     36078     36077     36079         0         1
     36081     36080     36082         0         1
     36084     36083     36085         0         1
     36087     36086     36088         0         1
     36090     36089     36091         0         1
     36093     36092     36094         0         1
     36096     36095     36097         0         1
     36099     36098     36100         0         1
     36102     36101     36103         0         1
     36105     36104     36106         0         1
     36108     36107     36109         0         1
     36111     36110     36112         0         1
     36114     36113     36115         0         1
     36117     36116     36118         0         1
     36120     36119     36121         0         1
     36123     36122     36124         0         1
     36126     36125     36127         0         1
     36129     36128     36130         0         1
     36132     36131     36133         0         1
     36135     36134     36136         0         1
     36138     36137     36139         0         1
     36141     36140     36142         0         1
     36144     36143     36145         0         1
     36147     36146     36148         0         1
     36150     36149     36151         0         1
     36153     36152     36154         0         1
     36156     36155     36157         0         1
     36159     36158     36160         0         1
     36162     36161     36163         0         1
     36165     36164     36166         0         1
     36168     36167     36169         0         1
     36171     36170     36172         0         1
     36174     36173     36175         0         1
     36177     36176     36178         0         1
     36180     36179     36181         0         1
     36183     36182     36184         0         1
     36186     36185     36187         0         1
     36189     36188     36190         0         1
     36192     36191     36193         0         1
     36195     36194     36196         0         1
     36198     36197     36199         0         1
     36201     36200     36202         0         1
     36204     36203     36205         0         1
     36207     36206     36208         0         1
     36210     36209     36211         0         1
     36213     36212     36214         0         1
     36216     36215     36217         0         1
     36219     36218     36220         0         1
     36222     36221     36223         0         1
     36225     36224     36226         0         1
     36228     36227     36229         0         1
     36231     36230     36232         0         1
     36234     36233     36235         0         1
     36237     36236     36238         0         1
     36240     36239     36241         0         1
     36243     36242     36244         0         1
     36246     36245     36247         0         1
     36249     36248     36250         0         1
     36252     36251     36253         0         1
     36255     36254     36256         0         1
     36258     36257     36259         0         1
     36261     36260     36262         0         1
     36264     36263     36265         0         1
     36267     36266     36268         0         1
     36270     36269     36271         0         1
     36273     36272     36274         0         1
     36276     36275     36277         0         1
     36279     36278     36280         0         1
     36282     36281     36283         0         1
     36285     36284     36286         0         1
     36288     36287     36289         0         1
     36291     36290     36292         0         1
     36294     36293     36295         0         1
     36297     36296     36298         0         1
     36300     36299     36301         0         1
     36303     36302     36304         0         1
     36306     36305     36307         0         1
     36309     36308     36310         0         1
     36312     36311     36313         0         1
     36315     36314     36316         0         1
     36318     36317     36319         0         1
     36321     36320     36322         0         1
     36324     36323     36325         0         1
     36327     36326     36328         0         1
     36330     36329     36331         0         1
     36333     36332     36334         0         1
     36336     36335     36337         0         1
     36339     36338     36340         0         1
     36342     36341     36343         0         1
     36345     36344     36346         0         1
     36348     36347     36349         0         1
     36351     36350     36352         0         1
     36354     36353     36355         0         1
     36357     36356     36358         0         1
     36360     36359     36361         0         1
     36363     36362     36364         0         1
     36366     36365     36367         0         1
     36369     36368     36370         0         1
     36372     36371     36373         0         1
     36375     36374     36376         0         1
     36378     36377     36379         0         1
     36381     36380     36382         0         1
     36384     36383     36385         0         1
     36387     36386     36388         0         1
     36390     36389     36391         0         1
     36393     36392     36394         0         1
     36396     36395     36397         0         1
     36399     36398     36400         0         1
     36402     36401     36403         0         1
     36405     36404     36406         0         1
     36408     36407     36409         0         1
     36411     36410     36412         0         1
     36414     36413     36415         0         1
     36417     36416     36418         0         1
     36420     36419     36421         0         1
     36423     36422     36424         0         1
     36426     36425     36427         0         1
     36429     36428     36430         0         1
     36432     36431     36433         0         1
     36435     36434     36436         0         1
     36438     36437     36439         0         1
     36441     36440     36442         0         1
     36444     36443     36445         0         1
     36447     36446     36448         0         1
     36450     36449     36451         0         1
     36453     36452     36454         0         1
     36456     36455     36457         0         1
     36459     36458     36460         0         1
     36462     36461     36463         0         1
     36465     36464     36466         0         1
     36468     36467     36469         0         1
     36471     36470     36472         0         1
     36474     36473     36475         0         1
     36477     36476     36478         0         1
     36480     36479     36481         0         1
     36483     36482     36484         0         1
     36486     36485     36487         0         1
     36489     36488     36490         0         1
     36492     36491     36493         0         1
     36495     36494     36496         0         1
     36498     36497     36499         0         1
     36501     36500     36502         0         1
     36504     36503     36505         0         1
     36507     36506     36508         0         1
     36510     36509     36511         0         1
     36513     36512     36514         0         1
     36516     36515     36517         0         1
     36519     36518     36520         0         1
     36522     36521     36523         0         1
     36525     36524     36526         0         1
     36528     36527     36529         0         1
     36531     36530     36532         0         1
     36534     36533     36535         0         1
     36537     36536     36538         0         1
     36540     36539     36541         0         1
     36543     36542     36544         0         1
     36546     36545     36547         0         1
     36549     36548     36550         0         1
     36552     36551     36553         0         1
     36555     36554     36556         0         1
     36558     36557     36559         0         1
     36561     36560     36562         0         1
     36564     36563     36565         0         1
     36567     36566     36568         0         1
     36570     36569     36571         0         1
     36573     36572     36574         0         1
     36576     36575     36577         0         1
     36579     36578     36580         0         1
     36582     36581     36583         0         1
     36585     36584     36586         0         1
     36588     36587     36589         0         1
     36591     36590     36592         0         1
     36594     36593     36595         0         1
     36597     36596     36598         0         1
     36600     36599     36601         0         1
     36603     36602     36604         0         1
     36606     36605     36607         0         1
     36609     36608     36610         0         1
     36612     36611     36613         0         1
     36615     36614     36616         0         1
     36618     36617     36619         0         1
     36621     36620     36622         0         1
     36624     36623     36625         0         1
     36627     36626     36628         0         1
     36630     36629     36631         0         1
     36633     36632     36634         0         1
     36636     36635     36637         0         1
     36639     36638     36640         0         1
     36642     36641     36643         0         1
     36645     36644     36646         0         1
     36648     36647     36649         0         1
     36651     36650     36652         0         1
     36654     36653     36655         0         1
     36657     36656     36658         0         1
     36660     36659     36661         0         1
     36663     36662     36664         0         1
     36666     36665     36667         0         1
     36669     36668     36670         0         1
     36672     36671     36673         0         1
     36675     36674     36676         0         1
     36678     36677     36679         0         1
     36681     36680     36682         0         1
     36684     36683     36685         0         1
     36687     36686     36688         0         1
     36690     36689     36691         0         1
     36693     36692     36694         0         1
     36696     36695     36697         0         1
     36699     36698     36700         0         1
     36702     36701     36703         0         1
     36705     36704     36706         0         1
     36708     36707     36709         0         1
     36711     36710     36712         0         1
     36714     36713     36715         0         1
     36717     36716     36718         0         1
     36720     36719     36721         0         1
     36723     36722     36724         0         1
     36726     36725     36727         0         1
     36729     36728     36730         0         1
     36732     36731     36733         0         1
     36735     36734     36736         0         1
     36738     36737     36739         0         1
     36741     36740     36742         0         1
     36744     36743     36745         0         1
     36747     36746     36748         0         1
     36750     36749     36751         0         1
     36753     36752     36754         0         1
     36756     36755     36757         0         1
     36759     36758     36760         0         1
     36762     36761     36763         0         1
     36765     36764     36766         0         1
     36768     36767     36769         0         1
     36771     36770     36772         0         1
     36774     36773     36775         0         1
     36777     36776     36778         0         1
     36780     36779     36781         0         1
     36783     36782     36784         0         1
     36786     36785     36787         0         1
     36789     36788     36790         0         1
     36792     36791     36793         0         1
     36795     36794     36796         0         1
     36798     36797     36799         0         1
     36801     36800     36802         0         1
     36804     36803     36805         0         1
     36807     36806     36808         0         1
     36810     36809     36811         0         1
     36813     36812     36814         0         1
     36816     36815     36817         0         1
     36819     36818     36820         0         1
     36822     36821     36823         0         1
     36825     36824     36826         0         1
     36828     36827     36829         0         1
     36831     36830     36832         0         1
     36834     36833     36835         0         1
     36837     36836     36838         0         1
     36840     36839     36841         0         1
     36843     36842     36844         0         1
     36846     36845     36847         0         1
     36849     36848     36850         0         1
     36852     36851     36853         0         1
     36855     36854     36856         0         1
     36858     36857     36859         0         1
     36861     36860     36862         0         1
     36864     36863     36865         0         1
     36867     36866     36868         0         1
     36870     36869     36871         0         1
     36873     36872     36874         0         1
     36876     36875     36877         0         1
     36879     36878     36880         0         1
     36882     36881     36883         0         1
     36885     36884     36886         0         1
     36888     36887     36889         0         1
     36891     36890     36892         0         1
     36894     36893     36895         0         1
     36897     36896     36898         0         1
     36900     36899     36901         0         1
     36903     36902     36904         0         1
     36906     36905     36907         0         1
     36909     36908     36910         0         1
     36912     36911     36913         0         1
     36915     36914     36916         0         1
     36918     36917     36919         0         1
     36921     36920     36922         0         1
     36924     36923     36925         0         1
     36927     36926     36928         0         1
     36930     36929     36931         0         1
     36933     36932     36934         0         1
     36936     36935     36937         0         1
     36939     36938     36940         0         1
     36942     36941     36943         0         1
     36945     36944     36946         0         1
     36948     36947     36949         0         1
     36951     36950     36952         0         1
     36954     36953     36955         0         1
     36957     36956     36958         0         1
     36960     36959     36961         0         1
     36963     36962     36964         0         1
     36966     36965     36967         0         1
     36969     36968     36970         0         1
     36972     36971     36973         0         1
     36975     36974     36976         0         1
     36978     36977     36979         0         1
     36981     36980     36982         0         1
     36984     36983     36985         0         1
     36987     36986     36988         0         1
     36990     36989     36991         0         1
     36993     36992     36994         0         1
     36996     36995     36997         0         1
     36999     36998     37000         0         1
     37002     37001     37003         0         1
     37005     37004     37006         0         1
     37008     37007     37009         0         1
     37011     37010     37012         0         1
     37014     37013     37015         0         1
     37017     37016     37018         0         1
     37020     37019     37021         0         1
     37023     37022     37024         0         1
     37026     37025     37027         0         1
     37029     37028     37030         0         1
     37032     37031     37033         0         1
     37035     37034     37036         0         1
     37038     37037     37039         0         1
     37041     37040     37042         0         1
     37044     37043     37045         0         1
     37047     37046     37048         0         1
     37050     37049     37051         0         1
     37053     37052     37054         0         1
     37056     37055     37057         0         1
     37059     37058     37060         0         1
     37062     37061     37063         0         1
     37065     37064     37066         0         1
     37068     37067     37069         0         1
     37071     37070     37072         0         1
     37074     37073     37075         0         1
     37077     37076     37078         0         1
     37080     37079     37081         0         1
     37083     37082     37084         0         1
     37086     37085     37087         0         1
     37089     37088     37090         0         1
     37092     37091     37093         0         1
     37095     37094     37096         0         1
     37098     37097     37099         0         1
     37101     37100     37102         0         1
     37104     37103     37105         0         1
     37107     37106     37108         0         1
     37110     37109     37111         0         1
     37113     37112     37114         0         1
     37116     37115     37117         0         1
     37119     37118     37120         0         1
     37122     37121     37123         0         1
     37125     37124     37126         0         1
     37128     37127     37129         0         1
     37131     37130     37132         0         1
     37134     37133     37135         0         1
     37137     37136     37138         0         1
     37140     37139     37141         0         1
     37143     37142     37144         0         1
     37146     37145     37147         0         1
     37149     37148     37150         0         1
     37152     37151     37153         0         1
     37155     37154     37156         0         1
     37158     37157     37159         0         1
     37161     37160     37162         0         1
     37164     37163     37165         0         1
     37167     37166     37168         0         1
     37170     37169     37171         0         1
     37173     37172     37174         0         1
     37176     37175     37177         0         1
     37179     37178     37180         0         1
     37182     37181     37183         0         1
     37185     37184     37186         0         1
     37188     37187     37189         0         1
     37191     37190     37192         0         1
     37194     37193     37195         0         1
     37197     37196     37198         0         1
     37200     37199     37201         0         1
     37203     37202     37204         0         1
     37206     37205     37207         0         1
     37209     37208     37210         0         1
     37212     37211     37213         0         1
     37215     37214     37216         0         1
     37218     37217     37219         0         1
     37221     37220     37222         0         1
     37224     37223     37225         0         1
     37227     37226     37228         0         1
     37230     37229     37231         0         1
     37233     37232     37234         0         1
     37236     37235     37237         0         1
     37239     37238     37240         0         1
     37242     37241     37243         0         1
     37245     37244     37246         0         1
     37248     37247     37249         0         1
     37251     37250     37252         0         1
     37254     37253     37255         0         1
     37257     37256     37258         0         1
     37260     37259     37261         0         1
     37263     37262     37264         0         1
     37266     37265     37267         0         1
     37269     37268     37270         0         1
     37272     37271     37273         0         1
     37275     37274     37276         0         1
     37278     37277     37279         0         1
     37281     37280     37282         0         1
     37284     37283     37285         0         1
     37287     37286     37288         0         1
     37290     37289     37291         0         1
     37293     37292     37294         0         1
     37296     37295     37297         0         1
     37299     37298     37300         0         1
     37302     37301     37303         0         1
     37305     37304     37306         0         1
     37308     37307     37309         0         1
     37311     37310     37312         0         1
     37314     37313     37315         0         1
     37317     37316     37318         0         1
     37320     37319     37321         0         1
     37323     37322     37324         0         1
     37326     37325     37327         0         1
     37329     37328     37330         0         1
     37332     37331     37333         0         1
     37335     37334     37336         0         1
     37338     37337     37339         0         1
     37341     37340     37342         0         1
     37344     37343     37345         0         1
     37347     37346     37348         0         1
     37350     37349     37351         0         1
     37353     37352     37354         0         1
     37356     37355     37357         0         1
     37359     37358     37360         0         1
     37362     37361     37363         0         1
     37365     37364     37366         0         1
     37368     37367     37369         0         1
     37371     37370     37372         0         1
     37374     37373     37375         0         1
     37377     37376     37378         0         1
     37380     37379     37381         0         1
     37383     37382     37384         0         1
     37386     37385     37387         0         1
     37389     37388     37390         0         1
     37392     37391     37393         0         1
     37395     37394     37396         0         1
     37398     37397     37399         0         1
     37401     37400     37402         0         1
     37404     37403     37405         0         1
     37407     37406     37408         0         1
     37410     37409     37411         0         1
     37413     37412     37414         0         1
     37416     37415     37417         0         1
     37419     37418     37420         0         1
     37422     37421     37423         0         1
     37425     37424     37426         0         1
     37428     37427     37429         0         1
     37431     37430     37432         0         1
     37434     37433     37435         0         1
     37437     37436     37438         0         1
     37440     37439     37441         0         1
     37443     37442     37444         0         1
     37446     37445     37447         0         1
     37449     37448     37450         0         1
     37452     37451     37453         0         1
     37455     37454     37456         0         1
     37458     37457     37459         0         1
     37461     37460     37462         0         1
     37464     37463     37465         0         1
     37467     37466     37468         0         1
     37470     37469     37471         0         1
     37473     37472     37474         0         1
     37476     37475     37477         0         1
     37479     37478     37480         0         1
     37482     37481     37483         0         1
     37485     37484     37486         0         1
     37488     37487     37489         0         1
     37491     37490     37492         0         1
     37494     37493     37495         0         1
     37497     37496     37498         0         1
     37500     37499     37501         0         1
     37503     37502     37504         0         1
     37506     37505     37507         0         1
     37509     37508     37510         0         1
     37512     37511     37513         0         1
     37515     37514     37516         0         1
     37518     37517     37519         0         1
     37521     37520     37522         0         1
     37524     37523     37525         0         1
     37527     37526     37528         0         1
     37530     37529     37531         0         1
     37533     37532     37534         0         1
     37536     37535     37537         0         1
     37539     37538     37540         0         1
     37542     37541     37543         0         1
     37545     37544     37546         0         1
     37548     37547     37549         0         1
     37551     37550     37552         0         1
     37554     37553     37555         0         1
     37557     37556     37558         0         1
     37560     37559     37561         0         1
     37563     37562     37564         0         1
     37566     37565     37567         0         1
     37569     37568     37570         0         1
     37572     37571     37573         0         1
     37575     37574     37576         0         1
     37578     37577     37579         0         1
     37581     37580     37582         0         1
     37584     37583     37585         0         1
     37587     37586     37588         0         1
     37590     37589     37591         0         1
     37593     37592     37594         0         1
     37596     37595     37597         0         1
     37599     37598     37600         0         1
     37602     37601     37603         0         1
     37605     37604     37606         0         1
     37608     37607     37609         0         1
     37611     37610     37612         0         1
     37614     37613     37615         0         1
     37617     37616     37618         0         1
     37620     37619     37621         0         1
     37623     37622     37624         0         1
     37626     37625     37627         0         1
     37629     37628     37630         0         1
     37632     37631     37633         0         1
     37635     37634     37636         0         1
     37638     37637     37639         0         1
     37641     37640     37642         0         1
     37644     37643     37645         0         1
     37647     37646     37648         0         1
     37650     37649     37651         0         1
     37653     37652     37654         0         1
     37656     37655     37657         0         1
     37659     37658     37660         0         1
     37662     37661     37663         0         1
     37665     37664     37666         0         1
     37668     37667     37669         0         1
     37671     37670     37672         0         1
     37674     37673     37675         0         1
     37677     37676     37678         0         1
     37680     37679     37681         0         1
     37683     37682     37684         0         1
     37686     37685     37687         0         1
     37689     37688     37690         0         1
     37692     37691     37693         0         1
     37695     37694     37696         0         1
     37698     37697     37699         0         1
     37701     37700     37702         0         1
     37704     37703     37705         0         1
     37707     37706     37708         0         1
     37710     37709     37711         0         1
     37713     37712     37714         0         1
     37716     37715     37717         0         1
     37719     37718     37720         0         1
     37722     37721     37723         0         1
     37725     37724     37726         0         1
     37728     37727     37729         0         1
     37731     37730     37732         0         1
     37734     37733     37735         0         1
     37737     37736     37738         0         1
     37740     37739     37741         0         1
     37743     37742     37744         0         1
     37746     37745     37747         0         1
     37749     37748     37750         0         1
     37752     37751     37753         0         1
     37755     37754     37756         0         1
     37758     37757     37759         0         1
     37761     37760     37762         0         1
     37764     37763     37765         0         1
     37767     37766     37768         0         1
     37770     37769     37771         0         1
     37773     37772     37774         0         1
     37776     37775     37777         0         1
     37779     37778     37780         0         1
     37782     37781     37783         0         1
     37785     37784     37786         0         1
     37788     37787     37789         0         1
     37791     37790     37792         0         1
     37794     37793     37795         0         1
     37797     37796     37798         0         1
     37800     37799     37801         0         1
     37803     37802     37804         0         1
     37806     37805     37807         0         1
     37809     37808     37810         0         1
     37812     37811     37813         0         1
     37815     37814     37816         0         1
     37818     37817     37819         0         1
     37821     37820     37822         0         1
     37824     37823     37825         0         1
     37827     37826     37828         0         1
     37830     37829     37831         0         1
     37833     37832     37834         0         1
     37836     37835     37837         0         1
     37839     37838     37840         0         1
     37842     37841     37843         0         1
     37845     37844     37846         0         1
     37848     37847     37849         0         1
     37851     37850     37852         0         1
     37854     37853     37855         0         1
     37857     37856     37858         0         1
     37860     37859     37861         0         1
     37863     37862     37864         0         1
     37866     37865     37867         0         1
     37869     37868     37870         0         1
     37872     37871     37873         0         1
     37875     37874     37876         0         1
     37878     37877     37879         0         1
     37881     37880     37882         0         1
     37884     37883     37885         0         1
     37887     37886     37888         0         1
     37890     37889     37891         0         1
     37893     37892     37894         0         1
     37896     37895     37897         0         1
     37899     37898     37900         0         1
     37902     37901     37903         0         1
     37905     37904     37906         0         1
     37908     37907     37909         0         1
     37911     37910     37912         0         1
     37914     37913     37915         0         1
     37917     37916     37918         0         1
     37920     37919     37921         0         1
     37923     37922     37924         0         1
     37926     37925     37927         0         1
     37929     37928     37930         0         1
     37932     37931     37933         0         1
     37935     37934     37936         0         1
     37938     37937     37939         0         1
     37941     37940     37942         0         1
     37944     37943     37945         0         1
     37947     37946     37948         0         1
     37950     37949     37951         0         1
     37953     37952     37954         0         1
     37956     37955     37957         0         1
     37959     37958     37960         0         1
     37962     37961     37963         0         1
     37965     37964     37966         0         1
     37968     37967     37969         0         1
     37971     37970     37972         0         1
     37974     37973     37975         0         1
     37977     37976     37978         0         1
     37980     37979     37981         0         1
     37983     37982     37984         0         1
     37986     37985     37987         0         1
     37989     37988     37990         0         1
     37992     37991     37993         0         1
     37995     37994     37996         0         1
     37998     37997     37999         0         1
     38001     38000     38002         0         1
     38004     38003     38005         0         1
     38007     38006     38008         0         1
     38010     38009     38011         0         1
     38013     38012     38014         0         1
     38016     38015     38017         0         1
     38019     38018     38020         0         1
     38022     38021     38023         0         1
     38025     38024     38026         0         1
     38028     38027     38029         0         1
     38031     38030     38032         0         1
     38034     38033     38035         0         1
     38037     38036     38038         0         1
     38040     38039     38041         0         1
     38043     38042     38044         0         1
     38046     38045     38047         0         1
     38049     38048     38050         0         1
     38052     38051     38053         0         1
     38055     38054     38056         0         1
     38058     38057     38059         0         1
     38061     38060     38062         0         1
     38064     38063     38065         0         1
     38067     38066     38068         0         1
     38070     38069     38071         0         1
     38073     38072     38074         0         1
     38076     38075     38077         0         1
     38079     38078     38080         0         1
     38082     38081     38083         0         1
     38085     38084     38086         0         1
     38088     38087     38089         0         1
     38091     38090     38092         0         1
     38094     38093     38095         0         1
     38097     38096     38098         0         1
     38100     38099     38101         0         1
     38103     38102     38104         0         1
     38106     38105     38107         0         1
     38109     38108     38110         0         1
     38112     38111     38113         0         1
     38115     38114     38116         0         1
     38118     38117     38119         0         1
     38121     38120     38122         0         1
     38124     38123     38125         0         1
     38127     38126     38128         0         1
     38130     38129     38131         0         1
     38133     38132     38134         0         1
     38136     38135     38137         0         1
     38139     38138     38140         0         1
     38142     38141     38143         0         1
     38145     38144     38146         0         1
     38148     38147     38149         0         1
     38151     38150     38152         0         1
     38154     38153     38155         0         1
     38157     38156     38158         0         1
     38160     38159     38161         0         1
     38163     38162     38164         0         1
     38166     38165     38167         0         1
     38169     38168     38170         0         1
     38172     38171     38173         0         1
     38175     38174     38176         0         1
     38178     38177     38179         0         1
     38181     38180     38182         0         1
     38184     38183     38185         0         1
     38187     38186     38188         0         1
     38190     38189     38191         0         1
     38193     38192     38194         0         1
     38196     38195     38197         0         1
     38199     38198     38200         0         1
     38202     38201     38203         0         1
     38205     38204     38206         0         1
     38208     38207     38209         0         1
     38211     38210     38212         0         1
     38214     38213     38215         0         1
     38217     38216     38218         0         1
     38220     38219     38221         0         1
     38223     38222     38224         0         1
     38226     38225     38227         0         1
     38229     38228     38230         0         1
     38232     38231     38233         0         1
     38235     38234     38236         0         1
     38238     38237     38239         0         1
     38241     38240     38242         0         1
     38244     38243     38245         0         1
     38247     38246     38248         0         1
     38250     38249     38251         0         1
     38253     38252     38254         0         1
     38256     38255     38257         0         1
     38259     38258     38260         0         1
     38262     38261     38263         0         1
     38265     38264     38266         0         1
     38268     38267     38269         0         1
     38271     38270     38272         0         1
     38274     38273     38275         0         1
     38277     38276     38278         0         1
     38280     38279     38281         0         1
     38283     38282     38284         0         1
     38286     38285     38287         0         1
     38289     38288     38290         0         1
     38292     38291     38293         0         1
     38295     38294     38296         0         1
     38298     38297     38299         0         1
     38301     38300     38302         0         1
     38304     38303     38305         0         1
     38307     38306     38308         0         1
     38310     38309     38311         0         1
     38313     38312     38314         0         1
     38316     38315     38317         0         1
     38319     38318     38320         0         1
     38322     38321     38323         0         1
     38325     38324     38326         0         1
     38328     38327     38329         0         1
     38331     38330     38332         0         1
     38334     38333     38335         0         1
     38337     38336     38338         0         1
     38340     38339     38341         0         1
     38343     38342     38344         0         1
     38346     38345     38347         0         1
     38349     38348     38350         0         1
     38352     38351     38353         0         1
     38355     38354     38356         0         1
     38358     38357     38359         0         1
     38361     38360     38362         0         1
     38364     38363     38365         0         1
     38367     38366     38368         0         1
     38370     38369     38371         0         1
     38373     38372     38374         0         1
     38376     38375     38377         0         1
     38379     38378     38380         0         1
     38382     38381     38383         0         1
     38385     38384     38386         0         1
     38388     38387     38389         0         1
     38391     38390     38392         0         1
     38394     38393     38395         0         1
     38397     38396     38398         0         1
     38400     38399     38401         0         1
     38403     38402     38404         0         1
     38406     38405     38407         0         1
     38409     38408     38410         0         1
     38412     38411     38413         0         1
     38415     38414     38416         0         1
     38418     38417     38419         0         1
     38421     38420     38422         0         1
     38424     38423     38425         0         1
     38427     38426     38428         0         1
     38430     38429     38431         0         1
     38433     38432     38434         0         1
     38436     38435     38437         0         1
     38439     38438     38440         0         1
     38442     38441     38443         0         1
     38445     38444     38446         0         1
     38448     38447     38449         0         1
     38451     38450     38452         0         1
     38454     38453     38455         0         1
     38457     38456     38458         0         1
     38460     38459     38461         0         1
     38463     38462     38464         0         1
     38466     38465     38467         0         1
     38469     38468     38470         0         1
     38472     38471     38473         0         1
     38475     38474     38476         0         1
     38478     38477     38479         0         1
     38481     38480     38482         0         1
     38484     38483     38485         0         1
     38487     38486     38488         0         1
     38490     38489     38491         0         1
     38493     38492     38494         0         1
     38496     38495     38497         0         1
     38499     38498     38500         0         1
     38502     38501     38503         0         1
     38505     38504     38506         0         1
     38508     38507     38509         0         1
     38511     38510     38512         0         1
     38514     38513     38515         0         1
     38517     38516     38518         0         1
     38520     38519     38521         0         1
     38523     38522     38524         0         1
     38526     38525     38527         0         1
     38529     38528     38530         0         1
     38532     38531     38533         0         1
     38535     38534     38536         0         1
     38538     38537     38539         0         1
     38541     38540     38542         0         1
     38544     38543     38545         0         1
     38547     38546     38548         0         1
     38550     38549     38551         0         1
     38553     38552     38554         0         1
     38556     38555     38557         0         1
     38559     38558     38560         0         1
     38562     38561     38563         0         1
     38565     38564     38566         0         1
     38568     38567     38569         0         1
     38571     38570     38572         0         1
     38574     38573     38575         0         1
     38577     38576     38578         0         1
     38580     38579     38581         0         1
     38583     38582     38584         0         1
     38586     38585     38587         0         1
     38589     38588     38590         0         1
     38592     38591     38593         0         1
     38595     38594     38596         0         1
     38598     38597     38599         0         1
     38601     38600     38602         0         1
     38604     38603     38605         0         1
     38607     38606     38608         0         1
     38610     38609     38611         0         1
     38613     38612     38614         0         1
     38616     38615     38617         0         1
     38619     38618     38620         0         1
     38622     38621     38623         0         1
     38625     38624     38626         0         1
     38628     38627     38629         0         1
     38631     38630     38632         0         1
     38634     38633     38635         0         1
     38637     38636     38638         0         1
     38640     38639     38641         0         1
     38643     38642     38644         0         1
     38646     38645     38647         0         1
     38649     38648     38650         0         1
     38652     38651     38653         0         1
     38655     38654     38656         0         1
     38658     38657     38659         0         1
     38661     38660     38662         0         1
     38664     38663     38665         0         1
     38667     38666     38668         0         1
     38670     38669     38671         0         1
     38673     38672     38674         0         1
     38676     38675     38677         0         1
     38679     38678     38680         0         1
     38682     38681     38683         0         1
     38685     38684     38686         0         1
     38688     38687     38689         0         1
     38691     38690     38692         0         1
     38694     38693     38695         0         1
     38697     38696     38698         0         1
     38700     38699     38701         0         1
     38703     38702     38704         0         1
     38706     38705     38707         0         1
     38709     38708     38710         0         1
     38712     38711     38713         0         1
     38715     38714     38716         0         1
     38718     38717     38719         0         1
     38721     38720     38722         0         1
     38724     38723     38725         0         1
     38727     38726     38728         0         1
     38730     38729     38731         0         1
     38733     38732     38734         0         1
     38736     38735     38737         0         1
     38739     38738     38740         0         1
     38742     38741     38743         0         1
     38745     38744     38746         0         1
     38748     38747     38749         0         1
     38751     38750     38752         0         1
     38754     38753     38755         0         1
     38757     38756     38758         0         1
     38760     38759     38761         0         1
     38763     38762     38764         0         1
     38766     38765     38767         0         1
     38769     38768     38770         0         1
     38772     38771     38773         0         1
     38775     38774     38776         0         1
     38778     38777     38779         0         1
     38781     38780     38782         0         1
     38784     38783     38785         0         1
     38787     38786     38788         0         1
     38790     38789     38791         0         1
     38793     38792     38794         0         1
     38796     38795     38797         0         1
     38799     38798     38800         0         1
     38802     38801     38803         0         1
     38805     38804     38806         0         1
     38808     38807     38809         0         1
     38811     38810     38812         0         1
     38814     38813     38815         0         1
     38817     38816     38818         0         1
     38820     38819     38821         0         1
     38823     38822     38824         0         1
     38826     38825     38827         0         1
     38829     38828     38830         0         1
     38832     38831     38833         0         1
     38835     38834     38836         0         1
     38838     38837     38839         0         1
     38841     38840     38842         0         1
     38844     38843     38845         0         1
     38847     38846     38848         0         1
     38850     38849     38851         0         1
     38853     38852     38854         0         1
     38856     38855     38857         0         1
     38859     38858     38860         0         1
     38862     38861     38863         0         1
     38865     38864     38866         0         1
     38868     38867     38869         0         1
     38871     38870     38872         0         1
     38874     38873     38875         0         1
     38877     38876     38878         0         1
     38880     38879     38881         0         1
     38883     38882     38884         0         1
     38886     38885     38887         0         1
     38889     38888     38890         0         1
     38892     38891     38893         0         1
     38895     38894     38896         0         1
     38898     38897     38899         0         1
     38901     38900     38902         0         1
     38904     38903     38905         0         1
     38907     38906     38908         0         1
     38910     38909     38911         0         1
     38913     38912     38914         0         1
     38916     38915     38917         0         1
     38919     38918     38920         0         1
     38922     38921     38923         0         1
     38925     38924     38926         0         1
     38928     38927     38929         0         1
     38931     38930     38932         0         1
     38934     38933     38935         0         1
     38937     38936     38938         0         1
     38940     38939     38941         0         1
     38943     38942     38944         0         1
     38946     38945     38947         0         1
     38949     38948     38950         0         1
     38952     38951     38953         0         1
     38955     38954     38956         0         1
     38958     38957     38959         0         1
     38961     38960     38962         0         1
     38964     38963     38965         0         1
     38967     38966     38968         0         1
     38970     38969     38971         0         1
     38973     38972     38974         0         1
     38976     38975     38977         0         1
     38979     38978     38980         0         1
     38982     38981     38983         0         1
     38985     38984     38986         0         1
     38988     38987     38989         0         1
     38991     38990     38992         0         1
     38994     38993     38995         0         1
     38997     38996     38998         0         1
     39000     38999     39001         0         1
     39003     39002     39004         0         1
     39006     39005     39007         0         1
     39009     39008     39010         0         1
     39012     39011     39013         0         1
     39015     39014     39016         0         1
     39018     39017     39019         0         1
     39021     39020     39022         0         1
     39024     39023     39025         0         1
     39027     39026     39028         0         1
     39030     39029     39031         0         1
     39033     39032     39034         0         1
     39036     39035     39037         0         1
     39039     39038     39040         0         1
     39042     39041     39043         0         1
     39045     39044     39046         0         1
     39048     39047     39049         0         1
     39051     39050     39052         0         1
     39054     39053     39055         0         1
     39057     39056     39058         0         1
     39060     39059     39061         0         1
     39063     39062     39064         0         1
     39066     39065     39067         0         1
     39069     39068     39070         0         1
     39072     39071     39073         0         1
     39075     39074     39076         0         1
     39078     39077     39079         0         1
     39081     39080     39082         0         1
     39084     39083     39085         0         1
     39087     39086     39088         0         1
     39090     39089     39091         0         1
     39093     39092     39094         0         1
     39096     39095     39097         0         1
     39099     39098     39100         0         1
     39102     39101     39103         0         1
     39105     39104     39106         0         1
     39108     39107     39109         0         1
     39111     39110     39112         0         1
     39114     39113     39115         0         1
     39117     39116     39118         0         1
     39120     39119     39121         0         1
     39123     39122     39124         0         1
     39126     39125     39127         0         1
     39129     39128     39130         0         1
     39132     39131     39133         0         1
     39135     39134     39136         0         1
     39138     39137     39139         0         1
     39141     39140     39142         0         1
     39144     39143     39145         0         1
     39147     39146     39148         0         1
     39150     39149     39151         0         1
     39153     39152     39154         0         1
     39156     39155     39157         0         1
     39159     39158     39160         0         1
     39162     39161     39163         0         1
     39165     39164     39166         0         1
     39168     39167     39169         0         1
     39171     39170     39172         0         1
     39174     39173     39175         0         1
     39177     39176     39178         0         1
     39180     39179     39181         0         1
     39183     39182     39184         0         1
     39186     39185     39187         0         1
     39189     39188     39190         0         1
     39192     39191     39193         0         1
     39195     39194     39196         0         1
     39198     39197     39199         0         1
     39201     39200     39202         0         1
     39204     39203     39205         0         1
     39207     39206     39208         0         1
     39210     39209     39211         0         1
     39213     39212     39214         0         1
     39216     39215     39217         0         1
     39219     39218     39220         0         1
     39222     39221     39223         0         1
     39225     39224     39226         0         1
     39228     39227     39229         0         1
     39231     39230     39232         0         1
     39234     39233     39235         0         1
     39237     39236     39238         0         1
     39240     39239     39241         0         1
     39243     39242     39244         0         1
     39246     39245     39247         0         1
     39249     39248     39250         0         1
     39252     39251     39253         0         1
     39255     39254     39256         0         1
     39258     39257     39259         0         1
     39261     39260     39262         0         1
     39264     39263     39265         0         1
     39267     39266     39268         0         1
     39270     39269     39271         0         1
     39273     39272     39274         0         1
     39276     39275     39277         0         1
     39279     39278     39280         0         1
     39282     39281     39283         0         1
     39285     39284     39286         0         1
     39288     39287     39289         0         1
     39291     39290     39292         0         1
     39294     39293     39295         0         1
     39297     39296     39298         0         1
     39300     39299     39301         0         1
     39303     39302     39304         0         1
     39306     39305     39307         0         1
     39309     39308     39310         0         1
     39312     39311     39313         0         1
     39315     39314     39316         0         1
     39318     39317     39319         0         1
     39321     39320     39322         0         1
     39324     39323     39325         0         1
     39327     39326     39328         0         1
     39330     39329     39331         0         1
     39333     39332     39334         0         1
     39336     39335     39337         0         1
     39339     39338     39340         0         1
     39342     39341     39343         0         1
     39345     39344     39346         0         1
     39348     39347     39349         0         1
     39351     39350     39352         0         1
     39354     39353     39355         0         1
     39357     39356     39358         0         1
     39360     39359     39361         0         1
     39363     39362     39364         0         1
     39366     39365     39367         0         1
     39369     39368     39370         0         1
     39372     39371     39373         0         1
     39375     39374     39376         0         1
     39378     39377     39379         0         1
     39381     39380     39382         0         1
     39384     39383     39385         0         1
     39387     39386     39388         0         1
     39390     39389     39391         0         1
     39393     39392     39394         0         1
     39396     39395     39397         0         1
     39399     39398     39400         0         1
     39402     39401     39403         0         1
     39405     39404     39406         0         1
     39408     39407     39409         0         1
     39411     39410     39412         0         1
     39414     39413     39415         0         1
     39417     39416     39418         0         1
     39420     39419     39421         0         1
     39423     39422     39424         0         1
     39426     39425     39427         0         1
     39429     39428     39430         0         1
     39432     39431     39433         0         1
     39435     39434     39436         0         1
     39438     39437     39439         0         1
     39441     39440     39442         0         1
     39444     39443     39445         0         1
     39447     39446     39448         0         1
     39450     39449     39451         0         1
     39453     39452     39454         0         1
     39456     39455     39457         0         1
     39459     39458     39460         0         1
     39462     39461     39463         0         1
     39465     39464     39466         0         1
     39468     39467     39469         0         1
     39471     39470     39472         0         1
     39474     39473     39475         0         1
     39477     39476     39478         0         1
     39480     39479     39481         0         1
     39483     39482     39484         0         1
     39486     39485     39487         0         1
     39489     39488     39490         0         1
     39492     39491     39493         0         1
     39495     39494     39496         0         1
     39498     39497     39499         0         1
     39501     39500     39502         0         1
     39504     39503     39505         0         1
     39507     39506     39508         0         1
     39510     39509     39511         0         1
     39513     39512     39514         0         1
     39516     39515     39517         0         1
     39519     39518     39520         0         1
     39522     39521     39523         0         1
     39525     39524     39526         0         1
     39528     39527     39529         0         1
     39531     39530     39532         0         1
     39534     39533     39535         0         1
     39537     39536     39538         0         1
     39540     39539     39541         0         1
     39543     39542     39544         0         1
     39546     39545     39547         0         1
     39549     39548     39550         0         1
     39552     39551     39553         0         1
     39555     39554     39556         0         1
     39558     39557     39559         0         1
     39561     39560     39562         0         1
     39564     39563     39565         0         1
     39567     39566     39568         0         1
     39570     39569     39571         0         1
     39573     39572     39574         0         1
     39576     39575     39577         0         1
     39579     39578     39580         0         1
     39582     39581     39583         0         1
     39585     39584     39586         0         1
     39588     39587     39589         0         1
     39591     39590     39592         0         1
     39594     39593     39595         0         1
     39597     39596     39598         0         1
     39600     39599     39601         0         1
     39603     39602     39604         0         1
     39606     39605     39607         0         1
     39609     39608     39610         0         1
     39612     39611     39613         0         1
     39615     39614     39616         0         1
     39618     39617     39619         0         1
     39621     39620     39622         0         1
     39624     39623     39625         0         1
     39627     39626     39628         0         1
     39630     39629     39631         0         1
     39633     39632     39634         0         1
     39636     39635     39637         0         1
     39639     39638     39640         0         1
     39642     39641     39643         0         1
     39645     39644     39646         0         1
     39648     39647     39649         0         1
     39651     39650     39652         0         1
     39654     39653     39655         0         1
     39657     39656     39658         0         1
     39660     39659     39661         0         1
     39663     39662     39664         0         1
     39666     39665     39667         0         1
     39669     39668     39670         0         1
     39672     39671     39673         0         1
     39675     39674     39676         0         1
     39678     39677     39679         0         1
     39681     39680     39682         0         1
     39684     39683     39685         0         1
     39687     39686     39688         0         1
     39690     39689     39691         0         1
     39693     39692     39694         0         1
     39696     39695     39697         0         1
     39699     39698     39700         0         1
     39702     39701     39703         0         1
     39705     39704     39706         0         1
     39708     39707     39709         0         1
     39711     39710     39712         0         1
     39714     39713     39715         0         1
     39717     39716     39718         0         1
     39720     39719     39721         0         1
     39723     39722     39724         0         1
     39726     39725     39727         0         1
     39729     39728     39730         0         1
     39732     39731     39733         0         1
     39735     39734     39736         0         1
     39738     39737     39739         0         1
     39741     39740     39742         0         1
     39744     39743     39745         0         1
     39747     39746     39748         0         1
     39750     39749     39751         0         1
     39753     39752     39754         0         1
     39756     39755     39757         0         1
     39759     39758     39760         0         1
     39762     39761     39763         0         1
     39765     39764     39766         0         1
     39768     39767     39769         0         1
     39771     39770     39772         0         1
     39774     39773     39775         0         1
     39777     39776     39778         0         1
     39780     39779     39781         0         1
     39783     39782     39784         0         1
     39786     39785     39787         0         1
     39789     39788     39790         0         1
     39792     39791     39793         0         1
     39795     39794     39796         0         1
     39798     39797     39799         0         1
     39801     39800     39802         0         1
     39804     39803     39805         0         1
     39807     39806     39808         0         1
     39810     39809     39811         0         1
     39813     39812     39814         0         1
     39816     39815     39817         0         1
     39819     39818     39820         0         1
     39822     39821     39823         0         1
     39825     39824     39826         0         1
     39828     39827     39829         0         1
     39831     39830     39832         0         1
     39834     39833     39835         0         1
     39837     39836     39838         0         1
     39840     39839     39841         0         1
     39843     39842     39844         0         1
     39846     39845     39847         0         1
     39849     39848     39850         0         1
     39852     39851     39853         0         1
     39855     39854     39856         0         1
     39858     39857     39859         0         1
     39861     39860     39862         0         1
     39864     39863     39865         0         1
     39867     39866     39868         0         1
     39870     39869     39871         0         1
     39873     39872     39874         0         1
     39876     39875     39877         0         1
     39879     39878     39880         0         1
     39882     39881     39883         0         1
     39885     39884     39886         0         1
     39888     39887     39889         0         1
     39891     39890     39892         0         1
     39894     39893     39895         0         1
     39897     39896     39898         0         1
     39900     39899     39901         0         1
     39903     39902     39904         0         1
     39906     39905     39907         0         1
     39909     39908     39910         0         1
     39912     39911     39913         0         1
     39915     39914     39916         0         1
     39918     39917     39919         0         1
     39921     39920     39922         0         1
     39924     39923     39925         0         1
     39927     39926     39928         0         1
     39930     39929     39931         0         1
     39933     39932     39934         0         1
     39936     39935     39937         0         1
     39939     39938     39940         0         1
     39942     39941     39943         0         1
     39945     39944     39946         0         1
     39948     39947     39949         0         1
     39951     39950     39952         0         1
     39954     39953     39955         0         1
     39957     39956     39958         0         1
     39960     39959     39961         0         1
     39963     39962     39964         0         1
     39966     39965     39967         0         1
     39969     39968     39970         0         1
     39972     39971     39973         0         1
     39975     39974     39976         0         1
     39978     39977     39979         0         1
     39981     39980     39982         0         1
     39984     39983     39985         0         1
     39987     39986     39988         0         1
     39990     39989     39991         0         1
     39993     39992     39994         0         1
     39996     39995     39997         0         1
     39999     39998     40000         0         1
     40002     40001     40003         0         1
     40005     40004     40006         0         1
     40008     40007     40009         0         1
     40011     40010     40012         0         1
     40014     40013     40015         0         1
     40017     40016     40018         0         1
     40020     40019     40021         0         1
     40023     40022     40024         0         1
     40026     40025     40027         0         1
     40029     40028     40030         0         1
     40032     40031     40033         0         1
     40035     40034     40036         0         1
     40038     40037     40039         0         1
     40041     40040     40042         0         1
     40044     40043     40045         0         1
     40047     40046     40048         0         1
     40050     40049     40051         0         1
     40053     40052     40054         0         1
     40056     40055     40057         0         1
     40059     40058     40060         0         1
     40062     40061     40063         0         1
     40065     40064     40066         0         1
     40068     40067     40069         0         1
     40071     40070     40072         0         1
     40074     40073     40075         0         1
     40077     40076     40078         0         1
     40080     40079     40081         0         1
     40083     40082     40084         0         1
     40086     40085     40087         0         1
     40089     40088     40090         0         1
     40092     40091     40093         0         1
     40095     40094     40096         0         1
     40098     40097     40099         0         1
     40101     40100     40102         0         1
     40104     40103     40105         0         1
     40107     40106     40108         0         1
     40110     40109     40111         0         1
     40113     40112     40114         0         1
     40116     40115     40117         0         1
     40119     40118     40120         0         1
     40122     40121     40123         0         1
     40125     40124     40126         0         1
     40128     40127     40129         0         1
     40131     40130     40132         0         1
     40134     40133     40135         0         1
     40137     40136     40138         0         1
     40140     40139     40141         0         1
     40143     40142     40144         0         1
     40146     40145     40147         0         1
     40149     40148     40150         0         1
     40152     40151     40153         0         1
     40155     40154     40156         0         1
     40158     40157     40159         0         1
     40161     40160     40162         0         1
     40164     40163     40165         0         1
     40167     40166     40168         0         1
     40170     40169     40171         0         1
     40173     40172     40174         0         1
     40176     40175     40177         0         1
     40179     40178     40180         0         1
     40182     40181     40183         0         1
     40185     40184     40186         0         1
     40188     40187     40189         0         1
     40191     40190     40192         0         1
     40194     40193     40195         0         1
     40197     40196     40198         0         1
     40200     40199     40201         0         1
     40203     40202     40204         0         1
     40206     40205     40207         0         1
     40209     40208     40210         0         1
     40212     40211     40213         0         1
     40215     40214     40216         0         1
     40218     40217     40219         0         1
     40221     40220     40222         0         1
     40224     40223     40225         0         1
     40227     40226     40228         0         1
     40230     40229     40231         0         1
     40233     40232     40234         0         1
     40236     40235     40237         0         1
     40239     40238     40240         0         1
     40242     40241     40243         0         1
     40245     40244     40246         0         1
     40248     40247     40249         0         1
     40251     40250     40252         0         1
     40254     40253     40255         0         1
     40257     40256     40258         0         1
     40260     40259     40261         0         1
     40263     40262     40264         0         1
     40266     40265     40267         0         1
     40269     40268     40270         0         1
     40272     40271     40273         0         1
     40275     40274     40276         0         1
     40278     40277     40279         0         1
     40281     40280     40282         0         1
     40284     40283     40285         0         1
     40287     40286     40288         0         1
     40290     40289     40291         0         1
     40293     40292     40294         0         1
     40296     40295     40297         0         1
     40299     40298     40300         0         1
     40302     40301     40303         0         1
     40305     40304     40306         0         1
     40308     40307     40309         0         1
     40311     40310     40312         0         1
     40314     40313     40315         0         1
     40317     40316     40318         0         1
     40320     40319     40321         0         1
     40323     40322     40324         0         1
     40326     40325     40327         0         1
     40329     40328     40330         0         1
     40332     40331     40333         0         1
     40335     40334     40336         0         1
     40338     40337     40339         0         1
     40341     40340     40342         0         1
     40344     40343     40345         0         1
     40347     40346     40348         0         1
     40350     40349     40351         0         1
     40353     40352     40354         0         1
     40356     40355     40357         0         1
     40359     40358     40360         0         1
     40362     40361     40363         0         1
     40365     40364     40366         0         1
     40368     40367     40369         0         1
     40371     40370     40372         0         1
     40374     40373     40375         0         1
     40377     40376     40378         0         1
     40380     40379     40381         0         1
     40383     40382     40384         0         1
     40386     40385     40387         0         1
     40389     40388     40390         0         1
     40392     40391     40393         0         1
     40395     40394     40396         0         1
     40398     40397     40399         0         1
     40401     40400     40402         0         1
     40404     40403     40405         0         1
     40407     40406     40408         0         1
     40410     40409     40411         0         1
     40413     40412     40414         0         1
     40416     40415     40417         0         1
     40419     40418     40420         0         1
     40422     40421     40423         0         1
     40425     40424     40426         0         1
     40428     40427     40429         0         1
     40431     40430     40432         0         1
     40434     40433     40435         0         1
     40437     40436     40438         0         1
     40440     40439     40441         0         1
     40443     40442     40444         0         1
     40446     40445     40447         0         1
     40449     40448     40450         0         1
     40452     40451     40453         0         1
     40455     40454     40456         0         1
     40458     40457     40459         0         1
     40461     40460     40462         0         1
     40464     40463     40465         0         1
     40467     40466     40468         0         1
     40470     40469     40471         0         1
     40473     40472     40474         0         1
     40476     40475     40477         0         1
     40479     40478     40480         0         1
     40482     40481     40483         0         1
     40485     40484     40486         0         1
     40488     40487     40489         0         1
     40491     40490     40492         0         1
     40494     40493     40495         0         1
     40497     40496     40498         0         1
     40500     40499     40501         0         1
     40503     40502     40504         0         1
     40506     40505     40507         0         1
     40509     40508     40510         0         1
     40512     40511     40513         0         1
     40515     40514     40516         0         1
     40518     40517     40519         0         1
     40521     40520     40522         0         1
     40524     40523     40525         0         1
     40527     40526     40528         0         1
     40530     40529     40531         0         1
     40533     40532     40534         0         1
     40536     40535     40537         0         1
     40539     40538     40540         0         1
     40542     40541     40543         0         1
     40545     40544     40546         0         1
     40548     40547     40549         0         1
     40551     40550     40552         0         1
     40554     40553     40555         0         1
     40557     40556     40558         0         1
     40560     40559     40561         0         1
     40563     40562     40564         0         1
     40566     40565     40567         0         1
     40569     40568     40570         0         1
     40572     40571     40573         0         1
     40575     40574     40576         0         1
     40578     40577     40579         0         1
     40581     40580     40582         0         1
     40584     40583     40585         0         1
     40587     40586     40588         0         1
     40590     40589     40591         0         1
     40593     40592     40594         0         1
     40596     40595     40597         0         1
     40599     40598     40600         0         1
     40602     40601     40603         0         1
     40605     40604     40606         0         1
     40608     40607     40609         0         1
     40611     40610     40612         0         1
     40614     40613     40615         0         1
     40617     40616     40618         0         1
     40620     40619     40621         0         1
     40623     40622     40624         0         1
     40626     40625     40627         0         1
     40629     40628     40630         0         1
     40632     40631     40633         0         1
     40635     40634     40636         0         1
     40638     40637     40639         0         1
     40641     40640     40642         0         1
     40644     40643     40645         0         1
     40647     40646     40648         0         1
     40650     40649     40651         0         1
     40653     40652     40654         0         1
     40656     40655     40657         0         1
     40659     40658     40660         0         1
     40662     40661     40663         0         1
     40665     40664     40666         0         1
     40668     40667     40669         0         1
     40671     40670     40672         0         1
     40674     40673     40675         0         1
     40677     40676     40678         0         1
     40680     40679     40681         0         1
     40683     40682     40684         0         1
     40686     40685     40687         0         1
     40689     40688     40690         0         1
     40692     40691     40693         0         1
     40695     40694     40696         0         1
     40698     40697     40699         0         1
     40701     40700     40702         0         1
     40704     40703     40705         0         1
     40707     40706     40708         0         1
     40710     40709     40711         0         1
     40713     40712     40714         0         1
     40716     40715     40717         0         1
     40719     40718     40720         0         1
     40722     40721     40723         0         1
     40725     40724     40726         0         1
     40728     40727     40729         0         1
     40731     40730     40732         0         1
     40734     40733     40735         0         1
     40737     40736     40738         0         1
     40740     40739     40741         0         1
     40743     40742     40744         0         1
     40746     40745     40747         0         1
     40749     40748     40750         0         1
     40752     40751     40753         0         1
     40755     40754     40756         0         1
     40758     40757     40759         0         1
     40761     40760     40762         0         1
     40764     40763     40765         0         1
     40767     40766     40768         0         1
     40770     40769     40771         0         1
     40773     40772     40774         0         1
     40776     40775     40777         0         1
     40779     40778     40780         0         1
     40782     40781     40783         0         1
     40785     40784     40786         0         1
     40788     40787     40789         0         1
     40791     40790     40792         0         1
     40794     40793     40795         0         1
     40797     40796     40798         0         1
     40800     40799     40801         0         1
     40803     40802     40804         0         1
     40806     40805     40807         0         1
     40809     40808     40810         0         1
     40812     40811     40813         0         1
     40815     40814     40816         0         1
     40818     40817     40819         0         1
     40821     40820     40822         0         1
     40824     40823     40825         0         1
     40827     40826     40828         0         1
     40830     40829     40831         0         1
     40833     40832     40834         0         1
     40836     40835     40837         0         1
     40839     40838     40840         0         1
     40842     40841     40843         0         1
     40845     40844     40846         0         1
     40848     40847     40849         0         1
     40851     40850     40852         0         1
     40854     40853     40855         0         1
     40857     40856     40858         0         1
     40860     40859     40861         0         1
     40863     40862     40864         0         1
     40866     40865     40867         0         1
     40869     40868     40870         0         1
     40872     40871     40873         0         1
     40875     40874     40876         0         1
     40878     40877     40879         0         1
     40881     40880     40882         0         1
     40884     40883     40885         0         1
     40887     40886     40888         0         1
     40890     40889     40891         0         1
     40893     40892     40894         0         1
     40896     40895     40897         0         1
     40899     40898     40900         0         1
     40902     40901     40903         0         1
     40905     40904     40906         0         1
     40908     40907     40909         0         1
     40911     40910     40912         0         1
     40914     40913     40915         0         1
     40917     40916     40918         0         1
     40920     40919     40921         0         1
     40923     40922     40924         0         1
     40926     40925     40927         0         1
     40929     40928     40930         0         1
     40932     40931     40933         0         1
     40935     40934     40936         0         1
     40938     40937     40939         0         1
     40941     40940     40942         0         1
     40944     40943     40945         0         1
     40947     40946     40948         0         1
     40950     40949     40951         0         1
     40953     40952     40954         0         1
     40956     40955     40957         0         1
     40959     40958     40960         0         1
     40962     40961     40963         0         1
     40965     40964     40966         0         1
     40968     40967     40969         0         1
     40971     40970     40972         0         1
     40974     40973     40975         0         1
     40977     40976     40978         0         1
     40980     40979     40981         0         1
     40983     40982     40984         0         1
     40986     40985     40987         0         1
     40989     40988     40990         0         1
     40992     40991     40993         0         1
     40995     40994     40996         0         1
     40998     40997     40999         0         1
     41001     41000     41002         0         1
     41004     41003     41005         0         1
     41007     41006     41008         0         1
     41010     41009     41011         0         1
     41013     41012     41014         0         1
     41016     41015     41017         0         1
     41019     41018     41020         0         1
     41022     41021     41023         0         1
     41025     41024     41026         0         1
     41028     41027     41029         0         1
     41031     41030     41032         0         1
     41034     41033     41035         0         1
     41037     41036     41038         0         1
     41040     41039     41041         0         1
     41043     41042     41044         0         1
     41046     41045     41047         0         1
     41049     41048     41050         0         1
     41052     41051     41053         0         1
     41055     41054     41056         0         1
     41058     41057     41059         0         1
     41061     41060     41062         0         1
     41064     41063     41065         0         1
     41067     41066     41068         0         1
     41070     41069     41071         0         1
     41073     41072     41074         0         1
     41076     41075     41077         0         1
     41079     41078     41080         0         1
     41082     41081     41083         0         1
     41085     41084     41086         0         1
     41088     41087     41089         0         1
     41091     41090     41092         0         1
     41094     41093     41095         0         1
     41097     41096     41098         0         1
     41100     41099     41101         0         1
     41103     41102     41104         0         1
     41106     41105     41107         0         1
     41109     41108     41110         0         1
     41112     41111     41113         0         1
     41115     41114     41116         0         1
     41118     41117     41119         0         1
     41121     41120     41122         0         1
     41124     41123     41125         0         1
     41127     41126     41128         0         1
     41130     41129     41131         0         1
     41133     41132     41134         0         1
     41136     41135     41137         0         1
     41139     41138     41140         0         1
     41142     41141     41143         0         1
     41145     41144     41146         0         1
     41148     41147     41149         0         1
     41151     41150     41152         0         1
     41154     41153     41155         0         1
     41157     41156     41158         0         1
     41160     41159     41161         0         1
     41163     41162     41164         0         1
     41166     41165     41167         0         1
     41169     41168     41170         0         1
     41172     41171     41173         0         1
     41175     41174     41176         0         1
     41178     41177     41179         0         1
     41181     41180     41182         0         1
     41184     41183     41185         0         1
     41187     41186     41188         0         1
     41190     41189     41191         0         1
     41193     41192     41194         0         1
     41196     41195     41197         0         1
     41199     41198     41200         0         1
     41202     41201     41203         0         1
     41205     41204     41206         0         1
     41208     41207     41209         0         1
     41211     41210     41212         0         1
     41214     41213     41215         0         1
     41217     41216     41218         0         1
     41220     41219     41221         0         1
     41223     41222     41224         0         1
     41226     41225     41227         0         1
     41229     41228     41230         0         1
     41232     41231     41233         0         1
     41235     41234     41236         0         1
     41238     41237     41239         0         1
     41241     41240     41242         0         1
     41244     41243     41245         0         1
     41247     41246     41248         0         1
     41250     41249     41251         0         1
     41253     41252     41254         0         1
     41256     41255     41257         0         1
     41259     41258     41260         0         1
     41262     41261     41263         0         1
     41265     41264     41266         0         1
     41268     41267     41269         0         1
     41271     41270     41272         0         1
     41274     41273     41275         0         1
     41277     41276     41278         0         1
     41280     41279     41281         0         1
     41283     41282     41284         0         1
     41286     41285     41287         0         1
     41289     41288     41290         0         1
     41292     41291     41293         0         1
     41295     41294     41296         0         1
     41298     41297     41299         0         1
     41301     41300     41302         0         1
     41304     41303     41305         0         1
     41307     41306     41308         0         1
     41310     41309     41311         0         1
     41313     41312     41314         0         1
     41316     41315     41317         0         1
     41319     41318     41320         0         1
     41322     41321     41323         0         1
     41325     41324     41326         0         1
     41328     41327     41329         0         1
     41331     41330     41332         0         1
     41334     41333     41335         0         1
     41337     41336     41338         0         1
     41340     41339     41341         0         1
     41343     41342     41344         0         1
     41346     41345     41347         0         1
     41349     41348     41350         0         1
     41352     41351     41353         0         1
     41355     41354     41356         0         1
     41358     41357     41359         0         1
     41361     41360     41362         0         1
     41364     41363     41365         0         1
     41367     41366     41368         0         1
     41370     41369     41371         0         1
     41373     41372     41374         0         1
     41376     41375     41377         0         1
     41379     41378     41380         0         1
     41382     41381     41383         0         1
     41385     41384     41386         0         1
     41388     41387     41389         0         1
     41391     41390     41392         0         1
     41394     41393     41395         0         1
     41397     41396     41398         0         1
     41400     41399     41401         0         1
     41403     41402     41404         0         1
     41406     41405     41407         0         1
     41409     41408     41410         0         1
     41412     41411     41413         0         1
     41415     41414     41416         0         1
     41418     41417     41419         0         1
     41421     41420     41422         0         1
     41424     41423     41425         0         1
     41427     41426     41428         0         1
     41430     41429     41431         0         1
     41433     41432     41434         0         1
     41436     41435     41437         0         1
     41439     41438     41440         0         1
     41442     41441     41443         0         1
     41445     41444     41446         0         1
     41448     41447     41449         0         1
     41451     41450     41452         0         1
     41454     41453     41455         0         1
     41457     41456     41458         0         1
     41460     41459     41461         0         1
     41463     41462     41464         0         1
     41466     41465     41467         0         1
     41469     41468     41470         0         1
     41472     41471     41473         0         1
     41475     41474     41476         0         1
     41478     41477     41479         0         1
     41481     41480     41482         0         1
     41484     41483     41485         0         1
     41487     41486     41488         0         1
     41490     41489     41491         0         1
     41493     41492     41494         0         1
     41496     41495     41497         0         1
     41499     41498     41500         0         1
     41502     41501     41503         0         1
     41505     41504     41506         0         1
     41508     41507     41509         0         1
     41511     41510     41512         0         1
     41514     41513     41515         0         1
     41517     41516     41518         0         1
     41520     41519     41521         0         1
     41523     41522     41524         0         1
     41526     41525     41527         0         1
     41529     41528     41530         0         1
     41532     41531     41533         0         1
     41535     41534     41536         0         1
     41538     41537     41539         0         1
     41541     41540     41542         0         1
     41544     41543     41545         0         1
     41547     41546     41548         0         1
     41550     41549     41551         0         1
     41553     41552     41554         0         1
     41556     41555     41557         0         1
     41559     41558     41560         0         1
     41562     41561     41563         0         1
     41565     41564     41566         0         1
     41568     41567     41569         0         1
     41571     41570     41572         0         1
     41574     41573     41575         0         1
     41577     41576     41578         0         1
     41580     41579     41581         0         1
     41583     41582     41584         0         1
     41586     41585     41587         0         1
     41589     41588     41590         0         1
     41592     41591     41593         0         1
     41595     41594     41596         0         1
     41598     41597     41599         0         1
     41601     41600     41602         0         1
     41604     41603     41605         0         1
     41607     41606     41608         0         1
     41610     41609     41611         0         1
     41613     41612     41614         0         1
     41616     41615     41617         0         1
     41619     41618     41620         0         1
     41622     41621     41623         0         1
     41625     41624     41626         0         1
     41628     41627     41629         0         1
     41631     41630     41632         0         1
     41634     41633     41635         0         1
     41637     41636     41638         0         1
     41640     41639     41641         0         1
     41643     41642     41644         0         1
     41646     41645     41647         0         1
     41649     41648     41650         0         1
     41652     41651     41653         0         1
     41655     41654     41656         0         1
     41658     41657     41659         0         1
     41661     41660     41662         0         1
     41664     41663     41665         0         1
     41667     41666     41668         0         1
     41670     41669     41671         0         1
     41673     41672     41674         0         1
     41676     41675     41677         0         1
     41679     41678     41680         0         1
     41682     41681     41683         0         1
     41685     41684     41686         0         1
     41688     41687     41689         0         1
     41691     41690     41692         0         1
     41694     41693     41695         0         1
     41697     41696     41698         0         1
     41700     41699     41701         0         1
     41703     41702     41704         0         1
     41706     41705     41707         0         1
     41709     41708     41710         0         1
     41712     41711     41713         0         1
     41715     41714     41716         0         1
     41718     41717     41719         0         1
     41721     41720     41722         0         1
     41724     41723     41725         0         1
     41727     41726     41728         0         1
     41730     41729     41731         0         1
     41733     41732     41734         0         1
     41736     41735     41737         0         1
     41739     41738     41740         0         1
     41742     41741     41743         0         1
     41745     41744     41746         0         1
     41748     41747     41749         0         1
     41751     41750     41752         0         1
     41754     41753     41755         0         1
     41757     41756     41758         0         1
     41760     41759     41761         0         1
     41763     41762     41764         0         1
     41766     41765     41767         0         1
     41769     41768     41770         0         1
     41772     41771     41773         0         1
     41775     41774     41776         0         1
     41778     41777     41779         0         1
     41781     41780     41782         0         1
     41784     41783     41785         0         1
     41787     41786     41788         0         1
     41790     41789     41791         0         1
     41793     41792     41794         0         1
     41796     41795     41797         0         1
     41799     41798     41800         0         1
     41802     41801     41803         0         1
     41805     41804     41806         0         1
     41808     41807     41809         0         1
     41811     41810     41812         0         1
     41814     41813     41815         0         1
     41817     41816     41818         0         1
     41820     41819     41821         0         1
     41823     41822     41824         0         1
     41826     41825     41827         0         1
     41829     41828     41830         0         1
     41832     41831     41833         0         1
     41835     41834     41836         0         1
     41838     41837     41839         0         1
     41841     41840     41842         0         1
     41844     41843     41845         0         1
     41847     41846     41848         0         1
     41850     41849     41851         0         1
     41853     41852     41854         0         1
     41856     41855     41857         0         1
     41859     41858     41860         0         1
     41862     41861     41863         0         1
     41865     41864     41866         0         1
     41868     41867     41869         0         1
     41871     41870     41872         0         1
     41874     41873     41875         0         1
     41877     41876     41878         0         1
     41880     41879     41881         0         1
     41883     41882     41884         0         1
     41886     41885     41887         0         1
     41889     41888     41890         0         1
     41892     41891     41893         0         1
     41895     41894     41896         0         1
     41898     41897     41899         0         1
     41901     41900     41902         0         1
     41904     41903     41905         0         1
     41907     41906     41908         0         1
     41910     41909     41911         0         1
     41913     41912     41914         0         1
     41916     41915     41917         0         1
     41919     41918     41920         0         1
     41922     41921     41923         0         1
     41925     41924     41926         0         1
     41928     41927     41929         0         1
     41931     41930     41932         0         1
     41934     41933     41935         0         1
     41937     41936     41938         0         1
     41940     41939     41941         0         1
     41943     41942     41944         0         1
     41946     41945     41947         0         1
     41949     41948     41950         0         1
     41952     41951     41953         0         1
     41955     41954     41956         0         1
     41958     41957     41959         0         1
     41961     41960     41962         0         1
     41964     41963     41965         0         1
     41967     41966     41968         0         1
     41970     41969     41971         0         1
     41973     41972     41974         0         1
     41976     41975     41977         0         1
     41979     41978     41980         0         1
     41982     41981     41983         0         1
     41985     41984     41986         0         1
     41988     41987     41989         0         1
     41991     41990     41992         0         1
     41994     41993     41995         0         1
     41997     41996     41998         0         1
     42000     41999     42001         0         1
     42003     42002     42004         0         1
     42006     42005     42007         0         1
     42009     42008     42010         0         1
     42012     42011     42013         0         1
     42015     42014     42016         0         1
     42018     42017     42019         0         1
     42021     42020     42022         0         1
     42024     42023     42025         0         1
     42027     42026     42028         0         1
     42030     42029     42031         0         1
     42033     42032     42034         0         1
     42036     42035     42037         0         1
     42039     42038     42040         0         1
     42042     42041     42043         0         1
     42045     42044     42046         0         1
     42048     42047     42049         0         1
     42051     42050     42052         0         1
     42054     42053     42055         0         1
     42057     42056     42058         0         1
     42060     42059     42061         0         1
     42063     42062     42064         0         1
     42066     42065     42067         0         1
     42069     42068     42070         0         1
     42072     42071     42073         0         1
     42075     42074     42076         0         1
     42078     42077     42079         0         1
     42081     42080     42082         0         1
     42084     42083     42085         0         1
     42087     42086     42088         0         1
     42090     42089     42091         0         1
     42093     42092     42094         0         1
     42096     42095     42097         0         1
     42099     42098     42100         0         1
     42102     42101     42103         0         1
     42105     42104     42106         0         1
     42108     42107     42109         0         1
     42111     42110     42112         0         1
     42114     42113     42115         0         1
     42117     42116     42118         0         1
     42120     42119     42121         0         1
     42123     42122     42124         0         1
     42126     42125     42127         0         1
     42129     42128     42130         0         1
     42132     42131     42133         0         1
     42135     42134     42136         0         1
     42138     42137     42139         0         1
     42141     42140     42142         0         1
     42144     42143     42145         0         1
     42147     42146     42148         0         1
     42150     42149     42151         0         1
     42153     42152     42154         0         1
     42156     42155     42157         0         1
     42159     42158     42160         0         1
     42162     42161     42163         0         1
     42165     42164     42166         0         1
     42168     42167     42169         0         1
     42171     42170     42172         0         1
     42174     42173     42175         0         1
     42177     42176     42178         0         1
     42180     42179     42181         0         1
     42183     42182     42184         0         1
     42186     42185     42187         0         1
     42189     42188     42190         0         1
     42192     42191     42193         0         1
     42195     42194     42196         0         1
     42198     42197     42199         0         1
     42201     42200     42202         0         1
     42204     42203     42205         0         1
     42207     42206     42208         0         1
     42210     42209     42211         0         1
     42213     42212     42214         0         1
     42216     42215     42217         0         1
     42219     42218     42220         0         1
     42222     42221     42223         0         1
     42225     42224     42226         0         1
     42228     42227     42229         0         1
     42231     42230     42232         0         1
     42234     42233     42235         0         1
     42237     42236     42238         0         1
     42240     42239     42241         0         1
     42243     42242     42244         0         1
     42246     42245     42247         0         1
     42249     42248     42250         0         1
     42252     42251     42253         0         1
     42255     42254     42256         0         1
     42258     42257     42259         0         1
     42261     42260     42262         0         1
     42264     42263     42265         0         1
     42267     42266     42268         0         1
     42270     42269     42271         0         1
     42273     42272     42274         0         1
     42276     42275     42277         0         1
     42279     42278     42280         0         1
     42282     42281     42283         0         1
     42285     42284     42286         0         1
     42288     42287     42289         0         1
     42291     42290     42292         0         1
     42294     42293     42295         0         1
     42297     42296     42298         0         1
     42300     42299     42301         0         1
     42303     42302     42304         0         1
     42306     42305     42307         0         1
     42309     42308     42310         0         1
     42312     42311     42313         0         1
     42315     42314     42316         0         1
     42318     42317     42319         0         1
     42321     42320     42322         0         1
     42324     42323     42325         0         1
     42327     42326     42328         0         1
     42330     42329     42331         0         1
     42333     42332     42334         0         1
     42336     42335     42337         0         1
     42339     42338     42340         0         1
     42342     42341     42343         0         1
     42345     42344     42346         0         1
     42348     42347     42349         0         1
     42351     42350     42352         0         1
     42354     42353     42355         0         1
     42357     42356     42358         0         1
     42360     42359     42361         0         1
     42363     42362     42364         0         1
     42366     42365     42367         0         1
     42369     42368     42370         0         1
     42372     42371     42373         0         1
     42375     42374     42376         0         1
     42378     42377     42379         0         1
     42381     42380     42382         0         1
     42384     42383     42385         0         1
     42387     42386     42388         0         1
     42390     42389     42391         0         1
     42393     42392     42394         0         1
     42396     42395     42397         0         1
     42399     42398     42400         0         1
     42402     42401     42403         0         1
     42405     42404     42406         0         1
     42408     42407     42409         0         1
     42411     42410     42412         0         1
     42414     42413     42415         0         1
     42417     42416     42418         0         1
     42420     42419     42421         0         1
     42423     42422     42424         0         1
     42426     42425     42427         0         1
     42429     42428     42430         0         1
     42432     42431     42433         0         1
     42435     42434     42436         0         1
     42438     42437     42439         0         1
     42441     42440     42442         0         1
     42444     42443     42445         0         1
     42447     42446     42448         0         1
     42450     42449     42451         0         1
     42453     42452     42454         0         1
     42456     42455     42457         0         1
     42459     42458     42460         0         1
     42462     42461     42463         0         1
     42465     42464     42466         0         1
     42468     42467     42469         0         1
     42471     42470     42472         0         1
     42474     42473     42475         0         1
     42477     42476     42478         0         1
     42480     42479     42481         0         1
     42483     42482     42484         0         1
     42486     42485     42487         0         1
     42489     42488     42490         0         1
     42492     42491     42493         0         1
     42495     42494     42496         0         1
     42498     42497     42499         0         1
     42501     42500     42502         0         1
     42504     42503     42505         0         1
     42507     42506     42508         0         1
     42510     42509     42511         0         1
     42513     42512     42514         0         1
     42516     42515     42517         0         1
     42519     42518     42520         0         1
     42522     42521     42523         0         1
     42525     42524     42526         0         1
     42528     42527     42529         0         1
     42531     42530     42532         0         1
     42534     42533     42535         0         1
     42537     42536     42538         0         1
     42540     42539     42541         0         1
     42543     42542     42544         0         1
     42546     42545     42547         0         1
     42549     42548     42550         0         1
     42552     42551     42553         0         1
     42555     42554     42556         0         1
     42558     42557     42559         0         1
     42561     42560     42562         0         1
     42564     42563     42565         0         1
     42567     42566     42568         0         1
     42570     42569     42571         0         1
     42573     42572     42574         0         1
     42576     42575     42577         0         1
     42579     42578     42580         0         1
     42582     42581     42583         0         1
     42585     42584     42586         0         1
     42588     42587     42589         0         1
     42591     42590     42592         0         1
     42594     42593     42595         0         1
     42597     42596     42598         0         1
     42600     42599     42601         0         1
     42603     42602     42604         0         1
     42606     42605     42607         0         1
     42609     42608     42610         0         1
     42612     42611     42613         0         1
     42615     42614     42616         0         1
     42618     42617     42619         0         1
     42621     42620     42622         0         1
     42624     42623     42625         0         1
     42627     42626     42628         0         1
     42630     42629     42631         0         1
     42633     42632     42634         0         1
     42636     42635     42637         0         1
     42639     42638     42640         0         1
     42642     42641     42643         0         1
     42645     42644     42646         0         1
     42648     42647     42649         0         1
     42651     42650     42652         0         1
     42654     42653     42655         0         1
     42657     42656     42658         0         1
     42660     42659     42661         0         1
     42663     42662     42664         0         1
     42666     42665     42667         0         1
     42669     42668     42670         0         1
     42672     42671     42673         0         1
     42675     42674     42676         0         1
     42678     42677     42679         0         1
     42681     42680     42682         0         1
     42684     42683     42685         0         1
     42687     42686     42688         0         1
     42690     42689     42691         0         1
     42693     42692     42694         0         1
     42696     42695     42697         0         1
     42699     42698     42700         0         1
     42702     42701     42703         0         1
     42705     42704     42706         0         1
     42708     42707     42709         0         1
     42711     42710     42712         0         1
     42714     42713     42715         0         1
     42717     42716     42718         0         1
     42720     42719     42721         0         1
     42723     42722     42724         0         1
     42726     42725     42727         0         1
     42729     42728     42730         0         1
     42732     42731     42733         0         1
     42735     42734     42736         0         1
     42738     42737     42739         0         1
     42741     42740     42742         0         1
     42744     42743     42745         0         1
     42747     42746     42748         0         1
     42750     42749     42751         0         1
     42753     42752     42754         0         1
     42756     42755     42757         0         1
     42759     42758     42760         0         1
     42762     42761     42763         0         1
     42765     42764     42766         0         1
     42768     42767     42769         0         1
     42771     42770     42772         0         1
     42774     42773     42775         0         1
     42777     42776     42778         0         1
     42780     42779     42781         0         1
     42783     42782     42784         0         1
     42786     42785     42787         0         1
     42789     42788     42790         0         1
     42792     42791     42793         0         1
     42795     42794     42796         0         1
     42798     42797     42799         0         1
     42801     42800     42802         0         1
     42804     42803     42805         0         1
     42807     42806     42808         0         1
     42810     42809     42811         0         1
     42813     42812     42814         0         1
     42816     42815     42817         0         1
     42819     42818     42820         0         1
     42822     42821     42823         0         1
     42825     42824     42826         0         1
     42828     42827     42829         0         1
     42831     42830     42832         0         1
     42834     42833     42835         0         1
     42837     42836     42838         0         1
     42840     42839     42841         0         1
     42843     42842     42844         0         1
     42846     42845     42847         0         1
     42849     42848     42850         0         1
     42852     42851     42853         0         1
     42855     42854     42856         0         1
     42858     42857     42859         0         1
     42861     42860     42862         0         1
     42864     42863     42865         0         1
     42867     42866     42868         0         1
     42870     42869     42871         0         1
     42873     42872     42874         0         1
     42876     42875     42877         0         1
     42879     42878     42880         0         1
     42882     42881     42883         0         1
     42885     42884     42886         0         1
     42888     42887     42889         0         1
     42891     42890     42892         0         1
     42894     42893     42895         0         1
     42897     42896     42898         0         1
     42900     42899     42901         0         1
     42903     42902     42904         0         1
     42906     42905     42907         0         1
     42909     42908     42910         0         1
     42912     42911     42913         0         1
     42915     42914     42916         0         1
     42918     42917     42919         0         1
     42921     42920     42922         0         1
     42924     42923     42925         0         1
     42927     42926     42928         0         1
     42930     42929     42931         0         1
     42933     42932     42934         0         1
     42936     42935     42937         0         1
     42939     42938     42940         0         1
     42942     42941     42943         0         1
     42945     42944     42946         0         1
     42948     42947     42949         0         1
     42951     42950     42952         0         1
     42954     42953     42955         0         1
     42957     42956     42958         0         1
     42960     42959     42961         0         1
     42963     42962     42964         0         1
     42966     42965     42967         0         1
     42969     42968     42970         0         1
     42972     42971     42973         0         1
     42975     42974     42976         0         1
     42978     42977     42979         0         1
     42981     42980     42982         0         1
     42984     42983     42985         0         1
     42987     42986     42988         0         1
     42990     42989     42991         0         1
     42993     42992     42994         0         1
     42996     42995     42997         0         1
     42999     42998     43000         0         1
     43002     43001     43003         0         1
     43005     43004     43006         0         1
     43008     43007     43009         0         1
     43011     43010     43012         0         1
     43014     43013     43015         0         1
     43017     43016     43018         0         1
     43020     43019     43021         0         1
     43023     43022     43024         0         1
     43026     43025     43027         0         1
     43029     43028     43030         0         1
     43032     43031     43033         0         1
     43035     43034     43036         0         1
     43038     43037     43039         0         1
     43041     43040     43042         0         1
     43044     43043     43045         0         1
     43047     43046     43048         0         1
     43050     43049     43051         0         1
     43053     43052     43054         0         1
     43056     43055     43057         0         1
     43059     43058     43060         0         1
     43062     43061     43063         0         1
     43065     43064     43066         0         1
     43068     43067     43069         0         1
     43071     43070     43072         0         1
     43074     43073     43075         0         1
     43077     43076     43078         0         1
     43080     43079     43081         0         1
     43083     43082     43084         0         1
     43086     43085     43087         0         1
     43089     43088     43090         0         1
     43092     43091     43093         0         1
     43095     43094     43096         0         1
     43098     43097     43099         0         1
     43101     43100     43102         0         1
     43104     43103     43105         0         1
     43107     43106     43108         0         1
     43110     43109     43111         0         1
     43113     43112     43114         0         1
     43116     43115     43117         0         1
     43119     43118     43120         0         1
     43122     43121     43123         0         1
     43125     43124     43126         0         1
     43128     43127     43129         0         1
     43131     43130     43132         0         1
     43134     43133     43135         0         1
     43137     43136     43138         0         1
     43140     43139     43141         0         1
     43143     43142     43144         0         1
     43146     43145     43147         0         1
     43149     43148     43150         0         1
     43152     43151     43153         0         1
     43155     43154     43156         0         1
     43158     43157     43159         0         1
     43161     43160     43162         0         1
     43164     43163     43165         0         1
     43167     43166     43168         0         1
     43170     43169     43171         0         1
     43173     43172     43174         0         1
     43176     43175     43177         0         1
     43179     43178     43180         0         1
     43182     43181     43183         0         1
     43185     43184     43186         0         1
     43188     43187     43189         0         1
     43191     43190     43192         0         1
     43194     43193     43195         0         1
     43197     43196     43198         0         1
     43200     43199     43201         0         1
     43203     43202     43204         0         1
     43206     43205     43207         0         1
     43209     43208     43210         0         1
     43212     43211     43213         0         1
     43215     43214     43216         0         1
     43218     43217     43219         0         1
     43221     43220     43222         0         1
     43224     43223     43225         0         1
     43227     43226     43228         0         1
     43230     43229     43231         0         1
     43233     43232     43234         0         1
     43236     43235     43237         0         1
     43239     43238     43240         0         1
     43242     43241     43243         0         1
     43245     43244     43246         0         1
     43248     43247     43249         0         1
     43251     43250     43252         0         1
     43254     43253     43255         0         1
     43257     43256     43258         0         1
     43260     43259     43261         0         1
     43263     43262     43264         0         1
     43266     43265     43267         0         1
     43269     43268     43270         0         1
     43272     43271     43273         0         1
     43275     43274     43276         0         1
     43278     43277     43279         0         1
     43281     43280     43282         0         1
     43284     43283     43285         0         1
     43287     43286     43288         0         1
     43290     43289     43291         0         1
     43293     43292     43294         0         1
     43296     43295     43297         0         1
     43299     43298     43300         0         1
     43302     43301     43303         0         1
     43305     43304     43306         0         1
     43308     43307     43309         0         1
     43311     43310     43312         0         1
     43314     43313     43315         0         1
     43317     43316     43318         0         1
     43320     43319     43321         0         1
     43323     43322     43324         0         1
     43326     43325     43327         0         1
     43329     43328     43330         0         1
     43332     43331     43333         0         1
     43335     43334     43336         0         1
     43338     43337     43339         0         1
     43341     43340     43342         0         1
     43344     43343     43345         0         1
     43347     43346     43348         0         1
     43350     43349     43351         0         1
     43353     43352     43354         0         1
     43356     43355     43357         0         1
     43359     43358     43360         0         1
     43362     43361     43363         0         1
     43365     43364     43366         0         1
     43368     43367     43369         0         1
     43371     43370     43372         0         1
     43374     43373     43375         0         1
     43377     43376     43378         0         1
     43380     43379     43381         0         1
     43383     43382     43384         0         1
     43386     43385     43387         0         1
     43389     43388     43390         0         1
     43392     43391     43393         0         1
     43395     43394     43396         0         1
     43398     43397     43399         0         1
     43401     43400     43402         0         1
     43404     43403     43405         0         1
     43407     43406     43408         0         1
     43410     43409     43411         0         1
     43413     43412     43414         0         1
     43416     43415     43417         0         1
     43419     43418     43420         0         1
     43422     43421     43423         0         1
     43425     43424     43426         0         1
     43428     43427     43429         0         1
     43431     43430     43432         0         1
     43434     43433     43435         0         1
     43437     43436     43438         0         1
     43440     43439     43441         0         1
     43443     43442     43444         0         1
     43446     43445     43447         0         1
     43449     43448     43450         0         1
     43452     43451     43453         0         1
     43455     43454     43456         0         1
     43458     43457     43459         0         1
     43461     43460     43462         0         1
     43464     43463     43465         0         1
     43467     43466     43468         0         1
     43470     43469     43471         0         1
     43473     43472     43474         0         1
     43476     43475     43477         0         1
     43479     43478     43480         0         1
     43482     43481     43483         0         1
     43485     43484     43486         0         1
     43488     43487     43489         0         1
     43491     43490     43492         0         1
     43494     43493     43495         0         1
     43497     43496     43498         0         1
     43500     43499     43501         0         1
     43503     43502     43504         0         1
     43506     43505     43507         0         1
     43509     43508     43510         0         1
     43512     43511     43513         0         1
     43515     43514     43516         0         1
     43518     43517     43519         0         1
     43521     43520     43522         0         1
     43524     43523     43525         0         1
     43527     43526     43528         0         1
     43530     43529     43531         0         1
     43533     43532     43534         0         1
     43536     43535     43537         0         1
     43539     43538     43540         0         1
     43542     43541     43543         0         1
     43545     43544     43546         0         1
     43548     43547     43549         0         1
     43551     43550     43552         0         1
     43554     43553     43555         0         1
     43557     43556     43558         0         1
     43560     43559     43561         0         1
     43563     43562     43564         0         1
     43566     43565     43567         0         1
     43569     43568     43570         0         1
     43572     43571     43573         0         1
     43575     43574     43576         0         1
     43578     43577     43579         0         1
     43581     43580     43582         0         1
     43584     43583     43585         0         1
     43587     43586     43588         0         1
     43590     43589     43591         0         1
     43593     43592     43594         0         1
     43596     43595     43597         0         1
     43599     43598     43600         0         1
     43602     43601     43603         0         1
     43605     43604     43606         0         1
     43608     43607     43609         0         1
     43611     43610     43612         0         1
     43614     43613     43615         0         1
     43617     43616     43618         0         1
     43620     43619     43621         0         1
     43623     43622     43624         0         1
     43626     43625     43627         0         1
     43629     43628     43630         0         1
     43632     43631     43633         0         1
     43635     43634     43636         0         1
     43638     43637     43639         0         1
     43641     43640     43642         0         1
     43644     43643     43645         0         1
     43647     43646     43648         0         1
     43650     43649     43651         0         1
     43653     43652     43654         0         1
     43656     43655     43657         0         1
     43659     43658     43660         0         1
     43662     43661     43663         0         1
     43665     43664     43666         0         1
     43668     43667     43669         0         1
     43671     43670     43672         0         1
     43674     43673     43675         0         1
     43677     43676     43678         0         1
     43680     43679     43681         0         1
     43683     43682     43684         0         1
     43686     43685     43687         0         1
     43689     43688     43690         0         1
     43692     43691     43693         0         1
     43695     43694     43696         0         1
     43698     43697     43699         0         1
     43701     43700     43702         0         1
     43704     43703     43705         0         1
     43707     43706     43708         0         1
     43710     43709     43711         0         1
     43713     43712     43714         0         1
     43716     43715     43717         0         1
     43719     43718     43720         0         1
     43722     43721     43723         0         1
     43725     43724     43726         0         1
     43728     43727     43729         0         1
     43731     43730     43732         0         1
     43734     43733     43735         0         1
     43737     43736     43738         0         1
     43740     43739     43741         0         1
     43743     43742     43744         0         1
     43746     43745     43747         0         1
     43749     43748     43750         0         1
     43752     43751     43753         0         1
     43755     43754     43756         0         1
     43758     43757     43759         0         1
     43761     43760     43762         0         1
     43764     43763     43765         0         1
     43767     43766     43768         0         1
     43770     43769     43771         0         1
     43773     43772     43774         0         1
     43776     43775     43777         0         1
     43779     43778     43780         0         1
     43782     43781     43783         0         1
     43785     43784     43786         0         1
     43788     43787     43789         0         1
     43791     43790     43792         0         1
     43794     43793     43795         0         1
     43797     43796     43798         0         1
     43800     43799     43801         0         1
     43803     43802     43804         0         1
     43806     43805     43807         0         1
     43809     43808     43810         0         1
     43812     43811     43813         0         1
     43815     43814     43816         0         1
     43818     43817     43819         0         1
     43821     43820     43822         0         1
     43824     43823     43825         0         1
     43827     43826     43828         0         1
     43830     43829     43831         0         1
     43833     43832     43834         0         1
     43836     43835     43837         0         1
     43839     43838     43840         0         1
     43842     43841     43843         0         1
     43845     43844     43846         0         1
     43848     43847     43849         0         1
     43851     43850     43852         0         1
     43854     43853     43855         0         1
     43857     43856     43858         0         1
     43860     43859     43861         0         1
     43863     43862     43864         0         1
     43866     43865     43867         0         1
     43869     43868     43870         0         1
     43872     43871     43873         0         1
     43875     43874     43876         0         1
     43878     43877     43879         0         1
     43881     43880     43882         0         1
     43884     43883     43885         0         1
     43887     43886     43888         0         1
     43890     43889     43891         0         1
     43893     43892     43894         0         1
     43896     43895     43897         0         1
     43899     43898     43900         0         1
     43902     43901     43903         0         1
     43905     43904     43906         0         1
     43908     43907     43909         0         1
     43911     43910     43912         0         1
     43914     43913     43915         0         1
     43917     43916     43918         0         1
     43920     43919     43921         0         1
     43923     43922     43924         0         1
     43926     43925     43927         0         1
     43929     43928     43930         0         1
     43932     43931     43933         0         1
     43935     43934     43936         0         1
     43938     43937     43939         0         1
     43941     43940     43942         0         1
     43944     43943     43945         0         1
     43947     43946     43948         0         1
     43950     43949     43951         0         1
     43953     43952     43954         0         1
     43956     43955     43957         0         1
     43959     43958     43960         0         1
     43962     43961     43963         0         1
     43965     43964     43966         0         1
     43968     43967     43969         0         1
     43971     43970     43972         0         1
     43974     43973     43975         0         1
     43977     43976     43978         0         1
     43980     43979     43981         0         1
     43983     43982     43984         0         1
     43986     43985     43987         0         1
     43989     43988     43990         0         1
     43992     43991     43993         0         1
     43995     43994     43996         0         1
     43998     43997     43999         0         1
     44001     44000     44002         0         1
     44004     44003     44005         0         1
     44007     44006     44008         0         1
     44010     44009     44011         0         1
     44013     44012     44014         0         1
     44016     44015     44017         0         1
     44019     44018     44020         0         1
     44022     44021     44023         0         1
     44025     44024     44026         0         1
     44028     44027     44029         0         1
     44031     44030     44032         0         1
     44034     44033     44035         0         1
     44037     44036     44038         0         1
     44040     44039     44041         0         1
     44043     44042     44044         0         1
     44046     44045     44047         0         1
     44049     44048     44050         0         1
     44052     44051     44053         0         1
     44055     44054     44056         0         1
     44058     44057     44059         0         1
     44061     44060     44062         0         1
     44064     44063     44065         0         1
     44067     44066     44068         0         1
     44070     44069     44071         0         1
     44073     44072     44074         0         1
     44076     44075     44077         0         1
     44079     44078     44080         0         1
     44082     44081     44083         0         1
     44085     44084     44086         0         1
     44088     44087     44089         0         1
     44091     44090     44092         0         1
     44094     44093     44095         0         1
     44097     44096     44098         0         1
     44100     44099     44101         0         1
     44103     44102     44104         0         1
     44106     44105     44107         0         1
     44109     44108     44110         0         1
     44112     44111     44113         0         1
     44115     44114     44116         0         1
     44118     44117     44119         0         1
     44121     44120     44122         0         1
     44124     44123     44125         0         1
     44127     44126     44128         0         1
     44130     44129     44131         0         1
     44133     44132     44134         0         1
     44136     44135     44137         0         1
     44139     44138     44140         0         1
     44142     44141     44143         0         1
     44145     44144     44146         0         1
     44148     44147     44149         0         1
     44151     44150     44152         0         1
     44154     44153     44155         0         1
     44157     44156     44158         0         1
     44160     44159     44161         0         1
     44163     44162     44164         0         1
     44166     44165     44167         0         1
     44169     44168     44170         0         1
     44172     44171     44173         0         1
     44175     44174     44176         0         1
     44178     44177     44179         0         1
     44181     44180     44182         0         1
     44184     44183     44185         0         1
     44187     44186     44188         0         1
     44190     44189     44191         0         1
     44193     44192     44194         0         1
     44196     44195     44197         0         1
     44199     44198     44200         0         1
     44202     44201     44203         0         1
     44205     44204     44206         0         1
     44208     44207     44209         0         1
     44211     44210     44212         0         1
     44214     44213     44215         0         1
     44217     44216     44218         0         1
     44220     44219     44221         0         1
     44223     44222     44224         0         1
     44226     44225     44227         0         1
     44229     44228     44230         0         1
     44232     44231     44233         0         1
     44235     44234     44236         0         1
     44238     44237     44239         0         1
     44241     44240     44242         0         1
     44244     44243     44245         0         1
     44247     44246     44248         0         1
     44250     44249     44251         0         1
     44253     44252     44254         0         1
     44256     44255     44257         0         1
     44259     44258     44260         0         1
     44262     44261     44263         0         1
     44265     44264     44266         0         1
     44268     44267     44269         0         1
     44271     44270     44272         0         1
     44274     44273     44275         0         1
     44277     44276     44278         0         1
     44280     44279     44281         0         1
     44283     44282     44284         0         1
     44286     44285     44287         0         1
     44289     44288     44290         0         1
     44292     44291     44293         0         1
     44295     44294     44296         0         1
     44298     44297     44299         0         1
     44301     44300     44302         0         1
     44304     44303     44305         0         1
     44307     44306     44308         0         1
     44310     44309     44311         0         1
     44313     44312     44314         0         1
     44316     44315     44317         0         1
     44319     44318     44320         0         1
     44322     44321     44323         0         1
     44325     44324     44326         0         1
     44328     44327     44329         0         1
     44331     44330     44332         0         1
     44334     44333     44335         0         1
     44337     44336     44338         0         1
     44340     44339     44341         0         1
     44343     44342     44344         0         1
     44346     44345     44347         0         1
     44349     44348     44350         0         1
     44352     44351     44353         0         1
     44355     44354     44356         0         1
     44358     44357     44359         0         1
     44361     44360     44362         0         1
     44364     44363     44365         0         1
     44367     44366     44368         0         1
     44370     44369     44371         0         1
     44373     44372     44374         0         1
     44376     44375     44377         0         1
     44379     44378     44380         0         1
     44382     44381     44383         0         1
     44385     44384     44386         0         1
     44388     44387     44389         0         1
     44391     44390     44392         0         1
     44394     44393     44395         0         1
     44397     44396     44398         0         1
     44400     44399     44401         0         1
     44403     44402     44404         0         1
     44406     44405     44407         0         1
     44409     44408     44410         0         1
     44412     44411     44413         0         1
     44415     44414     44416         0         1
     44418     44417     44419         0         1
     44421     44420     44422         0         1
     44424     44423     44425         0         1
     44427     44426     44428         0         1
     44430     44429     44431         0         1
     44433     44432     44434         0         1
     44436     44435     44437         0         1
     44439     44438     44440         0         1
     44442     44441     44443         0         1
     44445     44444     44446         0         1
     44448     44447     44449         0         1
     44451     44450     44452         0         1
     44454     44453     44455         0         1
     44457     44456     44458         0         1
     44460     44459     44461         0         1
     44463     44462     44464         0         1
     44466     44465     44467         0         1
     44469     44468     44470         0         1
     44472     44471     44473         0         1
     44475     44474     44476         0         1
     44478     44477     44479         0         1
     44481     44480     44482         0         1
     44484     44483     44485         0         1
     44487     44486     44488         0         1
     44490     44489     44491         0         1
     44493     44492     44494         0         1
     44496     44495     44497         0         1
     44499     44498     44500         0         1
     44502     44501     44503         0         1
     44505     44504     44506         0         1
     44508     44507     44509         0         1
     44511     44510     44512         0         1
     44514     44513     44515         0         1
     44517     44516     44518         0         1
     44520     44519     44521         0         1
     44523     44522     44524         0         1
     44526     44525     44527         0         1
     44529     44528     44530         0         1
     44532     44531     44533         0         1
     44535     44534     44536         0         1
     44538     44537     44539         0         1
     44541     44540     44542         0         1
     44544     44543     44545         0         1
     44547     44546     44548         0         1
     44550     44549     44551         0         1
     44553     44552     44554         0         1
     44556     44555     44557         0         1
     44559     44558     44560         0         1
     44562     44561     44563         0         1
     44565     44564     44566         0         1
     44568     44567     44569         0         1
     44571     44570     44572         0         1
     44574     44573     44575         0         1
     44577     44576     44578         0         1
     44580     44579     44581         0         1
     44583     44582     44584         0         1
     44586     44585     44587         0         1
     44589     44588     44590         0         1
     44592     44591     44593         0         1
     44595     44594     44596         0         1
     44598     44597     44599         0         1
     44601     44600     44602         0         1
     44604     44603     44605         0         1
     44607     44606     44608         0         1
     44610     44609     44611         0         1
     44613     44612     44614         0         1
     44616     44615     44617         0         1
     44619     44618     44620         0         1
     44622     44621     44623         0         1
     44625     44624     44626         0         1
     44628     44627     44629         0         1
     44631     44630     44632         0         1
     44634     44633     44635         0         1
     44637     44636     44638         0         1
     44640     44639     44641         0         1
     44643     44642     44644         0         1
     44646     44645     44647         0         1
     44649     44648     44650         0         1
     44652     44651     44653         0         1
     44655     44654     44656         0         1
     44658     44657     44659         0         1
     44661     44660     44662         0         1
     44664     44663     44665         0         1
     44667     44666     44668         0         1
     44670     44669     44671         0         1
     44673     44672     44674         0         1
     44676     44675     44677         0         1
     44679     44678     44680         0         1
     44682     44681     44683         0         1
     44685     44684     44686         0         1
     44688     44687     44689         0         1
     44691     44690     44692         0         1
     44694     44693     44695         0         1
     44697     44696     44698         0         1
     44700     44699     44701         0         1
     44703     44702     44704         0         1
     44706     44705     44707         0         1
     44709     44708     44710         0         1
     44712     44711     44713         0         1
     44715     44714     44716         0         1
     44718     44717     44719         0         1
     44721     44720     44722         0         1
     44724     44723     44725         0         1
     44727     44726     44728         0         1
     44730     44729     44731         0         1
     44733     44732     44734         0         1
     44736     44735     44737         0         1
     44739     44738     44740         0         1
     44742     44741     44743         0         1
     44745     44744     44746         0         1
     44748     44747     44749         0         1
     44751     44750     44752         0         1
     44754     44753     44755         0         1
     44757     44756     44758         0         1
     44760     44759     44761         0         1
     44763     44762     44764         0         1
     44766     44765     44767         0         1
     44769     44768     44770         0         1
     44772     44771     44773         0         1
     44775     44774     44776         0         1
     44778     44777     44779         0         1
     44781     44780     44782         0         1
     44784     44783     44785         0         1
     44787     44786     44788         0         1
     44790     44789     44791         0         1
     44793     44792     44794         0         1
     44796     44795     44797         0         1
     44799     44798     44800         0         1
     44802     44801     44803         0         1
     44805     44804     44806         0         1
     44808     44807     44809         0         1
     44811     44810     44812         0         1
     44814     44813     44815         0         1
     44817     44816     44818         0         1
     44820     44819     44821         0         1
     44823     44822     44824         0         1
     44826     44825     44827         0         1
     44829     44828     44830         0         1
     44832     44831     44833         0         1
     44835     44834     44836         0         1
     44838     44837     44839         0         1
     44841     44840     44842         0         1
     44844     44843     44845         0         1
     44847     44846     44848         0         1
     44850     44849     44851         0         1
     44853     44852     44854         0         1
     44856     44855     44857         0         1
     44859     44858     44860         0         1
     44862     44861     44863         0         1
     44865     44864     44866         0         1
     44868     44867     44869         0         1
     44871     44870     44872         0         1
     44874     44873     44875         0         1
     44877     44876     44878         0         1
     44880     44879     44881         0         1
     44883     44882     44884         0         1
     44886     44885     44887         0         1
     44889     44888     44890         0         1
     44892     44891     44893         0         1
     44895     44894     44896         0         1
     44898     44897     44899         0         1
     44901     44900     44902         0         1
     44904     44903     44905         0         1
     44907     44906     44908         0         1
     44910     44909     44911         0         1
     44913     44912     44914         0         1
     44916     44915     44917         0         1
     44919     44918     44920         0         1
     44922     44921     44923         0         1
     44925     44924     44926         0         1
     44928     44927     44929         0         1
     44931     44930     44932         0         1
     44934     44933     44935         0         1
     44937     44936     44938         0         1
     44940     44939     44941         0         1
     44943     44942     44944         0         1
     44946     44945     44947         0         1
     44949     44948     44950         0         1
     44952     44951     44953         0         1
     44955     44954     44956         0         1
     44958     44957     44959         0         1
     44961     44960     44962         0         1
     44964     44963     44965         0         1
     44967     44966     44968         0         1
     44970     44969     44971         0         1
     44973     44972     44974         0         1
     44976     44975     44977         0         1
     44979     44978     44980         0         1
     44982     44981     44983         0         1
     44985     44984     44986         0         1
     44988     44987     44989         0         1
     44991     44990     44992         0         1
     44994     44993     44995         0         1
     44997     44996     44998         0         1
     45000     44999     45001         0         1
     45003     45002     45004         0         1
     45006     45005     45007         0         1
     45009     45008     45010         0         1
     45012     45011     45013         0         1
     45015     45014     45016         0         1
     45018     45017     45019         0         1
     45021     45020     45022         0         1
     45024     45023     45025         0         1
     45027     45026     45028         0         1
     45030     45029     45031         0         1
     45033     45032     45034         0         1
     45036     45035     45037         0         1
     45039     45038     45040         0         1
     45042     45041     45043         0         1
     45045     45044     45046         0         1
     45048     45047     45049         0         1
     45051     45050     45052         0         1
     45054     45053     45055         0         1
     45057     45056     45058         0         1
     45060     45059     45061         0         1
     45063     45062     45064         0         1
     45066     45065     45067         0         1
     45069     45068     45070         0         1
     45072     45071     45073         0         1
     45075     45074     45076         0         1
     45078     45077     45079         0         1
     45081     45080     45082         0         1
     45084     45083     45085         0         1
     45087     45086     45088         0         1
     45090     45089     45091         0         1
     45093     45092     45094         0         1
     45096     45095     45097         0         1
     45099     45098     45100         0         1
     45102     45101     45103         0         1
     45105     45104     45106         0         1
     45108     45107     45109         0         1
     45111     45110     45112         0         1
     45114     45113     45115         0         1
     45117     45116     45118         0         1
     45120     45119     45121         0         1
     45123     45122     45124         0         1
     45126     45125     45127         0         1
     45129     45128     45130         0         1
     45132     45131     45133         0         1
     45135     45134     45136         0         1
     45138     45137     45139         0         1
     45141     45140     45142         0         1
     45144     45143     45145         0         1
     45147     45146     45148         0         1
     45150     45149     45151         0         1
     45153     45152     45154         0         1
     45156     45155     45157         0         1
     45159     45158     45160         0         1
     45162     45161     45163         0         1
     45165     45164     45166         0         1
     45168     45167     45169         0         1
     45171     45170     45172         0         1
     45174     45173     45175         0         1
     45177     45176     45178         0         1
     45180     45179     45181         0         1
     45183     45182     45184         0         1
     45186     45185     45187         0         1
     45189     45188     45190         0         1
     45192     45191     45193         0         1
     45195     45194     45196         0         1
     45198     45197     45199         0         1
     45201     45200     45202         0         1
     45204     45203     45205         0         1
     45207     45206     45208         0         1
     45210     45209     45211         0         1
     45213     45212     45214         0         1
     45216     45215     45217         0         1
     45219     45218     45220         0         1
     45222     45221     45223         0         1
     45225     45224     45226         0         1
     45228     45227     45229         0         1
     45231     45230     45232         0         1
     45234     45233     45235         0         1
     45237     45236     45238         0         1
     45240     45239     45241         0         1
     45243     45242     45244         0         1
     45246     45245     45247         0         1
     45249     45248     45250         0         1
     45252     45251     45253         0         1
     45255     45254     45256         0         1
     45258     45257     45259         0         1
     45261     45260     45262         0         1
     45264     45263     45265         0         1
     45267     45266     45268         0         1
     45270     45269     45271         0         1
     45273     45272     45274         0         1
     45276     45275     45277         0         1
     45279     45278     45280         0         1
     45282     45281     45283         0         1
     45285     45284     45286         0         1
     45288     45287     45289         0         1
     45291     45290     45292         0         1
     45294     45293     45295         0         1
     45297     45296     45298         0         1
     45300     45299     45301         0         1
     45303     45302     45304         0         1
     45306     45305     45307         0         1
     45309     45308     45310         0         1
     45312     45311     45313         0         1
     45315     45314     45316         0         1
     45318     45317     45319         0         1
     45321     45320     45322         0         1
     45324     45323     45325         0         1
     45327     45326     45328         0         1
     45330     45329     45331         0         1
     45333     45332     45334         0         1
     45336     45335     45337         0         1
     45339     45338     45340         0         1
     45342     45341     45343         0         1
     45345     45344     45346         0         1
     45348     45347     45349         0         1
     45351     45350     45352         0         1
     45354     45353     45355         0         1
     45357     45356     45358         0         1
     45360     45359     45361         0         1
     45363     45362     45364         0         1
     45366     45365     45367         0         1
     45369     45368     45370         0         1
     45372     45371     45373         0         1
     45375     45374     45376         0         1
     45378     45377     45379         0         1
     45381     45380     45382         0         1
     45384     45383     45385         0         1
     45387     45386     45388         0         1
     45390     45389     45391         0         1
     45393     45392     45394         0         1
     45396     45395     45397         0         1
     45399     45398     45400         0         1
     45402     45401     45403         0         1
     45405     45404     45406         0         1
     45408     45407     45409         0         1
     45411     45410     45412         0         1
     45414     45413     45415         0         1
     45417     45416     45418         0         1
     45420     45419     45421         0         1
     45423     45422     45424         0         1
     45426     45425     45427         0         1
     45429     45428     45430         0         1
     45432     45431     45433         0         1
     45435     45434     45436         0         1
     45438     45437     45439         0         1
     45441     45440     45442         0         1
     45444     45443     45445         0         1
     45447     45446     45448         0         1
     45450     45449     45451         0         1
     45453     45452     45454         0         1
     45456     45455     45457         0         1
     45459     45458     45460         0         1
     45462     45461     45463         0         1
     45465     45464     45466         0         1
     45468     45467     45469         0         1
     45471     45470     45472         0         1
     45474     45473     45475         0         1
     45477     45476     45478         0         1
     45480     45479     45481         0         1
     45483     45482     45484         0         1
     45486     45485     45487         0         1
     45489     45488     45490         0         1
     45492     45491     45493         0         1
     45495     45494     45496         0         1
     45498     45497     45499         0         1
     45501     45500     45502         0         1
     45504     45503     45505         0         1
     45507     45506     45508         0         1
     45510     45509     45511         0         1
     45513     45512     45514         0         1
     45516     45515     45517         0         1
     45519     45518     45520         0         1
     45522     45521     45523         0         1
     45525     45524     45526         0         1
     45528     45527     45529         0         1
     45531     45530     45532         0         1
     45534     45533     45535         0         1
     45537     45536     45538         0         1
     45540     45539     45541         0         1
     45543     45542     45544         0         1
     45546     45545     45547         0         1
     45549     45548     45550         0         1
     45552     45551     45553         0         1
     45555     45554     45556         0         1
     45558     45557     45559         0         1
     45561     45560     45562         0         1
     45564     45563     45565         0         1
     45567     45566     45568         0         1
     45570     45569     45571         0         1
     45573     45572     45574         0         1
     45576     45575     45577         0         1
     45579     45578     45580         0         1
     45582     45581     45583         0         1
     45585     45584     45586         0         1
     45588     45587     45589         0         1
     45591     45590     45592         0         1
     45594     45593     45595         0         1
     45597     45596     45598         0         1
     45600     45599     45601         0         1
     45603     45602     45604         0         1
     45606     45605     45607         0         1
     45609     45608     45610         0         1
     45612     45611     45613         0         1
     45615     45614     45616         0         1
     45618     45617     45619         0         1
     45621     45620     45622         0         1
     45624     45623     45625         0         1
     45627     45626     45628         0         1
     45630     45629     45631         0         1
     45633     45632     45634         0         1
     45636     45635     45637         0         1
     45639     45638     45640         0         1
     45642     45641     45643         0         1
     45645     45644     45646         0         1
     45648     45647     45649         0         1
     45651     45650     45652         0         1
     45654     45653     45655         0         1
     45657     45656     45658         0         1
     45660     45659     45661         0         1
     45663     45662     45664         0         1
     45666     45665     45667         0         1
     45669     45668     45670         0         1
     45672     45671     45673         0         1
     45675     45674     45676         0         1
     45678     45677     45679         0         1
     45681     45680     45682         0         1
     45684     45683     45685         0         1
     45687     45686     45688         0         1
     45690     45689     45691         0         1
     45693     45692     45694         0         1
     45696     45695     45697         0         1
     45699     45698     45700         0         1
     45702     45701     45703         0         1
     45705     45704     45706         0         1
     45708     45707     45709         0         1
     45711     45710     45712         0         1
     45714     45713     45715         0         1
     45717     45716     45718         0         1
     45720     45719     45721         0         1
     45723     45722     45724         0         1
     45726     45725     45727         0         1
     45729     45728     45730         0         1
     45732     45731     45733         0         1
     45735     45734     45736         0         1
     45738     45737     45739         0         1
     45741     45740     45742         0         1
     45744     45743     45745         0         1
     45747     45746     45748         0         1
     45750     45749     45751         0         1
     45753     45752     45754         0         1
     45756     45755     45757         0         1
     45759     45758     45760         0         1
     45762     45761     45763         0         1
     45765     45764     45766         0         1
     45768     45767     45769         0         1
     45771     45770     45772         0         1
     45774     45773     45775         0         1
     45777     45776     45778         0         1
     45780     45779     45781         0         1
     45783     45782     45784         0         1
     45786     45785     45787         0         1
     45789     45788     45790         0         1
     45792     45791     45793         0         1
     45795     45794     45796         0         1
     45798     45797     45799         0         1
     45801     45800     45802         0         1
     45804     45803     45805         0         1
     45807     45806     45808         0         1
     45810     45809     45811         0         1
     45813     45812     45814         0         1
     45816     45815     45817         0         1
     45819     45818     45820         0         1
     45822     45821     45823         0         1
     45825     45824     45826         0         1
     45828     45827     45829         0         1
     45831     45830     45832         0         1
     45834     45833     45835         0         1
     45837     45836     45838         0         1
     45840     45839     45841         0         1
     45843     45842     45844         0         1
     45846     45845     45847         0         1
     45849     45848     45850         0         1
     45852     45851     45853         0         1
     45855     45854     45856         0         1
     45858     45857     45859         0         1
     45861     45860     45862         0         1
     45864     45863     45865         0         1
     45867     45866     45868         0         1
     45870     45869     45871         0         1
     45873     45872     45874         0         1
     45876     45875     45877         0         1
     45879     45878     45880         0         1
     45882     45881     45883         0         1
     45885     45884     45886         0         1
     45888     45887     45889         0         1
     45891     45890     45892         0         1
     45894     45893     45895         0         1
     45897     45896     45898         0         1
     45900     45899     45901         0         1
     45903     45902     45904         0         1
     45906     45905     45907         0         1
     45909     45908     45910         0         1
     45912     45911     45913         0         1
     45915     45914     45916         0         1
     45918     45917     45919         0         1
     45921     45920     45922         0         1
     45924     45923     45925         0         1
     45927     45926     45928         0         1
     45930     45929     45931         0         1
     45933     45932     45934         0         1
     45936     45935     45937         0         1
     45939     45938     45940         0         1
     45942     45941     45943         0         1
     45945     45944     45946         0         1
     45948     45947     45949         0         1
     45951     45950     45952         0         1
     45954     45953     45955         0         1
     45957     45956     45958         0         1
     45960     45959     45961         0         1
     45963     45962     45964         0         1
     45966     45965     45967         0         1
     45969     45968     45970         0         1
     45972     45971     45973         0         1
     45975     45974     45976         0         1
     45978     45977     45979         0         1
     45981     45980     45982         0         1
     45984     45983     45985         0         1
     45987     45986     45988         0         1
     45990     45989     45991         0         1
     45993     45992     45994         0         1
     45996     45995     45997         0         1
     45999     45998     46000         0         1
     46002     46001     46003         0         1
     46005     46004     46006         0         1
     46008     46007     46009         0         1
     46011     46010     46012         0         1
     46014     46013     46015         0         1
     46017     46016     46018         0         1
     46020     46019     46021         0         1
     46023     46022     46024         0         1
     46026     46025     46027         0         1
     46029     46028     46030         0         1
     46032     46031     46033         0         1
     46035     46034     46036         0         1
     46038     46037     46039         0         1
     46041     46040     46042         0         1
     46044     46043     46045         0         1
     46047     46046     46048         0         1
     46050     46049     46051         0         1
     46053     46052     46054         0         1
     46056     46055     46057         0         1
     46059     46058     46060         0         1
     46062     46061     46063         0         1
     46065     46064     46066         0         1
     46068     46067     46069         0         1
     46071     46070     46072         0         1
     46074     46073     46075         0         1
     46077     46076     46078         0         1
     46080     46079     46081         0         1
     46083     46082     46084         0         1
     46086     46085     46087         0         1
     46089     46088     46090         0         1
     46092     46091     46093         0         1
     46095     46094     46096         0         1
     46098     46097     46099         0         1
     46101     46100     46102         0         1
     46104     46103     46105         0         1
     46107     46106     46108         0         1
     46110     46109     46111         0         1
     46113     46112     46114         0         1
     46116     46115     46117         0         1
     46119     46118     46120         0         1
     46122     46121     46123         0         1
     46125     46124     46126         0         1
     46128     46127     46129         0         1
     46131     46130     46132         0         1
     46134     46133     46135         0         1
     46137     46136     46138         0         1
     46140     46139     46141         0         1
     46143     46142     46144         0         1
     46146     46145     46147         0         1
     46149     46148     46150         0         1
     46152     46151     46153         0         1
     46155     46154     46156         0         1
     46158     46157     46159         0         1
     46161     46160     46162         0         1
     46164     46163     46165         0         1
     46167     46166     46168         0         1
     46170     46169     46171         0         1
     46173     46172     46174         0         1
     46176     46175     46177         0         1
     46179     46178     46180         0         1
     46182     46181     46183         0         1
     46185     46184     46186         0         1
     46188     46187     46189         0         1
     46191     46190     46192         0         1
     46194     46193     46195         0         1
     46197     46196     46198         0         1
     46200     46199     46201         0         1
     46203     46202     46204         0         1
     46206     46205     46207         0         1
     46209     46208     46210         0         1
     46212     46211     46213         0         1
     46215     46214     46216         0         1
     46218     46217     46219         0         1
     46221     46220     46222         0         1
     46224     46223     46225         0         1
     46227     46226     46228         0         1
     46230     46229     46231         0         1
     46233     46232     46234         0         1
     46236     46235     46237         0         1
     46239     46238     46240         0         1
     46242     46241     46243         0         1
     46245     46244     46246         0         1
     46248     46247     46249         0         1
     46251     46250     46252         0         1
     46254     46253     46255         0         1
     46257     46256     46258         0         1
     46260     46259     46261         0         1
     46263     46262     46264         0         1
     46266     46265     46267         0         1
     46269     46268     46270         0         1
     46272     46271     46273         0         1
     46275     46274     46276         0         1
     46278     46277     46279         0         1
     46281     46280     46282         0         1
     46284     46283     46285         0         1
     46287     46286     46288         0         1
     46290     46289     46291         0         1
     46293     46292     46294         0         1
     46296     46295     46297         0         1
     46299     46298     46300         0         1
     46302     46301     46303         0         1
     46305     46304     46306         0         1
     46308     46307     46309         0         1
     46311     46310     46312         0         1
     46314     46313     46315         0         1
     46317     46316     46318         0         1
     46320     46319     46321         0         1
     46323     46322     46324         0         1
     46326     46325     46327         0         1
     46329     46328     46330         0         1
     46332     46331     46333         0         1
     46335     46334     46336         0         1
     46338     46337     46339         0         1
     46341     46340     46342         0         1
     46344     46343     46345         0         1
     46347     46346     46348         0         1
     46350     46349     46351         0         1
     46353     46352     46354         0         1
     46356     46355     46357         0         1
     46359     46358     46360         0         1
     46362     46361     46363         0         1
     46365     46364     46366         0         1
     46368     46367     46369         0         1
     46371     46370     46372         0         1
     46374     46373     46375         0         1
     46377     46376     46378         0         1
     46380     46379     46381         0         1
     46383     46382     46384         0         1
     46386     46385     46387         0         1
     46389     46388     46390         0         1
     46392     46391     46393         0         1
     46395     46394     46396         0         1
     46398     46397     46399         0         1
     46401     46400     46402         0         1
     46404     46403     46405         0         1
     46407     46406     46408         0         1
     46410     46409     46411         0         1
     46413     46412     46414         0         1
     46416     46415     46417         0         1
     46419     46418     46420         0         1
     46422     46421     46423         0         1
     46425     46424     46426         0         1
     46428     46427     46429         0         1
     46431     46430     46432         0         1
